INSANE! Membrane UpperLeaflet>PSPI:POPI:POPS:YOPS:POPE:YOPE:POPC:YOPC:ERGO=6.0:14.0:21.0:9.0:9.0:21.0:12.0:48.0:60.0 LowerLeaflet>PSPI:POPI:POPS:YOPS:POPE:YOPE:POPC:YOPC:ERGO=6.0:14.0:21.0:9.0:9.0:21.0:12.0:48.0:60.0
49592
    1PSPI    C1    1  14.665   9.843  10.824  0.1437 -0.2293 -0.0272
    1PSPI    C2    2  14.873   9.509  10.752  0.2710 -0.2148  0.2591
    1PSPI    C3    3  14.758   9.596  11.125  0.0750 -0.0322  0.1581
    1PSPI   PO4    4  14.547   9.832  10.532  0.1478  0.2663  0.1069
    1PSPI   GL1    5  14.658   9.794  10.073  0.2079 -0.2231  0.1408
    1PSPI   GL2    6  14.384   9.696   9.970  0.0684 -0.2188 -0.1571
    1PSPI   C1A    7  14.586  10.124   9.813 -0.4384 -0.1102  0.1352
    1PSPI   C2A    8  14.420  10.484   9.572  0.1570  0.0155 -0.2007
    1PSPI   C3A    9  14.387  10.657   9.131  0.1656  0.0238  0.0454
    1PSPI   C4A   10  14.092  10.935   8.982 -0.0247  0.0358 -0.0014
    1PSPI   C1B   11  14.165   9.643   9.612 -0.0846  0.3652 -0.0003
    1PSPI   C2B   12  14.277   9.601   9.181 -0.0321 -0.4309  0.0267
    1PSPI   C3B   13  14.421   9.246   8.920 -0.0456 -0.1760  0.3557
    1PSPI   C4B   14  14.320   8.804   8.927  0.2311  0.0047 -0.2961
    2PSPI    C1   15   4.048  14.799  10.107  0.2323 -0.0245 -0.0645
    2PSPI    C2   16   4.314  14.725  10.395  0.1434 -0.0789  0.0042
    2PSPI    C3   17   3.952  14.557  10.410  0.0587  0.0994 -0.0192
    2PSPI   PO4   18   4.270  14.908   9.842  0.0946  0.0295 -0.0850
    2PSPI   GL1   19   4.176  15.095   9.426  0.0285  0.1477  0.0987
    2PSPI   GL2   20   4.148  15.431   9.322  0.0947  0.0328 -0.0236
    2PSPI   C1A   21   4.040  15.023   8.964  0.2470  0.1796  0.2269
    2PSPI   C2A   22   4.092  14.983   8.444  0.0340  0.1622 -0.0651
    2PSPI   C3A   23   3.913  14.702   8.050  0.0196 -0.1420 -0.0364
    2PSPI   C4A   24   3.687  14.311   7.837 -0.2545  0.1175 -0.0960
    2PSPI   C1B   25   4.206  15.485   8.891  0.2228  0.0650  0.4751
    2PSPI   C2B   26   4.204  15.574   8.544  0.1898  0.0421 -0.1920
    2PSPI   C3B   27   4.062  15.513   8.150 -0.2151 -0.3167  0.0546
    2PSPI   C4B   28   4.004  15.130   7.880 -0.2462  0.0421 -0.2266
    3PSPI    C1   29   3.587  17.416  10.798  0.0828 -0.0471 -0.0564
    3PSPI    C2   30   3.572  17.816  10.798  0.0080 -0.0497 -0.0295
    3PSPI    C3   31   3.855  17.627  11.008  0.0747 -0.0101 -0.0828
    3PSPI   PO4   32   3.562  17.349  10.537  0.0207 -0.3609  0.1127
    3PSPI   GL1   33   3.481  17.322  10.073  0.3153 -0.2577  0.1466
    3PSPI   GL2   34   3.233  17.173  10.100  0.2596 -0.1727  0.0763
    3PSPI   C1A   35   3.720  17.582   9.807 -0.3541 -0.0708 -0.3134
    3PSPI   C2A   36   4.133  17.826   9.852  0.0586  0.2622  0.2874
    3PSPI   C3A   37   4.498  18.097   9.605  0.2187  0.2421 -0.0832
    3PSPI   C4A   38   4.947  18.004   9.346 -0.0045 -0.0975 -0.1100
    3PSPI   C1B   39   3.439  16.977   9.712  0.2831 -0.3031  0.3070
    3PSPI   C2B   40   3.777  17.136   9.577 -0.0338  0.0543 -0.2914
    3PSPI   C3B   41   3.703  17.020   9.188 -0.0252 -0.3933 -0.2397
    3PSPI   C4B   42   3.971  17.062   8.791 -0.2688 -0.1118  0.1159
    4PSPI    C1   43   3.509  14.309  10.067 -0.2040 -0.0365  0.0710
    4PSPI    C2   44   3.486  14.639  10.292  0.0746 -0.0491  0.1221
    4PSPI    C3   45   3.176  14.530  10.064 -0.0272  0.2360  0.1207
    4PSPI   PO4   46   3.716  14.415   9.922  0.0995 -0.1072 -0.0647
    4PSPI   GL1   47   3.910  14.660   9.549 -0.0537 -0.4843 -0.2640
    4PSPI   GL2   48   3.932  14.393   9.487  0.0755  0.3637 -0.3637
    4PSPI   C1A   49   3.831  14.568   9.092 -0.1676 -0.0589 -0.0880
    4PSPI   C2A   50   3.779  14.595   8.648 -0.1348 -0.1019 -0.0021
    4PSPI   C3A   51   3.815  14.294   8.337 -0.2141 -0.3874 -0.1209
    4PSPI   C4A   52   3.616  13.967   8.201  0.1255 -0.1538 -0.0820
    4PSPI   C1B   53   4.075  14.079   9.077  0.0227 -0.0105 -0.1039
    4PSPI   C2B   54   3.935  13.833   8.682  0.1050  0.1991  0.2550
    4PSPI   C3B   55   3.902  13.518   8.391 -0.1214  0.2471 -0.0680
    4PSPI   C4B   56   3.736  13.535   7.927  0.0199  0.0574 -0.4453
    5PSPI    C1   57   9.329  14.488  10.324 -0.3817  0.0528  0.0339
    5PSPI    C2   58   9.397  14.416  10.711  0.0069 -0.2209 -0.0785
    5PSPI    C3   59   9.507  14.765  10.551 -0.0031 -0.1715  0.0213
    5PSPI   PO4   60   9.261  14.386  10.124 -0.1078  0.0369  0.1143
    5PSPI   GL1   61   9.367  14.403   9.630 -0.0776  0.0234  0.1310
    5PSPI   GL2   62   9.273  14.156   9.374 -0.1500 -0.0739  0.0343
    5PSPI   C1A   63   9.644  14.513   9.313  0.0863 -0.0682  0.1573
    5PSPI   C2A   64   9.744  14.316   8.883 -0.1454  0.1945  0.1130
    5PSPI   C3A   65   9.647  14.195   8.519  0.1059 -0.3297  0.1505
    5PSPI   C4A   66   9.779  14.187   8.105 -0.0617  0.1323  0.2550
    5PSPI   C1B   67   9.239  14.286   9.026  0.0502 -0.0133  0.1926
    5PSPI   C2B   68   9.156  14.136   8.633  0.1392  0.0866 -0.1276
    5PSPI   C3B   69   9.034  13.990   8.386  0.1127 -0.1639  0.1095
    5PSPI   C4B   70   9.232  13.894   8.051  0.0532 -0.3344  0.1385
    6PSPI    C1   71   1.906   1.976  10.409  0.0647 -0.0220  0.0172
    6PSPI    C2   72   1.628   1.705  10.311 -0.0579  0.1086  0.0003
    6PSPI    C3   73   1.710   1.776  10.696  0.0889 -0.0666  0.0027
    6PSPI   PO4   74   2.168   1.861  10.304 -0.2446  0.3065 -0.1572
    6PSPI   GL1   75   2.486   1.895   9.958 -0.2520  0.2078  0.0653
    6PSPI   GL2   76   2.700   2.173   9.900 -0.1172 -0.2055  0.1196
    6PSPI   C1A   77   2.674   1.678   9.606 -0.1400  0.3784  0.0817
    6PSPI   C2A   78   2.778   1.676   9.230  0.0552  0.1392  0.1856
    6PSPI   C3A   79   2.889   1.539   8.829  0.1428 -0.4977  0.1700
    6PSPI   C4A   80   2.727   1.162   8.539 -0.2088 -0.0310 -0.2127
    6PSPI   C1B   81   2.852   2.158   9.500  0.4204  0.0880  0.1397
    6PSPI   C2B   82   2.862   2.390   9.089 -0.2258 -0.0871 -0.1552
    6PSPI   C3B   83   2.610   2.490   8.833  0.2223 -0.2460  0.3816
    6PSPI   C4B   84   2.443   2.874   8.814  0.0794 -0.0271  0.1545
    7PSPI    C1   85  16.414  18.074  10.245  0.0110  0.0635 -0.0769
    7PSPI    C2   86  16.638  18.321  10.024 -0.0086  0.1721  0.0240
    7PSPI    C3   87  16.790  17.974  10.152  0.0454  0.1678 -0.0514
    7PSPI   PO4   88  16.160  18.092  10.227  0.0639  0.1457 -0.1389
    7PSPI   GL1   89  16.149  18.251   9.831 -0.0308  0.1499 -0.1295
    7PSPI   GL2   90  16.193  18.638   9.847 -0.0160  0.1186  0.0690
    7PSPI   C1A   91  16.343  18.536   9.438 -0.1009 -0.1215 -0.3078
    7PSPI   C2A   92  16.560  18.644   8.999 -0.0117  0.0417 -0.1420
    7PSPI   C3A   93  16.761  18.869   8.645  0.3102  0.3054 -0.0604
    7PSPI   C4A   94  16.667  19.333   8.662 -0.3664  0.2344 -0.2204
    7PSPI   C1B   95  16.101  19.110   9.693 -0.1549  0.0503  0.0096
    7PSPI   C2B   96  16.226  18.982   9.333  0.0488 -0.1919  0.2565
    7PSPI   C3B   97  16.027  18.682   9.063 -0.0635 -0.0676 -0.0027
    7PSPI   C4B   98  15.843  18.266   8.936  0.0851 -0.0529  0.1704
    8PSPI    C1   99   9.006   9.773  10.255 -0.0673 -0.0733 -0.2162
    8PSPI    C2  100   8.714   9.532  10.127 -0.2982  0.2839 -0.3798
    8PSPI    C3  101   8.694   9.695  10.492  0.1403 -0.3814 -0.0373
    8PSPI   PO4  102   9.069  10.011   9.975 -0.0611  0.1691 -0.2394
    8PSPI   GL1  103   9.232   9.927   9.640 -0.3120  0.1293 -0.0457
    8PSPI   GL2  104   8.924   9.986   9.473 -0.0347 -0.1864 -0.0543
    8PSPI   C1A  105   9.344   9.932   9.179 -0.5346  0.1336 -0.2964
    8PSPI   C2A  106   9.612  10.090   8.911 -0.0886  0.2723  0.0774
    8PSPI   C3A  107   9.651   9.891   8.560  0.3031 -0.0429 -0.3603
    8PSPI   C4A  108   9.497   9.949   8.119 -0.3240 -0.1571  0.0518
    8PSPI   C1B  109   8.596   9.918   9.162  0.1845  0.2256 -0.4181
    8PSPI   C2B  110   8.543   9.820   8.718  0.1503  0.2305  0.0493
    8PSPI   C3B  111   8.481   9.997   8.362  0.1605 -0.0993  0.1051
    8PSPI   C4B  112   8.304   9.927   7.966 -0.0568  0.0196 -0.3384
    9PSPI    C1  113  14.577   0.453  10.086 -0.0970 -0.1412 -0.0201
    9PSPI    C2  114  14.263   0.260  10.241 -0.3366  0.2614  0.0109
    9PSPI    C3  115  14.237   0.650  10.159  0.0216  0.2099 -0.3821
    9PSPI   PO4  116  14.656   0.282   9.827 -0.0533 -0.2847  0.0857
    9PSPI   GL1  117  14.563   0.450   9.383  0.0812  0.3557  0.0979
    9PSPI   GL2  118  14.474   0.258   9.264 -0.0283  0.2282  0.0245
    9PSPI   C1A  119  14.763   0.785   9.226 -0.1520  0.1689 -0.2377
    9PSPI   C2A  120  15.203   0.884   9.038  0.0550 -0.1935 -0.0901
    9PSPI   C3A  121  15.496   0.639   8.853  0.0568  0.0427  0.1521
    9PSPI   C4A  122  15.740   1.038   8.584  0.1839  0.2552 -0.0139
    9PSPI   C1B  123  14.416   0.043   8.833 -0.2284 -0.0582  0.0226
    9PSPI   C2B  124  14.102  -0.069   8.537 -0.0524 -0.0504 -0.0357
    9PSPI   C3B  125  14.055  -0.051   8.093 -0.0970 -0.1888 -0.2332
    9PSPI   C4B  126  14.205   0.149   7.748  0.5673  0.1063 -0.1313
   10PSPI    C1  127  12.297   4.460  10.474 -0.0102 -0.1095  0.0002
   10PSPI    C2  128  12.435   4.229  10.769 -0.0135 -0.3647 -0.1948
   10PSPI    C3  129  12.480   4.626  10.789  0.1534 -0.3935  0.0578
   10PSPI   PO4  130  12.400   4.420  10.265 -0.1801  0.2120  0.2090
   10PSPI   GL1  131  12.299   4.426   9.892  0.0237 -0.0791  0.0130
   10PSPI   GL2  132  12.360   4.639   9.784 -0.4113  0.0144  0.2469
   10PSPI   C1A  133  12.178   4.445   9.429  0.2073  0.1792 -0.2666
   10PSPI   C2A  134  12.138   4.404   8.992 -0.0665  0.0137  0.3557
   10PSPI   C3A  135  11.858   4.583   8.602  0.1758  0.1697 -0.0470
   10PSPI   C4A  136  11.798   5.046   8.477  0.2441 -0.0071 -0.2629
   10PSPI   C1B  137  12.628   4.845   9.505 -0.0034 -0.1152  0.2259
   10PSPI   C2B  138  12.713   4.909   9.098  0.2463 -0.2308 -0.0271
   10PSPI   C3B  139  12.888   5.050   8.713  0.1908  0.2628 -0.1942
   10PSPI   C4B  140  13.183   5.056   8.357 -0.1507  0.1752  0.0765
   11PSPI    C1  141  17.737  17.618  10.575 -0.0564  0.2475  0.0647
   11PSPI    C2  142  18.106  17.771  10.553 -0.0188  0.1343 -0.1136
   11PSPI    C3  143  18.001  17.549  10.868  0.1322 -0.0041 -0.1594
   11PSPI   PO4  144  17.760  17.503  10.312  0.0213  0.1003 -0.0083
   11PSPI   GL1  145  17.502  17.478  10.050 -0.0685  0.0135  0.0353
   11PSPI   GL2  146  17.380  17.237   9.910 -0.0432  0.2767  0.1927
   11PSPI   C1A  147  17.642  17.622   9.677 -0.0772 -0.1719  0.0150
   11PSPI   C2A  148  17.746  17.869   9.305  0.0604 -0.1627 -0.0323
   11PSPI   C3A  149  17.709  17.956   8.861 -0.1059  0.0670  0.0159
   11PSPI   C4A  150  17.995  18.179   8.652 -0.0600  0.1381 -0.1853
   11PSPI   C1B  151  17.184  16.901   9.579  0.2878  0.0817  0.0975
   11PSPI   C2B  152  16.946  17.020   9.284  0.0019  0.0987  0.1838
   11PSPI   C3B  153  16.665  16.842   8.998 -0.0748 -0.1166 -0.3460
   11PSPI   C4B  154  16.595  16.765   8.576  0.0290  0.0622  0.2338
   12PSPI    C1  155   1.780  18.359  10.642 -0.0614  0.0706 -0.2267
   12PSPI    C2  156   2.130  18.224  10.503 -0.0082 -0.0478  0.0159
   12PSPI    C3  157   1.951  18.038  10.808 -0.2688  0.0310 -0.0858
   12PSPI   PO4  158   1.812  18.645  10.497  0.0644  0.0196  0.1098
   12PSPI   GL1  159   1.840  18.820  10.157  0.0144 -0.1424  0.2085
   12PSPI   GL2  160   2.099  19.068  10.043 -0.1752 -0.0716  0.2242
   12PSPI   C1A  161   1.952  18.660   9.745  0.1928  0.0334  0.0191
   12PSPI   C2A  162   1.750  18.789   9.411  0.0330  0.1049  0.0358
   12PSPI   C3A  163   1.559  19.132   9.340 -0.1712 -0.1714 -0.2919
   12PSPI   C4A  164   1.380  19.446   9.023  0.0639 -0.1284  0.1806
   12PSPI   C1B  165   2.301  19.314   9.648 -0.1066  0.2010  0.0536
   12PSPI   C2B  166   2.119  19.255   9.258 -0.0626  0.2536 -0.1741
   12PSPI   C3B  167   1.891  19.106   8.907 -0.1758 -0.0207 -0.2267
   12PSPI   C4B  168   1.558  19.099   8.619  0.0473  0.3874  0.3000
   13PSPI    C1  169  12.898  11.715  10.468 -0.0966 -0.1277 -0.1134
   13PSPI    C2  170  13.059  11.657  10.830 -0.2118  0.1741 -0.0105
   13PSPI    C3  171  12.871  11.357  10.644 -0.1055  0.0026  0.1556
   13PSPI   PO4  172  13.064  11.792  10.313 -0.2255 -0.0739  0.1148
   13PSPI   GL1  173  13.369  11.663   9.919 -0.1064  0.1021 -0.0871
   13PSPI   GL2  174  13.117  11.642   9.767  0.2940 -0.0183  0.1466
   13PSPI   C1A  175  13.648  11.566   9.565 -0.2201  0.0567  0.1732
   13PSPI   C2A  176  13.654  11.812   9.076  0.1271 -0.1664 -0.0870
   13PSPI   C3A  177  13.664  11.963   8.633 -0.0049 -0.1169  0.4025
   13PSPI   C4A  178  13.686  12.013   8.211 -0.2030 -0.0866 -0.1428
   13PSPI   C1B  179  12.768  11.422   9.637  0.3252  0.0859 -0.2577
   13PSPI   C2B  180  12.722  11.491   9.254  0.4199 -0.0263 -0.0435
   13PSPI   C3B  181  12.818  11.438   8.864  0.1436  0.1145 -0.0451
   13PSPI   C4B  182  12.705  11.412   8.428 -0.0915 -0.1579 -0.5208
   14PSPI    C1  183  11.985  11.178  10.605 -0.2320  0.2220  0.1298
   14PSPI    C2  184  12.269  11.407  10.769  0.1539 -0.1386 -0.0159
   14PSPI    C3  185  12.079  11.136  10.992  0.1758 -0.1408  0.0004
   14PSPI   PO4  186  12.142  11.106  10.279 -0.1636  0.0624 -0.3570
   14PSPI   GL1  187  12.020  11.069   9.873  0.1671 -0.0288 -0.1031
   14PSPI   GL2  188  12.359  11.098   9.868  0.0495 -0.0744 -0.0472
   14PSPI   C1A  189  11.733  11.063   9.466 -0.1064  0.0131 -0.2412
   14PSPI   C2A  190  11.809  11.186   9.023  0.0880  0.0326  0.2088
   14PSPI   C3A  191  11.892  11.349   8.603  0.0749 -0.3372 -0.0632
   14PSPI   C4A  192  12.151  11.349   8.239 -0.0975  0.0070 -0.0382
   14PSPI   C1B  193  12.299  11.193   9.434  0.2165 -0.0235  0.1002
   14PSPI   C2B  194  12.319  11.225   8.930 -0.2735 -0.0616 -0.0274
   14PSPI   C3B  195  12.364  10.983   8.538  0.0399 -0.1550  0.0292
   14PSPI   C4B  196  12.348  10.631   8.243  0.1407 -0.0147 -0.0149
   15PSPI    C1  197   0.657   9.662  10.706  0.0336 -0.2226 -0.3590
   15PSPI    C2  198   0.978   9.497  10.878  0.0855  0.0023 -0.2357
   15PSPI    C3  199   1.002   9.864  10.723 -0.1196  0.0303 -0.2038
   15PSPI   PO4  200   0.578   9.511  10.511  0.1249 -0.0486 -0.1240
   15PSPI   GL1  201   0.349   9.534  10.108 -0.1470  0.3185 -0.1873
   15PSPI   GL2  202   0.069   9.328  10.171 -0.0714 -0.0886  0.2119
   15PSPI   C1A  203   0.424   9.639   9.709  0.0909 -0.0687  0.1961
   15PSPI   C2A  204   0.466   9.666   9.250  0.3408 -0.0802  0.1159
   15PSPI   C3A  205   0.609   9.860   8.818 -0.1532 -0.1857 -0.4599
   15PSPI   C4A  206   0.776   9.704   8.333 -0.1038  0.2063 -0.0213
   15PSPI   C1B  207   0.001   9.400   9.702 -0.1915 -0.0069 -0.0142
   15PSPI   C2B  208   0.143   9.371   9.384  0.0545 -0.2548  0.0630
   15PSPI   C3B  209   0.159   9.443   8.916 -0.1066  0.0743  0.1418
   15PSPI   C4B  210   0.277   9.583   8.519  0.1093 -0.1148  0.0737
   16PSPI    C1  211   2.557  11.226  10.478  0.2230 -0.0106 -0.1085
   16PSPI    C2  212   2.858  11.480  10.546  0.2355 -0.0082 -0.1714
   16PSPI    C3  213   2.479  11.609  10.563  0.2242 -0.0815  0.2230
   16PSPI   PO4  214   2.722  11.017  10.222  0.2257 -0.3974  0.0599
   16PSPI   GL1  215   2.925  10.907   9.848  0.1802  0.0611  0.0571
   16PSPI   GL2  216   3.045  11.246   9.850 -0.0774  0.0840 -0.0154
   16PSPI   C1A  217   3.265  10.950   9.504  0.2721  0.3876 -0.0813
   16PSPI   C2A  218   3.443  10.941   9.073 -0.0618 -0.1299  0.3175
   16PSPI   C3A  219   3.597  11.142   8.734 -0.0259  0.0242 -0.0249
   16PSPI   C4A  220   3.802  11.428   8.603 -0.0323 -0.0149 -0.1478
   16PSPI   C1B  221   2.909  11.420   9.511  0.2415  0.1979  0.2447
   16PSPI   C2B  222   2.911  11.300   8.963  0.0255  0.3311  0.1268
   16PSPI   C3B  223   3.092  11.133   8.681  0.0619  0.0189  0.4304
   16PSPI   C4B  224   3.298  11.034   8.310 -0.1477  0.0463  0.2549
   17PSPI    C1  225   7.277  14.996  10.361 -0.0163  0.0287 -0.0328
   17PSPI    C2  226   7.031  14.683  10.322  0.0332 -0.0047 -0.0792
   17PSPI    C3  227   7.300  14.690  10.617  0.2826 -0.1774 -0.2987
   17PSPI   PO4  228   7.244  15.105  10.069 -0.1404  0.0565 -0.1477
   17PSPI   GL1  229   7.304  15.024   9.684 -0.0320 -0.1246 -0.1081
   17PSPI   GL2  230   7.422  15.360   9.593 -0.2862 -0.1066 -0.0120
   17PSPI   C1A  231   7.415  14.965   9.282  0.1253 -0.3616 -0.0001
   17PSPI   C2A  232   7.444  14.877   8.811  0.4111  0.3837 -0.2130
   17PSPI   C3A  233   7.389  14.737   8.448 -0.0214  0.0188 -0.2570
   17PSPI   C4A  234   7.223  14.378   8.244  0.0412  0.3673 -0.2603
   17PSPI   C1B  235   7.441  15.416   9.080  0.0620 -0.1650  0.0287
   17PSPI   C2B  236   7.331  15.333   8.651 -0.0465 -0.4739  0.0803
   17PSPI   C3B  237   6.949  15.611   8.489  0.0163 -0.0913 -0.1374
   17PSPI   C4B  238   6.773  15.704   8.132  0.0778 -0.2039  0.0302
   18PSPI    C1  239  12.341  12.166  10.491 -0.1504 -0.2525 -0.1052
   18PSPI    C2  240  12.208  11.914  10.772  0.1326 -0.2441  0.0413
   18PSPI    C3  241  12.595  12.011  10.759  0.0296  0.1770 -0.0195
   18PSPI   PO4  242  12.273  12.083  10.239  0.1888 -0.0296 -0.2823
   18PSPI   GL1  243  12.004  11.742  10.063 -0.2293  0.0016  0.1225
   18PSPI   GL2  244  12.232  11.561   9.774 -0.2743 -0.3616 -0.1271
   18PSPI   C1A  245  11.858  11.948   9.650  0.0099 -0.0250 -0.1178
   18PSPI   C2A  246  11.835  12.263   9.434 -0.0770 -0.2151 -0.0394
   18PSPI   C3A  247  11.551  12.437   9.205 -0.1233  0.2885 -0.0466
   18PSPI   C4A  248  11.598  12.583   8.812  0.0776 -0.0744  0.1060
   18PSPI   C1B  249  12.228  11.722   9.330 -0.0067  0.2831 -0.1543
   18PSPI   C2B  250  12.194  11.674   8.936  0.1109 -0.0346  0.1103
   18PSPI   C3B  251  12.120  11.790   8.481  0.0504  0.1258 -0.3296
   18PSPI   C4B  252  12.356  11.785   8.094 -0.1690 -0.1290  0.1088
   19PSPI    C1  253   4.719   7.851  10.043 -0.3382  0.3011  0.1911
   19PSPI    C2  254   4.805   8.164  10.277 -0.1301  0.4031 -0.0181
   19PSPI    C3  255   5.003   7.819  10.323  0.1035  0.5068 -0.2181
   19PSPI   PO4  256   4.384   7.828  10.001 -0.1488 -0.0190  0.1017
   19PSPI   GL1  257   4.005   7.910   9.750 -0.0076  0.0544  0.2949
   19PSPI   GL2  258   4.178   7.739   9.586 -0.0063  0.1600  0.1376
   19PSPI   C1A  259   3.815   8.240   9.536 -0.0226 -0.1072  0.2338
   19PSPI   C2A  260   3.879   8.391   9.133  0.0668 -0.0235 -0.1805
   19PSPI   C3A  261   3.985   8.828   8.916 -0.2671 -0.0089 -0.0446
   19PSPI   C4A  262   4.001   8.945   8.477  0.3210  0.0245 -0.0769
   19PSPI   C1B  263   4.028   7.875   9.238  0.3263 -0.1683  0.0141
   19PSPI   C2B  264   4.029   7.922   8.818  0.0481 -0.2605  0.0395
   19PSPI   C3B  265   3.967   7.927   8.417  0.1681  0.4482  0.2314
   19PSPI   C4B  266   3.852   8.314   8.157 -0.0301  0.0501  0.3869
   20PSPI    C1  267  18.173   0.469  10.633  0.3320 -0.2285  0.3539
   20PSPI    C2  268  17.890   0.187  10.653  0.1598 -0.0991 -0.1192
   20PSPI    C3  269  17.850   0.526  10.861 -0.0011 -0.1088 -0.1336
   20PSPI   PO4  270  18.253   0.437  10.334  0.1554  0.1920 -0.2653
   20PSPI   GL1  271  18.068   0.460   9.954  0.1850  0.0958  0.0043
   20PSPI   GL2  272  18.030   0.716   9.820 -0.0408 -0.1712 -0.0302
   20PSPI   C1A  273  18.226   0.211   9.620 -0.0912  0.0679  0.0467
   20PSPI   C2A  274  18.223   0.132   9.171 -0.1527 -0.3789 -0.0206
   20PSPI   C3A  275  18.198   0.326   8.823 -0.0007 -0.1747 -0.0197
   20PSPI   C4A  276  18.297   0.514   8.425 -0.0955  0.1852  0.1901
   20PSPI   C1B  277  17.837   0.872   9.417  0.1500  0.1318  0.0065
   20PSPI   C2B  278  17.819   0.949   9.001 -0.2170  0.2774 -0.0192
   20PSPI   C3B  279  17.498   0.771   8.706  0.0019  0.0934 -0.2550
   20PSPI   C4B  280  17.241   0.823   8.374  0.0379 -0.0041  0.1105
   21POPI    C1  281   7.894   7.734  10.317  0.0041  0.0517  0.0303
   21POPI    C2  282   7.639   7.442  10.217 -0.0476  0.0617  0.1318
   21POPI    C3  283   7.970   7.357  10.426  0.0868  0.0332 -0.0886
   21POPI   PO4  284   7.850   7.890  10.045 -0.2932  0.1390  0.1830
   21POPI   GL1  285   7.752   7.653   9.592  0.1876 -0.1048  0.2707
   21POPI   GL2  286   7.633   7.429   9.697  0.1621 -0.0403 -0.0240
   21POPI   C1A  287   7.658   7.472   9.147  0.0657  0.1285 -0.1457
   21POPI   D2A  288   7.876   7.550   8.759  0.0825  0.0051 -0.1542
   21POPI   C3A  289   7.923   7.767   8.377  0.0182  0.1538 -0.0761
   21POPI   C4A  290   7.870   8.158   8.162 -0.0043 -0.2154 -0.0794
   21POPI   C1B  291   7.815   7.095   9.537 -0.0524 -0.2379 -0.1679
   21POPI   C2B  292   7.782   6.817   9.271  0.1853 -0.1342 -0.1620
   21POPI   C3B  293   7.411   6.615   9.025  0.3380 -0.0916  0.1861
   21POPI   C4B  294   7.177   6.159   9.233 -0.0401  0.3362  0.0023
   22POPI    C1  295   5.825  15.301  10.260 -0.1863  0.2833 -0.0849
   22POPI    C2  296   5.604  15.000  10.402 -0.1030  0.2465 -0.0323
   22POPI    C3  297   5.822  15.223  10.652  0.0610  0.1685 -0.1039
   22POPI   PO4  298   5.676  15.403  10.078  0.1012 -0.0703 -0.1433
   22POPI   GL1  299   5.461  15.631   9.732  0.3227 -0.1867  0.1445
   22POPI   GL2  300   5.499  16.021   9.641  0.1771  0.1964  0.0861
   22POPI   C1A  301   5.700  15.443   9.392  0.0627  0.1218 -0.3135
   22POPI   D2A  302   5.641  15.090   9.188  0.0562  0.1940 -0.2766
   22POPI   C3A  303   5.707  15.113   8.797 -0.0138  0.0851 -0.0732
   22POPI   C4A  304   5.534  15.069   8.320  0.2345 -0.2326 -0.0944
   22POPI   C1B  305   5.406  15.770   9.192 -0.0121 -0.0549  0.0034
   22POPI   C2B  306   5.556  15.709   8.700  0.0030 -0.1767  0.2357
   22POPI   C3B  307   5.361  15.650   8.290  0.0687  0.1726  0.0210
   22POPI   C4B  308   5.412  15.865   7.906  0.1473  0.1456 -0.1395
   23POPI    C1  309  17.281  17.799  10.405  0.0599  0.0932  0.0801
   23POPI    C2  310  17.243  18.131  10.625 -0.0065 -0.1266  0.4064
   23POPI    C3  311  16.958  17.850  10.635  0.0242 -0.1726  0.0915
   23POPI   PO4  312  17.283  17.892  10.112  0.0533  0.0024  0.0640
   23POPI   GL1  313  17.062  17.685   9.729 -0.1012  0.0116 -0.1978
   23POPI   GL2  314  16.913  17.416   9.725  0.0670  0.3583 -0.0447
   23POPI   C1A  315  17.188  17.899   9.377 -0.2362 -0.0428  0.0779
   23POPI   D2A  316  17.264  18.180   9.044 -0.1333 -0.0666 -0.1084
   23POPI   C3A  317  17.054  18.171   8.664  0.0684  0.1368 -0.0708
   23POPI   C4A  318  16.812  17.990   8.233  0.1664 -0.1073  0.2441
   23POPI   C1B  319  17.289  17.391   9.465  0.3303 -0.0543 -0.0929
   23POPI   C2B  320  17.499  17.486   9.054  0.0428 -0.0380  0.0707
   23POPI   C3B  321  17.743  17.448   8.645  0.2024  0.0590  0.3267
   23POPI   C4B  322  17.732  17.867   8.375 -0.4173  0.1755 -0.0373
   24POPI    C1  323  11.426  14.195  10.059 -0.0543 -0.2731  0.0250
   24POPI    C2  324  11.759  14.247  10.275 -0.0150 -0.2407 -0.0433
   24POPI    C3  325  11.410  14.390  10.408  0.0789  0.1416 -0.1937
   24POPI   PO4  326  11.563  14.123   9.861  0.1817 -0.0010  0.0205
   24POPI   GL1  327  11.603  13.958   9.412  0.1246 -0.1168  0.0615
   24POPI   GL2  328  11.429  14.041   9.199  0.1496 -0.0835  0.1478
   24POPI   C1A  329  11.846  13.728   9.371 -0.0753 -0.0727 -0.1028
   24POPI   D2A  330  12.067  13.378   9.536 -0.0830  0.0617  0.1111
   24POPI   C3A  331  12.415  13.248   9.269 -0.2106  0.4002  0.1507
   24POPI   C4A  332  12.731  13.509   9.064 -0.3453  0.1922  0.2527
   24POPI   C1B  333  11.277  14.245   8.826 -0.1738  0.2599  0.1197
   24POPI   C2B  334  11.117  14.448   8.478 -0.2278  0.0783 -0.0721
   24POPI   C3B  335  11.075  14.293   8.072 -0.0169 -0.1934 -0.0389
   24POPI   C4B  336  10.741  14.108   7.776  0.2693  0.0742 -0.2115
   25POPI    C1  337  14.726  16.337  10.246  0.0135  0.0382  0.1677
   25POPI    C2  338  14.928  16.680  10.206  0.0934 -0.0497 -0.2208
   25POPI    C3  339  14.631  16.653  10.473  0.0837  0.3215 -0.1889
   25POPI   PO4  340  14.746  16.276   9.992  0.1452 -0.0924  0.3313
   25POPI   GL1  341  14.824  16.426   9.578  0.0856  0.0249  0.4981
   25POPI   GL2  342  14.601  16.245   9.485  0.2166  0.1905 -0.0985
   25POPI   C1A  343  14.965  16.482   9.138  0.1015 -0.1895  0.0756
   25POPI   D2A  344  15.064  16.322   8.736  0.1545  0.1225  0.1841
   25POPI   C3A  345  15.208  16.040   8.398  0.1515 -0.2298  0.0870
   25POPI   C4A  346  15.422  15.955   7.944  0.1912  0.4376  0.2376
   25POPI   C1B  347  14.582  16.138   9.000  0.3101 -0.0654 -0.2179
   25POPI   C2B  348  14.704  16.110   8.508  0.2995 -0.0194  0.1192
   25POPI   C3B  349  14.588  16.013   8.164  0.1926 -0.3117  0.2546
   25POPI   C4B  350  14.794  15.818   7.769 -0.0312 -0.0686  0.1724
   26POPI    C1  351  17.654   5.554  10.900  0.0719 -0.0482  0.1794
   26POPI    C2  352  17.831   5.900  10.996  0.0015  0.0476 -0.0296
   26POPI    C3  353  17.435   5.859  11.040  0.0198 -0.0331  0.0660
   26POPI   PO4  354  17.632   5.513  10.570 -0.2947 -0.0815 -0.0964
   26POPI   GL1  355  17.724   5.611  10.168  0.0022  0.1322  0.0401
   26POPI   GL2  356  17.880   5.845  10.179 -0.0171 -0.0564  0.2535
   26POPI   C1A  357  17.680   5.528   9.759 -0.1848 -0.1395 -0.2063
   26POPI   D2A  358  17.661   5.517   9.339 -0.0760  0.0295  0.0699
   26POPI   C3A  359  17.866   5.473   9.074 -0.0231  0.1754  0.1726
   26POPI   C4A  360  18.248   5.347   8.916 -0.0853 -0.2464 -0.1469
   26POPI   C1B  361  17.880   5.998   9.851 -0.1019  0.1773 -0.0237
   26POPI   C2B  362  17.929   6.240   9.548  0.2846 -0.2155 -0.1112
   26POPI   C3B  363  17.990   6.674   9.466 -0.1454 -0.0075  0.2236
   26POPI   C4B  364  17.795   7.022   9.068 -0.3467  0.1587 -0.2065
   27POPI    C1  365   3.062  15.158  10.546 -0.1535 -0.2169  0.1451
   27POPI    C2  366   3.359  14.956  10.722  0.0746 -0.1743 -0.1819
   27POPI    C3  367   3.113  15.183  10.942  0.3902 -0.0715  0.0733
   27POPI   PO4  368   3.104  15.019  10.233  0.2787 -0.0030 -0.2984
   27POPI   GL1  369   3.031  14.940   9.804  0.0238  0.0524  0.0820
   27POPI   GL2  370   2.804  14.663   9.689  0.1446 -0.0389 -0.0653
   27POPI   C1A  371   2.998  15.121   9.466 -0.3342  0.1598  0.1953
   27POPI   D2A  372   3.206  15.445   9.207 -0.1589 -0.1206 -0.1859
   27POPI   C3A  373   3.160  15.487   8.754 -0.0175  0.0108 -0.2743
   27POPI   C4A  374   3.288  15.437   8.372 -0.2478 -0.4566 -0.0301
   27POPI   C1B  375   2.740  14.708   9.215  0.0140  0.3368 -0.1394
   27POPI   C2B  376   2.666  14.729   8.726 -0.1596  0.1868 -0.1255
   27POPI   C3B  377   2.731  14.742   8.361 -0.2181  0.3189  0.3681
   27POPI   C4B  378   2.573  14.891   7.990 -0.3905  0.3001 -0.1672
   28POPI    C1  379   1.307   5.069  10.353  0.0287 -0.2296 -0.2104
   28POPI    C2  380   1.463   4.796  10.600 -0.2260 -0.1904 -0.0015
   28POPI    C3  381   1.358   5.156  10.740  0.1676  0.0437 -0.2878
   28POPI   PO4  382   1.290   4.944  10.105 -0.4338 -0.0818  0.1641
   28POPI   GL1  383   1.638   5.013   9.775 -0.1096  0.2444  0.1649
   28POPI   GL2  384   2.064   5.039   9.835 -0.0929  0.2057 -0.3884
   28POPI   C1A  385   1.622   5.099   9.373  0.1205  0.0464  0.4909
   28POPI   D2A  386   1.501   5.213   8.974  0.2155  0.1610  0.2082
   28POPI   C3A  387   1.101   5.257   8.771  0.4219 -0.2578 -0.2423
   28POPI   C4A  388   0.998   5.660   8.584  0.0470 -0.0903  0.0822
   28POPI   C1B  389   2.294   4.884   9.472  0.4162 -0.1396 -0.1082
   28POPI   C2B  390   2.457   5.022   9.082 -0.2378  0.0392  0.1564
   28POPI   C3B  391   2.416   5.241   8.775 -0.2215  0.0813  0.2055
   28POPI   C4B  392   2.656   5.517   8.514 -0.2333 -0.0958 -0.1749
   29POPI    C1  393   7.790   2.219  10.026 -0.1602 -0.0394  0.1676
   29POPI    C2  394   7.894   2.604  10.055  0.1867 -0.1244  0.0991
   29POPI    C3  395   7.615   2.453  10.300 -0.2367  0.2598 -0.1302
   29POPI   PO4  396   7.903   2.163   9.765 -0.0105 -0.2456 -0.0299
   29POPI   GL1  397   7.692   2.150   9.379 -0.0044 -0.1374  0.0816
   29POPI   GL2  398   7.639   2.249   9.112 -0.2571 -0.0146 -0.2075
   29POPI   C1A  399   7.257   2.161   9.394  0.0788  0.2456 -0.0950
   29POPI   D2A  400   6.873   1.955   9.453 -0.1272  0.0459 -0.2068
   29POPI   C3A  401   6.712   1.918   9.011  0.0400 -0.1375  0.0175
   29POPI   C4A  402   6.847   2.113   8.649 -0.2085 -0.1049  0.1617
   29POPI   C1B  403   7.787   1.872   8.976 -0.1577  0.1315 -0.0411
   29POPI   C2B  404   7.832   1.692   8.565 -0.3623 -0.1371 -0.2618
   29POPI   C3B  405   7.865   1.766   8.187  0.0859 -0.0978 -0.3998
   29POPI   C4B  406   7.620   1.854   7.792 -0.0777 -0.0349  0.0870
   30POPI    C1  407   3.939  12.744   9.726 -0.0068  0.1846  0.0280
   30POPI    C2  408   3.921  12.592  10.096  0.2844  0.2696  0.0792
   30POPI    C3  409   3.694  12.437   9.806  0.2302  0.0459  0.2381
   30POPI   PO4  410   4.046  12.983   9.758  0.0449 -0.2712 -0.1226
   30POPI   GL1  411   4.444  13.043   9.528  0.0875 -0.0193  0.2461
   30POPI   GL2  412   4.221  12.914   9.297 -0.0069  0.2026 -0.0154
   30POPI   C1A  413   4.632  12.950   9.054 -0.0854 -0.0022  0.2056
   30POPI   D2A  414   4.927  13.018   8.698  0.1569  0.0798  0.0282
   30POPI   C3A  415   4.817  13.238   8.272  0.1809  0.1035  0.0187
   30POPI   C4A  416   4.769  13.410   7.821 -0.1879 -0.1659  0.1426
   30POPI   C1B  417   4.004  12.622   9.170  0.1678 -0.2979 -0.2939
   30POPI   C2B  418   3.741  12.521   8.874 -0.0760  0.2453 -0.2741
   30POPI   C3B  419   3.831  12.451   8.370 -0.1194  0.1660  0.0003
   30POPI   C4B  420   3.835  12.484   7.900  0.1606  0.1142  0.1680
   31POPI    C1  421   4.693   5.620   9.949 -0.0621  0.1250  0.0960
   31POPI    C2  422   4.614   5.500  10.322  0.1930 -0.0957  0.0817
   31POPI    C3  423   4.975   5.648  10.231  0.0983  0.0545 -0.0552
   31POPI   PO4  424   4.618   5.463   9.761 -0.0245  0.0209 -0.1009
   31POPI   GL1  425   4.647   5.492   9.350 -0.0088 -0.0251 -0.0030
   31POPI   GL2  426   4.926   5.344   9.379  0.1021 -0.2513  0.1948
   31POPI   C1A  427   4.586   5.598   8.862  0.1446  0.0270  0.0114
   31POPI   D2A  428   4.778   5.448   8.497  0.1172 -0.0250  0.1351
   31POPI   C3A  429   4.431   5.169   8.367 -0.3139  0.1302 -0.3703
   31POPI   C4A  430   4.392   4.796   8.149  0.1607 -0.2013  0.0066
   31POPI   C1B  431   5.060   5.328   8.891  0.1828  0.1223 -0.1289
   31POPI   C2B  432   5.275   5.588   8.548  0.0319 -0.0337 -0.0046
   31POPI   C3B  433   5.385   6.007   8.428 -0.1205  0.4006 -0.0699
   31POPI   C4B  434   5.446   6.331   8.155  0.1216  0.4489 -0.3207
   32POPI    C1  435   6.110   4.960   9.767 -0.0384 -0.0426  0.1829
   32POPI    C2  436   5.856   5.023  10.070 -0.2115  0.0172  0.0276
   32POPI    C3  437   5.825   5.239   9.734  0.1052  0.0898  0.0413
   32POPI   PO4  438   6.389   5.086   9.897  0.0050 -0.1873  0.0812
   32POPI   GL1  439   6.700   5.070   9.708  0.0234 -0.0499 -0.2440
   32POPI   GL2  440   6.900   5.228   9.632 -0.1376 -0.3120  0.0459
   32POPI   C1A  441   6.933   4.769   9.499 -0.1859  0.2533  0.2168
   32POPI   D2A  442   6.937   4.545   9.099 -0.2111  0.0687 -0.0219
   32POPI   C3A  443   7.164   4.714   8.799  0.4551 -0.1946  0.2521
   32POPI   C4A  444   7.399   4.988   8.755  0.0892 -0.0345 -0.0279
   32POPI   C1B  445   6.932   5.291   9.174 -0.1640 -0.0027 -0.0036
   32POPI   C2B  446   6.963   5.203   8.776 -0.2867  0.0642 -0.1962
   32POPI   C3B  447   7.023   5.060   8.367 -0.0993 -0.0897 -0.4444
   32POPI   C4B  448   7.162   4.698   8.262  0.0426  0.4397  0.0455
   33POPI    C1  449   2.227   5.526  10.647 -0.0013 -0.0007 -0.1273
   33POPI    C2  450   1.980   5.758  10.435  0.0438  0.0536 -0.1207
   33POPI    C3  451   2.117   5.883  10.789  0.3258  0.1583 -0.2636
   33POPI   PO4  452   2.311   5.348  10.399 -0.1654 -0.0522 -0.0762
   33POPI   GL1  453   2.518   5.318  10.017 -0.1665 -0.0919  0.0857
   33POPI   GL2  454   2.612   4.973   9.911  0.0841 -0.1929 -0.0408
   33POPI   C1A  455   2.333   5.446   9.614 -0.1380 -0.0197 -0.0128
   33POPI   D2A  456   2.015   5.326   9.278 -0.1778  0.0015  0.1529
   33POPI   C3A  457   1.927   5.530   8.985 -0.2664 -0.4070  0.0056
   33POPI   C4A  458   2.051   5.518   8.574 -0.0248  0.1900  0.0096
   33POPI   C1B  459   2.792   4.914   9.491 -0.0950  0.1242 -0.0502
   33POPI   C2B  460   2.946   4.985   9.059  0.1428 -0.0075 -0.2841
   33POPI   C3B  461   2.788   4.965   8.620 -0.0479  0.1550  0.1398
   33POPI   C4B  462   2.798   5.002   8.245 -0.3479 -0.2100  0.2269
   34POPI    C1  463  18.339  12.943  10.419 -0.0517 -0.1252  0.0001
   34POPI    C2  464  18.717  13.053  10.486 -0.1140  0.0609  0.0525
   34POPI    C3  465  18.456  13.039  10.789 -0.1969  0.1219 -0.0157
   34POPI   PO4  466  18.335  13.029  10.140 -0.3184 -0.1743  0.0685
   34POPI   GL1  467  18.154  12.857   9.753 -0.4751  0.5066  0.0919
   34POPI   GL2  468  18.302  13.130   9.610  0.2358  0.0853  0.1316
   34POPI   C1A  469  18.180  12.815   9.266  0.0496 -0.0859 -0.0154
   34POPI   D2A  470  17.930  12.921   8.820  0.1126  0.1226  0.2766
   34POPI   C3A  471  17.468  12.925   8.772 -0.3298  0.2562 -0.0891
   34POPI   C4A  472  17.246  12.595   8.700  0.0604 -0.1983  0.1322
   34POPI   C1B  473  18.311  13.332   9.165  0.1461  0.2740 -0.1023
   34POPI   C2B  474  18.361  13.153   8.842  0.1853 -0.0307  0.1873
   34POPI   C3B  475  18.294  13.067   8.450 -0.0867 -0.2367 -0.0623
   34POPI   C4B  476  18.070  13.166   7.987 -0.1139  0.1228 -0.1153
   35POPI    C1  477  15.390  18.083  10.298  0.1902 -0.0971  0.0138
   35POPI    C2  478  15.557  17.748  10.438 -0.0144 -0.1306  0.1833
   35POPI    C3  479  15.709  18.104  10.538  0.1714 -0.1698  0.0457
   35POPI   PO4  480  15.263  17.960  10.061 -0.2611  0.1189  0.3304
   35POPI   GL1  481  15.144  17.920   9.632  0.0989 -0.0344  0.0550
   35POPI   GL2  482  15.522  17.845   9.578  0.0187 -0.1652  0.1454
   35POPI   C1A  483  15.159  17.892   9.240  0.4489 -0.0177 -0.3928
   35POPI   D2A  484  15.251  18.149   8.928  0.0507 -0.0143 -0.1794
   35POPI   C3A  485  15.424  17.934   8.595 -0.1858  0.4249  0.2476
   35POPI   C4A  486  15.436  17.894   8.119 -0.0142  0.3255  0.0515
   35POPI   C1B  487  15.674  17.868   9.175 -0.2083 -0.1748  0.3683
   35POPI   C2B  488  15.839  17.729   8.773  0.0813  0.1737  0.1482
   35POPI   C3B  489  15.788  17.590   8.364  0.2119  0.1204  0.0218
   35POPI   C4B  490  15.936  17.370   8.085  0.0537  0.2503  0.1538
   36POPI    C1  491  11.337  10.938  10.131  0.4384 -0.1177  0.0456
   36POPI    C2  492  11.118  10.746  10.405  0.1250  0.0130 -0.1077
   36POPI    C3  493  11.322  10.538  10.130  0.0163 -0.1063 -0.0992
   36POPI   PO4  494  11.135  11.111   9.926 -0.1712 -0.0736 -0.0085
   36POPI   GL1  495  11.188  11.173   9.555 -0.1346  0.2282 -0.1782
   36POPI   GL2  496  11.051  11.463   9.491 -0.1116 -0.0875  0.0184
   36POPI   C1A  497  11.323  11.071   9.156 -0.1166  0.0702  0.0188
   36POPI   D2A  498  11.442  10.863   8.801 -0.3703 -0.0464  0.0757
   36POPI   C3A  499  11.518  11.044   8.443 -0.1303 -0.1832  0.2440
   36POPI   C4A  500  11.674  11.251   8.079 -0.0679 -0.0117 -0.0808
   36POPI   C1B  501  11.377  11.526   9.174  0.1379 -0.0354  0.0040
   36POPI   C2B  502  11.409  11.443   8.729  0.4298  0.3615 -0.0724
   36POPI   C3B  503  11.184  11.505   8.268  0.0431  0.0828 -0.1861
   36POPI   C4B  504  10.798  11.507   8.047 -0.0386 -0.3171  0.1007
   37POPI    C1  505   7.078  15.992  10.240  0.0762 -0.1263  0.0662
   37POPI    C2  506   7.269  15.999  10.592 -0.0160 -0.2575  0.1195
   37POPI    C3  507   6.869  15.998  10.581 -0.0160  0.0234  0.0082
   37POPI   PO4  508   7.290  16.151  10.094  0.1802  0.1191  0.3281
   37POPI   GL1  509   7.154  16.469   9.827 -0.0521 -0.0009 -0.2368
   37POPI   GL2  510   6.918  16.165   9.754  0.0441  0.0749 -0.1316
   37POPI   C1A  511   6.978  16.852   9.469  0.0407  0.0633  0.0723
   37POPI   D2A  512   6.833  17.109   9.089  0.1707  0.1037 -0.2942
   37POPI   C3A  513   7.053  17.105   8.750  0.2147 -0.2234 -0.0405
   37POPI   C4A  514   7.300  17.254   8.455 -0.0990  0.2908 -0.2010
   37POPI   C1B  515   6.778  16.384   9.385 -0.0035  0.2106  0.1743
   37POPI   C2B  516   6.914  16.587   8.944  0.0674  0.0869  0.0531
   37POPI   C3B  517   6.998  16.590   8.482 -0.1051 -0.0765 -0.2730
   37POPI   C4B  518   7.069  16.842   8.226 -0.2900 -0.1069  0.2556
   38POPI    C1  519   8.433  14.218  10.136 -0.1745 -0.0240  0.1488
   38POPI    C2  520   8.807  14.155  10.265 -0.0753  0.0467 -0.0993
   38POPI    C3  521   8.676  14.528  10.206 -0.1601  0.0193 -0.0851
   38POPI   PO4  522   8.430  14.055   9.916 -0.3828  0.3534 -0.0751
   38POPI   GL1  523   8.532  13.898   9.487  0.0824  0.1173  0.0298
   38POPI   GL2  524   8.223  14.114   9.490  0.0143 -0.1841  0.0020
   38POPI   C1A  525   8.832  13.916   9.119 -0.2157 -0.4297 -0.1447
   38POPI   D2A  526   8.980  13.684   8.744  0.2060  0.0156 -0.0148
   38POPI   C3A  527   8.850  13.562   8.404  0.0619  0.0645  0.2081
   38POPI   C4A  528   8.754  13.679   8.025 -0.0363  0.1026  0.0465
   38POPI   C1B  529   8.200  13.954   9.137 -0.0147  0.0179 -0.1808
   38POPI   C2B  530   7.989  14.007   8.714  0.0216 -0.1885  0.0985
   38POPI   C3B  531   7.969  13.968   8.285 -0.1885 -0.0420  0.1839
   38POPI   C4B  532   8.055  14.222   7.869  0.3338 -0.1036 -0.0487
   39POPI    C1  533   9.100  16.794  10.030 -0.2031 -0.2650 -0.0417
   39POPI    C2  534   9.130  16.916  10.410 -0.1144 -0.1719 -0.0779
   39POPI    C3  535   8.989  16.551  10.327 -0.0349 -0.2321  0.0495
   39POPI   PO4  536   9.429  16.777   9.857  0.1017  0.2013 -0.0328
   39POPI   GL1  537   9.435  16.614   9.368 -0.0019 -0.2602 -0.0179
   39POPI   GL2  538   9.661  16.373   9.538 -0.2521  0.1995 -0.0010
   39POPI   C1A  539   9.450  16.709   8.909  0.2462 -0.0240 -0.0595
   39POPI   D2A  540   9.438  16.653   8.513 -0.0654  0.0880  0.1002
   39POPI   C3A  541   9.439  16.821   8.111 -0.2699 -0.0967 -0.2572
   39POPI   C4A  542   9.202  17.037   7.811 -0.1470  0.1142  0.1574
   39POPI   C1B  543   9.768  16.297   9.177 -0.1867 -0.0563 -0.1763
   39POPI   C2B  544   9.833  16.342   8.838  0.1689 -0.1077  0.0493
   39POPI   C3B  545   9.828  16.320   8.387 -0.1363  0.0417 -0.1532
   39POPI   C4B  546   9.949  16.019   8.034  0.1782 -0.0981 -0.0860
   40POPI    C1  547   8.132   9.047  10.351 -0.0663 -0.0878  0.0491
   40POPI    C2  548   7.736   9.045  10.412 -0.1150  0.2353 -0.2311
   40POPI    C3  549   7.981   9.192  10.692 -0.1744 -0.1399  0.0239
   40POPI   PO4  550   8.125   9.019  10.144 -0.3512  0.2144  0.0966
   40POPI   GL1  551   8.071   8.856   9.737 -0.1586 -0.1962 -0.2410
   40POPI   GL2  552   8.018   9.214   9.487  0.1748 -0.1635  0.1347
   40POPI   C1A  553   8.059   8.461   9.479  0.1776 -0.2643  0.2182
   40POPI   D2A  554   7.907   8.261   9.225  0.3161 -0.2368 -0.1168
   40POPI   C3A  555   8.157   8.000   8.988  0.2492 -0.1746  0.0487
   40POPI   C4A  556   8.272   7.803   8.662 -0.0638  0.0286 -0.1839
   40POPI   C1B  557   8.181   8.858   9.196  0.1092  0.1258  0.2966
   40POPI   C2B  558   8.356   8.510   9.067 -0.1011  0.0213 -0.0771
   40POPI   C3B  559   8.398   8.286   8.672 -0.0903  0.0959  0.1781
   40POPI   C4B  560   8.398   8.033   8.195  0.1593  0.0390  0.1376
   41POPI    C1  561  17.371  14.345   9.926 -0.0220 -0.1107 -0.1231
   41POPI    C2  562  16.975  14.289   9.922 -0.0576  0.1368 -0.1828
   41POPI    C3  563  17.144  14.496  10.219  0.0600 -0.1872 -0.0195
   41POPI   PO4  564  17.500  14.030   9.789  0.1401  0.0515  0.3892
   41POPI   GL1  565  17.727  13.863   9.381  0.2526 -0.1108  0.3633
   41POPI   GL2  566  17.735  14.158   9.294 -0.1565  0.1127 -0.1604
   41POPI   C1A  567  17.857  13.619   9.012  0.1294 -0.0212  0.1028
   41POPI   D2A  568  17.994  13.421   8.640  0.1725  0.2582 -0.1026
   41POPI   C3A  569  17.755  13.137   8.363 -0.1461 -0.0003 -0.2139
   41POPI   C4A  570  17.599  12.930   7.961 -0.0979 -0.5798 -0.0657
   41POPI   C1B  571  17.833  14.153   8.872 -0.0347  0.0940 -0.1183
   41POPI   C2B  572  17.899  13.898   8.453 -0.1913 -0.1571 -0.1784
   41POPI   C3B  573  18.043  13.868   7.963  0.0593 -0.1945  0.1239
   41POPI   C4B  574  18.227  14.044   7.578 -0.1097  0.1651  0.0388
   42POPI    C1  575   5.952   8.096  10.233 -0.1780 -0.0512  0.1829
   42POPI    C2  576   5.777   8.425  10.379 -0.1587 -0.0302  0.1588
   42POPI    C3  577   6.044   8.225  10.601  0.1188  0.1886  0.0292
   42POPI   PO4  578   5.692   8.036  10.087 -0.2249 -0.0206  0.0131
   42POPI   GL1  579   5.669   8.038   9.624 -0.1024 -0.2123  0.4457
   42POPI   GL2  580   5.417   7.997   9.426 -0.0518 -0.0888  0.0473
   42POPI   C1A  581   5.874   8.176   9.213  0.0391 -0.1230  0.2966
   42POPI   D2A  582   5.963   8.267   8.763 -0.1879 -0.1588 -0.2228
   42POPI   C3A  583   6.253   8.321   8.315  0.0895  0.1031 -0.3735
   42POPI   C4A  584   6.668   8.095   8.095  0.4372 -0.1084 -0.0723
   42POPI   C1B  585   5.216   7.817   9.048 -0.4468  0.3479  0.0284
   42POPI   C2B  586   5.119   7.824   8.706 -0.1122 -0.1126  0.1037
   42POPI   C3B  587   4.906   7.962   8.353  0.1150  0.0081  0.2165
   42POPI   C4B  588   4.693   8.039   7.959 -0.3610 -0.1521 -0.3745
   43POPI    C1  589  10.441   6.497  10.430 -0.1008 -0.1687 -0.1868
   43POPI    C2  590  10.063   6.626  10.413 -0.0047  0.1101 -0.2470
   43POPI    C3  591  10.325   6.806  10.655  0.0655 -0.1478 -0.1283
   43POPI   PO4  592  10.403   6.285  10.227 -0.0347  0.1968 -0.0887
   43POPI   GL1  593  10.503   6.397   9.865  0.2907  0.1659 -0.0557
   43POPI   GL2  594  10.692   6.153   9.810  0.0940  0.1548 -0.0899
   43POPI   C1A  595  10.668   6.735   9.706  0.1987 -0.0989 -0.0409
   43POPI   D2A  596  10.292   7.092   9.528 -0.0441 -0.0042  0.0901
   43POPI   C3A  597   9.877   7.057   9.486 -0.0153  0.0493 -0.0487
   43POPI   C4A  598   9.609   7.062   9.020 -0.0782  0.2179  0.1198
   43POPI   C1B  599  10.724   6.320   9.336  0.2333  0.1402  0.0267
   43POPI   C2B  600  10.877   6.427   8.964  0.0585  0.3182  0.4297
   43POPI   C3B  601  11.033   6.582   8.563  0.0312  0.2331 -0.4213
   43POPI   C4B  602  11.197   6.363   8.269  0.1481  0.0290  0.0495
   44POPI    C1  603   7.614  13.623  10.052 -0.1698  0.0863 -0.1115
   44POPI    C2  604   7.412  13.887  10.275 -0.1487 -0.0411  0.0603
   44POPI    C3  605   7.319  13.498  10.292 -0.1327 -0.0544 -0.1380
   44POPI   PO4  606   7.646  13.702   9.769  0.1178  0.4320 -0.2691
   44POPI   GL1  607   7.831  13.765   9.419  0.2455  0.1724  0.2792
   44POPI   GL2  608   7.509  13.908   9.387 -0.0618  0.0027 -0.1793
   44POPI   C1A  609   7.923  13.582   9.072  0.1691 -0.0189  0.1072
   44POPI   D2A  610   7.806  13.566   8.591 -0.0781  0.1836 -0.0574
   44POPI   C3A  611   7.835  13.523   8.171 -0.0117  0.2051  0.2082
   44POPI   C4A  612   7.805  13.764   7.780  0.0304 -0.1391  0.2304
   44POPI   C1B  613   7.548  13.895   8.954 -0.2560  0.5066 -0.1336
   44POPI   C2B  614   7.512  13.996   8.508 -0.3142  0.0067 -0.2167
   44POPI   C3B  615   7.389  13.797   8.172 -0.1943 -0.3133  0.2255
   44POPI   C4B  616   7.356  13.536   7.747  0.1250  0.0147 -0.2803
   45POPI    C1  617   3.074   1.438  10.624  0.0015 -0.0216  0.0309
   45POPI    C2  618   2.729   1.465  10.824  0.0590 -0.2331  0.1617
   45POPI    C3  619   3.043   1.686  10.936 -0.0842  0.0958 -0.0701
   45POPI   PO4  620   3.050   1.486  10.397  0.1799  0.0384 -0.3261
   45POPI   GL1  621   3.024   1.152  10.076  0.2140  0.1049  0.0825
   45POPI   GL2  622   2.644   1.141   9.950  0.0449  0.0858  0.0603
   45POPI   C1A  623   3.161   0.932   9.633 -0.2875 -0.3991  0.0518
   45POPI   D2A  624   3.135   0.796   9.138  0.3799  0.0233  0.0581
   45POPI   C3A  625   3.170   1.052   8.836 -0.1724  0.1153 -0.2948
   45POPI   C4A  626   3.496   1.368   8.568  0.1511 -0.0036 -0.0129
   45POPI   C1B  627   2.740   1.154   9.493  0.1187 -0.1611  0.1830
   45POPI   C2B  628   2.678   1.122   9.053 -0.2893 -0.1696 -0.0317
   45POPI   C3B  629   2.333   1.018   8.795  0.2230 -0.1567 -0.1730
   45POPI   C4B  630   2.132   1.052   8.402 -0.1266 -0.0941  0.1237
   46POPI    C1  631  11.681   3.507  10.251 -0.1583 -0.0403  0.1491
   46POPI    C2  632  11.424   3.362   9.981 -0.0653 -0.0216  0.0500
   46POPI    C3  633  11.287   3.521  10.322 -0.1787 -0.1307  0.0562
   46POPI   PO4  634  11.768   3.703  10.061 -0.1865 -0.3171  0.1899
   46POPI   GL1  635  11.659   3.752   9.642  0.0553  0.1062 -0.4678
   46POPI   GL2  636  12.082   3.628   9.549  0.2479  0.0305  0.2486
   46POPI   C1A  637  11.430   3.747   9.208  0.2215 -0.2712  0.1420
   46POPI   D2A  638  11.284   3.743   8.810  0.0191 -0.2381 -0.1829
   46POPI   C3A  639  11.353   3.442   8.593  0.1787 -0.1915 -0.2550
   46POPI   C4A  640  11.554   3.152   8.558 -0.0672  0.1719 -0.0868
   46POPI   C1B  641  11.922   3.607   9.071  0.0235  0.1902  0.2475
   46POPI   C2B  642  11.836   3.573   8.597 -0.0333 -0.5408  0.0826
   46POPI   C3B  643  11.607   3.575   8.159  0.1546  0.1338 -0.1278
   46POPI   C4B  644  11.274   3.347   8.119  0.0435 -0.1896  0.1834
   47POPI    C1  645   0.349  12.456  10.529 -0.0299 -0.1208  0.1983
   47POPI    C2  646   0.615  12.752  10.568  0.0715 -0.1244 -0.3789
   47POPI    C3  647   0.563  12.490  10.865  0.2824  0.2220 -0.0267
   47POPI   PO4  648   0.167  12.546  10.364 -0.3430 -0.3560  0.1784
   47POPI   GL1  649   0.012  12.571  10.005  0.0736 -0.0591  0.1767
   47POPI   GL2  650  -0.047  12.272   9.787  0.0265 -0.1136  0.0717
   47POPI   C1A  651   0.183  12.672   9.535  0.0579 -0.0926  0.1973
   47POPI   D2A  652   0.240  12.533   9.165 -0.2114 -0.0059  0.0572
   47POPI   C3A  653   0.598  12.433   8.897  0.3222 -0.0211  0.1124
   47POPI   C4A  654   0.720  12.270   8.470  0.1733 -0.0565 -0.1241
   47POPI   C1B  655  -0.184  12.275   9.363 -0.2900 -0.0025  0.2463
   47POPI   C2B  656  -0.230  12.395   8.930 -0.1473 -0.1296 -0.1071
   47POPI   C3B  657  -0.016  12.607   8.716 -0.2695  0.2233 -0.2238
   47POPI   C4B  658   0.323  12.546   8.449 -0.3727 -0.2636  0.0841
   48POPI    C1  659  14.135  13.556  10.134  0.2980  0.1412  0.0363
   48POPI    C2  660  14.173  13.199   9.959  0.1200  0.1565 -0.0353
   48POPI    C3  661  14.029  13.225  10.331  0.2007  0.1487 -0.0033
   48POPI   PO4  662  14.139  13.706   9.957 -0.0067  0.0928  0.2493
   48POPI   GL1  663  14.246  13.793   9.625 -0.3235  0.0049  0.0718
   48POPI   GL2  664  14.049  13.992   9.553 -0.2544 -0.0794  0.0974
   48POPI   C1A  665  14.423  13.828   9.212  0.0380 -0.2110 -0.0666
   48POPI   D2A  666  14.547  13.818   8.809 -0.0486 -0.1254 -0.3060
   48POPI   C3A  667  14.400  13.849   8.490 -0.0103 -0.1070  0.0446
   48POPI   C4A  668  14.144  13.639   8.311 -0.1131  0.2555  0.0424
   48POPI   C1B  669  13.908  13.958   9.167 -0.3500  0.0290  0.0862
   48POPI   C2B  670  13.525  13.826   9.006  0.1298 -0.0198 -0.2440
   48POPI   C3B  671  13.109  13.815   8.837  0.0792 -0.1897 -0.0790
   48POPI   C4B  672  12.856  13.643   8.521 -0.0754 -0.1992  0.0420
   49POPI    C1  673  13.508   2.290  10.140 -0.1699 -0.0490  0.0683
   49POPI    C2  674  13.206   2.028  10.125  0.1992 -0.4803 -0.0472
   49POPI    C3  675  13.575   1.903  10.215  0.3072  0.0788  0.3380
   49POPI   PO4  676  13.574   2.445   9.787 -0.2859 -0.3050 -0.0962
   49POPI   GL1  677  13.750   2.606   9.404 -0.1114 -0.2669  0.0813
   49POPI   GL2  678  13.810   2.394   9.336 -0.0823  0.1193  0.0695
   49POPI   C1A  679  14.115   2.807   9.131  0.2307 -0.0194 -0.0547
   49POPI   D2A  680  14.147   3.143   8.844 -0.0711  0.1329  0.1037
   49POPI   C3A  681  14.410   3.382   9.007  0.0826 -0.0211  0.0190
   49POPI   C4A  682  14.814   3.561   9.167  0.1077  0.2282 -0.1607
   49POPI   C1B  683  14.123   2.280   9.082  0.3127  0.1263 -0.3698
   49POPI   C2B  684  14.480   2.435   8.924  0.0321 -0.5601  0.0698
   49POPI   C3B  685  14.538   2.385   8.501 -0.3114  0.1171 -0.1003
   49POPI   C4B  686  14.561   1.998   8.247 -0.0148 -0.1182  0.2500
   50POPI    C1  687   9.201   4.961  10.230  0.2605 -0.0690  0.1781
   50POPI    C2  688   9.289   5.333  10.349  0.2360  0.0070 -0.0378
   50POPI    C3  689   9.327   5.027  10.604 -0.1498  0.2097  0.2728
   50POPI   PO4  690   9.249   5.025   9.980 -0.1643  0.0843  0.2979
   50POPI   GL1  691   9.542   4.940   9.619 -0.1711  0.2715  0.1282
   50POPI   GL2  692   9.934   4.911   9.587 -0.1016  0.2156  0.1093
   50POPI   C1A  693   9.592   5.299   9.391 -0.1554 -0.1776 -0.0709
   50POPI   D2A  694   9.425   5.747   9.346 -0.0314  0.0559  0.0816
   50POPI   C3A  695   9.363   5.881   8.990 -0.1656  0.2522 -0.0835
   50POPI   C4A  696   9.212   5.771   8.595 -0.0983 -0.1878 -0.4125
   50POPI   C1B  697  10.060   4.999   9.215  0.0389  0.2147 -0.1093
   50POPI   C2B  698   9.963   5.226   8.880  0.1745 -0.0846 -0.1541
   50POPI   C3B  699  10.080   5.603   8.465  0.1521  0.2934 -0.1647
   50POPI   C4B  700  10.077   5.674   8.033 -0.2231 -0.0928 -0.1710
   51POPI    C1  701   9.378  12.206  10.347 -0.0511  0.2180  0.1073
   51POPI    C2  702   9.101  12.454  10.199 -0.2050 -0.1489 -0.2382
   51POPI    C3  703   9.038  12.269  10.547 -0.1085  0.2527 -0.0005
   51POPI   PO4  704   9.586  12.185  10.036  0.0294  0.0292  0.1647
   51POPI   GL1  705   9.700  12.245   9.622 -0.2477  0.4148 -0.3770
   51POPI   GL2  706   9.989  12.354   9.461 -0.2718 -0.0381 -0.0235
   51POPI   C1A  707   9.335  12.031   9.385  0.0680 -0.2303 -0.0374
   51POPI   D2A  708   9.249  11.693   9.212 -0.0218  0.0527  0.0257
   51POPI   C3A  709   9.249  11.644   8.817 -0.0090  0.0473 -0.2248
   51POPI   C4A  710   9.555  11.535   8.504  0.0060  0.1808  0.0683
   51POPI   C1B  711  10.207  12.525   9.061  0.0793 -0.0970 -0.0088
   51POPI   C2B  712  10.004  12.635   8.614 -0.2222 -0.0497  0.2704
   51POPI   C3B  713  10.275  12.597   8.224 -0.0388 -0.3747  0.2645
   51POPI   C4B  714  10.627  12.277   7.987 -0.0003 -0.0904  0.2306
   52POPI    C1  715   9.766   1.008   9.857 -0.3229 -0.0218 -0.0829
   52POPI    C2  716   9.536   1.335   9.855 -0.1777  0.0838  0.1124
   52POPI    C3  717   9.765   1.254  10.173  0.1284  0.0319 -0.1169
   52POPI   PO4  718   9.580   0.828   9.835  0.1053 -0.0137  0.2070
   52POPI   GL1  719   9.298   0.771   9.565 -0.0628  0.3027 -0.0326
   52POPI   GL2  720   9.386   1.140   9.412  0.1283 -0.1754  0.2546
   52POPI   C1A  721   9.415   0.575   9.228 -0.1265 -0.2155 -0.1021
   52POPI   D2A  722   9.558   0.523   8.870  0.1123  0.1224 -0.1069
   52POPI   C3A  723   9.244   0.733   8.550 -0.1298  0.4319 -0.0837
   52POPI   C4A  724   8.912   0.735   8.193  0.2407 -0.1291 -0.0203
   52POPI   C1B  725   9.312   1.121   8.937 -0.0672 -0.0290 -0.0899
   52POPI   C2B  726   9.266   1.247   8.501  0.0221 -0.1991 -0.2237
   52POPI   C3B  727   9.500   1.131   8.117  0.0521 -0.0586 -0.3435
   52POPI   C4B  728   9.808   1.323   7.792 -0.2011 -0.2552  0.1556
   53POPI    C1  729   1.616  11.307  10.469  0.0979  0.2326 -0.0695
   53POPI    C2  730   1.290  11.138  10.628  0.1719  0.0129 -0.1484
   53POPI    C3  731   1.401  11.504  10.743 -0.0159  0.0276 -0.0090
   53POPI   PO4  732   1.775  11.031  10.444  0.1422 -0.0093 -0.1020
   53POPI   GL1  733   1.753  10.890   9.980 -0.1023 -0.0350 -0.0722
   53POPI   GL2  734   1.852  11.113   9.910 -0.0474  0.0141 -0.1597
   53POPI   C1A  735   1.787  10.688   9.605  0.1969 -0.0191 -0.0979
   53POPI   D2A  736   1.755  10.480   9.260 -0.0093 -0.0210 -0.0075
   53POPI   C3A  737   1.505  10.483   8.912  0.1389  0.1636  0.0133
   53POPI   C4A  738   1.448  10.137   8.587  0.2721  0.0281  0.0214
   53POPI   C1B  739   1.964  11.108   9.506  0.0477 -0.4938 -0.3129
   53POPI   C2B  740   1.875  10.969   9.075  0.0316  0.0717  0.2331
   53POPI   C3B  741   1.604  10.937   8.794 -0.1548  0.1542 -0.1669
   53POPI   C4B  742   1.399  11.145   8.612 -0.0176 -0.0178 -0.0776
   54POPI    C1  743  11.110  17.575  10.039  0.0363 -0.0507 -0.0591
   54POPI    C2  744  11.298  17.924  10.091  0.0353 -0.0562 -0.0194
   54POPI    C3  745  10.975  17.835  10.310 -0.1660  0.0615 -0.2639
   54POPI   PO4  746  11.028  17.555   9.750  0.0240  0.0585  0.2368
   54POPI   GL1  747  11.166  17.195   9.570 -0.0783 -0.0442  0.2146
   54POPI   GL2  748  10.967  17.120   9.496 -0.3923 -0.0977  0.2707
   54POPI   C1A  749  11.424  16.853   9.363  0.0633 -0.0241  0.0062
   54POPI   D2A  750  11.465  16.584   9.045 -0.0939  0.0128  0.4344
   54POPI   C3A  751  11.369  16.715   8.636 -0.0759 -0.0607 -0.0108
   54POPI   C4A  752  11.444  16.544   8.254  0.0055  0.2197  0.0888
   54POPI   C1B  753  10.793  17.162   9.101 -0.1116 -0.2407  0.2725
   54POPI   C2B  754  10.647  17.254   8.648 -0.0570  0.3059 -0.2890
   54POPI   C3B  755  10.760  17.252   8.250 -0.2848 -0.1056 -0.2798
   54POPI   C4B  756  10.993  17.395   7.999 -0.1146  0.0639  0.1454
   55POPI    C1  757  16.383   9.610  10.526 -0.1638 -0.2220  0.0353
   55POPI    C2  758  16.685   9.349  10.537  0.1070  0.0704 -0.2242
   55POPI    C3  759  16.579   9.546  10.869  0.2536  0.0246 -0.1489
   55POPI   PO4  760  16.453   9.712  10.344 -0.0492  0.0204  0.0426
   55POPI   GL1  761  16.677   9.505   9.938  0.0926  0.1693 -0.2536
   55POPI   GL2  762  16.482   9.738   9.846 -0.4011  0.2589  0.4778
   55POPI   C1A  763  16.797   9.299   9.621 -0.1146 -0.2575 -0.4214
   55POPI   D2A  764  16.767   9.155   9.142 -0.0234 -0.1575  0.3534
   55POPI   C3A  765  16.573   8.783   8.963 -0.0039  0.0275  0.0461
   55POPI   C4A  766  16.778   8.423   8.827  0.1462  0.0650  0.0353
   55POPI   C1B  767  16.479   9.562   9.408  0.1009  0.1222  0.2994
   55POPI   C2B  768  16.412   9.554   8.957  0.0749 -0.0672  0.4199
   55POPI   C3B  769  16.386   9.208   8.655  0.1259 -0.1470  0.0554
   55POPI   C4B  770  16.197   8.931   8.309  0.2329 -0.2495  0.1536
   56POPI    C1  771   0.731  14.836  10.288 -0.0658  0.0858  0.0690
   56POPI    C2  772   0.533  14.979  10.605  0.0789  0.0859  0.1602
   56POPI    C3  773   0.928  14.919  10.626  0.0937  0.1105 -0.0292
   56POPI   PO4  774   0.664  14.623  10.206 -0.1636 -0.3206 -0.2702
   56POPI   GL1  775   0.643  14.519   9.765 -0.0471 -0.3087  0.1808
   56POPI   GL2  776   0.803  14.265   9.704 -0.1091 -0.0825  0.0975
   56POPI   C1A  777   0.747  14.791   9.392 -0.1599 -0.1591 -0.1873
   56POPI   D2A  778   0.800  14.867   8.906 -0.0175 -0.0297 -0.0294
   56POPI   C3A  779   0.819  15.294   8.700  0.2272 -0.0994  0.1901
   56POPI   C4A  780   0.823  15.721   8.744 -0.0734  0.0032  0.0488
   56POPI   C1B  781   0.806  14.311   9.227 -0.0274  0.1971 -0.1460
   56POPI   C2B  782   0.786  14.358   8.830 -0.0555  0.2109  0.1612
   56POPI   C3B  783   0.583  14.643   8.462 -0.3166  0.0365  0.0293
   56POPI   C4B  784   0.462  14.390   8.091  0.3581  0.0347 -0.0847
   57POPI    C1  785  10.661   5.322  10.744  0.1018  0.0780 -0.0616
   57POPI    C2  786  10.825   4.957  10.758 -0.0590  0.0084  0.0406
   57POPI    C3  787  10.814   5.184  11.087  0.0113  0.0930 -0.0149
   57POPI   PO4  788  10.581   5.346  10.575 -0.0481 -0.2979 -0.2386
   57POPI   GL1  789  10.678   5.482  10.088 -0.0761 -0.1614 -0.0061
   57POPI   GL2  790  10.424   5.737   9.977 -0.6197 -0.1561 -0.0515
   57POPI   C1A  791  10.813   5.637   9.650 -0.1519  0.1590 -0.1065
   57POPI   D2A  792  10.850   5.828   9.310 -0.0289 -0.4004  0.2109
   57POPI   C3A  793  10.826   5.931   8.938  0.0563 -0.1386  0.1268
   57POPI   C4A  794  10.789   6.132   8.576  0.1097  0.0999 -0.0590
   57POPI   C1B  795  10.298   5.881   9.599 -0.3970  0.2498 -0.1673
   57POPI   C2B  796  10.306   5.969   9.120 -0.4003  0.1996  0.2373
   57POPI   C3B  797  10.337   5.892   8.745  0.1016 -0.2197 -0.0822
   57POPI   C4B  798  10.256   6.075   8.394  0.2569 -0.0643  0.1383
   58POPI    C1  799  11.990   7.873  10.751 -0.1653  0.1304  0.1180
   58POPI    C2  800  12.300   7.922  10.999 -0.0124 -0.1750 -0.0077
   58POPI    C3  801  11.941   8.071  11.095  0.0950 -0.1029  0.2935
   58POPI   PO4  802  11.989   8.012  10.489 -0.0881 -0.0075  0.0344
   58POPI   GL1  803  12.226   8.031  10.100 -0.0941 -0.1212 -0.3160
   58POPI   GL2  804  12.348   8.372  10.094  0.0177  0.2532 -0.0437
   58POPI   C1A  805  12.322   8.113   9.657  0.1358  0.0583 -0.0362
   58POPI   D2A  806  12.401   7.992   9.266 -0.0701  0.0897  0.0909
   58POPI   C3A  807  12.743   8.200   9.077  0.1037  0.0175 -0.1814
   58POPI   C4A  808  12.962   8.455   8.666 -0.1058 -0.1977 -0.1519
   58POPI   C1B  809  12.738   8.332   9.855  0.0878 -0.0880 -0.3856
   58POPI   C2B  810  12.857   8.516   9.451 -0.0695  0.0002 -0.1121
   58POPI   C3B  811  12.762   8.781   9.106  0.2286 -0.1949 -0.1457
   58POPI   C4B  812  12.892   8.930   8.724 -0.1893 -0.0692 -0.2524
   59POPI    C1  813  15.889   7.299  10.574  0.0551  0.0830 -0.1064
   59POPI    C2  814  16.027   6.925  10.599 -0.0413  0.0427 -0.1760
   59POPI    C3  815  16.134   7.195  10.874 -0.1517 -0.0936  0.0036
   59POPI   PO4  816  15.931   7.297  10.315  0.1688 -0.1369  0.2477
   59POPI   GL1  817  16.120   7.271   9.925 -0.0779  0.0521  0.0963
   59POPI   GL2  818  15.877   7.141   9.732 -0.0537 -0.0002 -0.0506
   59POPI   C1A  819  16.345   7.492   9.577 -0.1396 -0.1696  0.3592
   59POPI   D2A  820  16.614   7.718   9.378  0.1617  0.0052 -0.0599
   59POPI   C3A  821  16.574   7.998   9.051  0.1654  0.1498  0.0315
   59POPI   C4A  822  16.481   8.034   8.616 -0.1929 -0.0118 -0.0557
   59POPI   C1B  823  15.569   7.528   9.499  0.2109 -0.2050  0.3993
   59POPI   C2B  824  15.175   7.556   9.297  0.4023 -0.1600  0.2789
   59POPI   C3B  825  15.039   7.854   8.955  0.1334  0.2938 -0.0244
   59POPI   C4B  826  15.276   8.044   8.592 -0.0651 -0.3382 -0.0438
   60POPI    C1  827  12.074   1.840   9.840 -0.0875 -0.0255 -0.2732
   60POPI    C2  828  12.170   2.208   9.963 -0.1539 -0.1050  0.0248
   60POPI    C3  829  12.426   1.906  10.016 -0.1086 -0.1082 -0.1993
   60POPI   PO4  830  11.977   1.904   9.636  0.2006 -0.1461  0.1166
   60POPI   GL1  831  11.943   2.065   9.255  0.0517  0.0145  0.1955
   60POPI   GL2  832  11.615   1.977   9.326  0.4749  0.1141 -0.0540
   60POPI   C1A  833  11.968   1.732   8.932 -0.3524 -0.1419  0.0045
   60POPI   D2A  834  11.743   1.466   8.682  0.0109  0.1538 -0.2221
   60POPI   C3A  835  11.610   1.491   8.267 -0.0973 -0.0326  0.2145
   60POPI   C4A  836  11.466   1.774   7.953  0.1245  0.0589 -0.2025
   60POPI   C1B  837  11.428   1.799   8.932  0.0291  0.0265  0.0992
   60POPI   C2B  838  11.251   1.733   8.597  0.1505 -0.2062 -0.1548
   60POPI   C3B  839  11.040   1.663   8.298  0.0468  0.0308 -0.1774
   60POPI   C4B  840  10.678   1.476   8.236  0.0399  0.4584 -0.1673
   61POPI    C1  841  12.910   0.809   9.980  0.0450 -0.0009  0.2490
   61POPI    C2  842  13.158   1.119  10.028 -0.0062  0.0464  0.2102
   61POPI    C3  843  12.827   1.091  10.251  0.0093  0.0082  0.2286
   61POPI   PO4  844  12.987   0.802   9.639  0.2518  0.4506 -0.1346
   61POPI   GL1  845  12.882   0.543   9.244 -0.0561  0.1653  0.2342
   61POPI   GL2  846  13.220   0.571   9.263 -0.0380  0.1087 -0.0758
   61POPI   C1A  847  12.917   0.668   8.854  0.1298 -0.2043 -0.2024
   61POPI   D2A  848  12.951   0.763   8.413  0.1989 -0.0504 -0.1872
   61POPI   C3A  849  12.607   0.926   8.239  0.1633  0.1430 -0.4175
   61POPI   C4A  850  12.280   0.886   8.135  0.0598 -0.0839  0.0040
   61POPI   C1B  851  13.376   0.856   9.052  0.0986 -0.1659  0.1306
   61POPI   C2B  852  13.406   0.961   8.636 -0.1179 -0.0800 -0.1750
   61POPI   C3B  853  13.432   0.868   8.338 -0.0806  0.0559 -0.1701
   61POPI   C4B  854  13.615   0.925   7.987  0.0279 -0.3304 -0.0992
   62POPI    C1  855  11.236   6.067  10.736 -0.0873 -0.0211 -0.0544
   62POPI    C2  856  11.514   6.356  10.741  0.1689 -0.2660  0.2746
   62POPI    C3  857  11.161   6.414  10.920 -0.0191  0.0642 -0.1851
   62POPI   PO4  858  11.386   5.914  10.475 -0.2331  0.0436  0.1243
   62POPI   GL1  859  11.577   6.150  10.145  0.2008  0.2285  0.2050
   62POPI   GL2  860  11.437   6.010   9.988  0.1310  0.0071  0.1267
   62POPI   C1A  861  11.694   6.305   9.738 -0.0268 -0.0411  0.0510
   62POPI   D2A  862  11.660   6.134   9.434  0.1260  0.3469  0.0920
   62POPI   C3A  863  11.787   6.190   9.075  0.3720 -0.0594  0.0645
   62POPI   C4A  864  11.757   6.405   8.704 -0.0392 -0.2081  0.1278
   62POPI   C1B  865  11.442   5.698   9.557 -0.0953 -0.2541  0.0747
   62POPI   C2B  866  11.524   5.745   9.119  0.1619  0.0237 -0.2069
   62POPI   C3B  867  11.750   5.895   8.701 -0.1168 -0.0149  0.2680
   62POPI   C4B  868  11.581   6.048   8.266  0.1473 -0.1187  0.1485
   63POPI    C1  869   7.354  12.643  10.074 -0.2324  0.0810  0.0143
   63POPI    C2  870   7.116  12.443  10.325 -0.0670 -0.0788  0.0453
   63POPI    C3  871   7.508  12.361  10.313  0.0225  0.3170  0.1355
   63POPI   PO4  872   7.215  12.641   9.885 -0.0997  0.1820 -0.0147
   63POPI   GL1  873   7.019  12.384   9.537  0.1243  0.0325 -0.0380
   63POPI   GL2  874   6.869  12.032   9.542  0.2491  0.2881  0.0804
   63POPI   C1A  875   7.108  12.594   9.144  0.2208 -0.0715  0.0949
   63POPI   D2A  876   7.017  12.472   8.751 -0.0163  0.0704  0.1313
   63POPI   C3A  877   6.728  12.249   8.476  0.1022 -0.2714  0.2669
   63POPI   C4A  878   6.727  11.813   8.540  0.1227  0.1155  0.2512
   63POPI   C1B  879   6.870  11.977   8.995  0.0398 -0.1911 -0.0413
   63POPI   C2B  880   7.175  11.943   8.643 -0.0424 -0.0735 -0.2475
   63POPI   C3B  881   7.057  11.886   8.197 -0.2762 -0.0547  0.0947
   63POPI   C4B  882   7.137  11.731   7.773 -0.1488 -0.1990 -0.0702
   64POPI    C1  883  13.475   6.745  11.075  0.2066 -0.2151  0.2326
   64POPI    C2  884  13.707   6.695  10.752 -0.1183  0.0337 -0.0466
   64POPI    C3  885  13.838   6.913  11.061 -0.0280  0.2816 -0.2564
   64POPI   PO4  886  13.153   6.574  10.845 -0.0697 -0.1646 -0.1804
   64POPI   GL1  887  12.924   6.930  10.590 -0.2194 -0.0964  0.0293
   64POPI   GL2  888  13.297   7.008  10.644 -0.0143 -0.0262  0.2285
   64POPI   C1A  889  12.986   6.619  10.156  0.2039  0.0165  0.1739
   64POPI   D2A  890  12.937   6.254   9.860  0.0276 -0.1961 -0.1220
   64POPI   C3A  891  12.910   6.174   9.413 -0.1806 -0.0432  0.1376
   64POPI   C4A  892  12.701   6.309   9.048 -0.0955 -0.3392  0.0282
   64POPI   C1B  893  13.406   6.783  10.278 -0.2887  0.0931  0.1356
   64POPI   C2B  894  13.811   6.653  10.120 -0.1073  0.5121 -0.0139
   64POPI   C3B  895  13.888   6.490   9.743  0.1459  0.0483 -0.2603
   64POPI   C4B  896  14.098   6.434   9.322 -0.0185 -0.3694  0.3472
   65POPI    C1  897  16.771   1.972  10.988  0.1930 -0.0426  0.2051
   65POPI    C2  898  16.841   2.342  11.124 -0.1444  0.1693 -0.1777
   65POPI    C3  899  17.147   2.102  11.032  0.0792  0.2759  0.2622
   65POPI   PO4  900  16.577   1.965  10.830 -0.1088 -0.1180 -0.0923
   65POPI   GL1  901  16.503   2.153  10.447  0.1347  0.1152 -0.2464
   65POPI   GL2  902  16.298   1.866  10.309 -0.1138 -0.2440  0.0552
   65POPI   C1A  903  16.625   2.235  10.062 -0.2731 -0.1064 -0.3130
   65POPI   D2A  904  16.460   2.109   9.602 -0.0981  0.1016  0.1770
   65POPI   C3A  905  16.639   2.091   9.211 -0.3207 -0.2807  0.2208
   65POPI   C4A  906  16.869   1.723   8.989 -0.1308  0.1602  0.3159
   65POPI   C1B  907  16.118   1.796   9.798 -0.0144  0.2608  0.1313
   65POPI   C2B  908  15.819   1.769   9.465 -0.0633  0.2560  0.2326
   65POPI   C3B  909  15.682   1.890   9.127  0.0385 -0.0244  0.1123
   65POPI   C4B  910  15.860   1.995   8.722  0.0505 -0.0327 -0.1394
   66POPI    C1  911   8.071   9.710  10.025  0.2256 -0.0286  0.0500
   66POPI    C2  912   7.872   9.532  10.324  0.1032  0.0889  0.0390
   66POPI    C3  913   8.272   9.523  10.317  0.1031 -0.0144  0.1444
   66POPI   PO4  914   8.029   9.625   9.849 -0.0507 -0.1219 -0.0065
   66POPI   GL1  915   7.834   9.676   9.404 -0.0512  0.0193 -0.0773
   66POPI   GL2  916   8.159   9.729   9.390 -0.1113  0.0519 -0.4185
   66POPI   C1A  917   7.879   9.266   9.034 -0.0281 -0.1542  0.1905
   66POPI   D2A  918   8.089   9.003   8.726 -0.1645 -0.2418 -0.0053
   66POPI   C3A  919   8.465   8.808   8.657 -0.2588  0.1558 -0.3929
   66POPI   C4A  920   8.751   8.597   8.316  0.1271  0.0987  0.0562
   66POPI   C1B  921   8.120   9.693   8.954 -0.0581  0.0716  0.0313
   66POPI   C2B  922   8.042   9.979   8.517  0.0121 -0.2658  0.1063
   66POPI   C3B  923   7.891  10.010   8.130  0.0992  0.3201 -0.2036
   66POPI   C4B  924   7.927   9.796   7.662 -0.0997  0.1758  0.0217
   67POPI    C1  925   8.766  16.184  10.054  0.1929  0.0597 -0.0651
   67POPI    C2  926   9.004  15.894   9.913 -0.0091 -0.1898  0.0971
   67POPI    C3  927   9.076  16.057  10.272  0.1701  0.0434 -0.0419
   67POPI   PO4  928   8.736  16.515   9.881 -0.0504 -0.2029  0.1578
   67POPI   GL1  929   8.889  16.728   9.531  0.2607 -0.1225 -0.1077
   67POPI   GL2  930   8.961  16.479   9.410 -0.0710 -0.0439  0.2825
   67POPI   C1A  931   8.570  16.883   9.097  0.1189 -0.0287 -0.0945
   67POPI   D2A  932   8.445  16.895   8.673 -0.0225  0.0020 -0.1813
   67POPI   C3A  933   8.429  16.624   8.273  0.0613  0.1656  0.1867
   67POPI   C4A  934   8.181  16.449   8.029 -0.2800 -0.1460  0.3879
   67POPI   C1B  935   8.684  16.389   9.143  0.1438 -0.0955 -0.1090
   67POPI   C2B  936   8.585  16.347   8.744 -0.0329 -0.3423  0.1868
   67POPI   C3B  937   8.492  16.121   8.406  0.1859  0.0901 -0.0088
   67POPI   C4B  938   8.340  15.926   8.079  0.1857  0.1149  0.1429
   68POPS   CNO  939   4.528   2.378  10.651 -0.1103  0.0648 -0.1424
   68POPS   PO4  940   4.513   2.157  10.276  0.2793  0.2799 -0.0365
   68POPS   GL1  941   4.577   1.951   9.850  0.2220 -0.1412  0.0723
   68POPS   GL2  942   4.644   1.579   9.759 -0.0419 -0.2362 -0.0940
   68POPS   C1A  943   4.432   1.868   9.478  0.3258  0.1567  0.0852
   68POPS   D2A  944   4.284   1.969   9.065  0.0296  0.0725  0.0192
   68POPS   C3A  945   4.461   2.048   8.752 -0.1373 -0.0835 -0.1546
   68POPS   C4A  946   4.876   1.755   8.721 -0.0417  0.1417 -0.1359
   68POPS   C1B  947   4.828   1.536   9.411 -0.0571  0.2522  0.0554
   68POPS   C2B  948   4.606   1.602   9.065 -0.1169  0.1115 -0.3628
   68POPS   C3B  949   4.418   1.558   8.557  0.1321 -0.1623 -0.0273
   68POPS   C4B  950   3.978   1.634   8.368  0.0179  0.2733 -0.1389
   69POPS   CNO  951   1.971  13.306  10.502 -0.1129  0.1529  0.2687
   69POPS   PO4  952   1.621  13.168  10.317  0.2554 -0.0063  0.1920
   69POPS   GL1  953   1.511  13.199   9.795  0.0373 -0.1722  0.1183
   69POPS   GL2  954   1.517  12.830   9.706 -0.2041 -0.1254 -0.1065
   69POPS   C1A  955   1.632  13.042   9.321  0.0216 -0.2999 -0.0695
   69POPS   D2A  956   1.757  13.123   8.888  0.3543 -0.1398  0.3597
   69POPS   C3A  957   1.613  12.867   8.548 -0.2195  0.3358  0.0874
   69POPS   C4A  958   1.751  12.685   8.166 -0.1305 -0.0690  0.1192
   69POPS   C1B  959   1.186  12.638   9.439 -0.3161 -0.1182  0.0466
   69POPS   C2B  960   1.034  12.497   9.083  0.1311 -0.0916  0.1255
   69POPS   C3B  961   1.120  12.568   8.658  0.0037 -0.3259 -0.0827
   69POPS   C4B  962   1.255  12.710   8.183 -0.2019 -0.0365  0.2500
   70POPS   CNO  963  11.538   7.903  10.878 -0.1741 -0.0215  0.0547
   70POPS   PO4  964  11.555   7.869  10.374  0.0952  0.3808  0.1075
   70POPS   GL1  965  11.482   7.697   9.941  0.0436 -0.0501  0.5735
   70POPS   GL2  966  11.248   7.498   9.868  0.0998  0.0694  0.0352
   70POPS   C1A  967  11.503   7.706   9.482 -0.1973  0.0710  0.1507
   70POPS   D2A  968  11.629   7.717   9.022  0.1802 -0.3395  0.0008
   70POPS   C3A  969  11.371   7.976   8.807  0.2020  0.0039  0.0257
   70POPS   C4A  970  11.506   8.308   8.557  0.0634  0.0200  0.1570
   70POPS   C1B  971  11.074   7.422   9.430 -0.0068 -0.2177  0.1119
   70POPS   C2B  972  11.115   7.435   8.992 -0.0728 -0.1642  0.0943
   70POPS   C3B  973  11.262   7.531   8.607 -0.0011  0.0490 -0.0670
   70POPS   C4B  974  11.550   7.846   8.297 -0.2183 -0.1147 -0.1215
   71POPS   CNO  975   8.243  16.169  10.233  0.0360  0.1942 -0.1111
   71POPS   PO4  976   8.226  16.294   9.788 -0.1024  0.1160 -0.0484
   71POPS   GL1  977   8.102  16.057   9.447 -0.0039  0.0101 -0.2426
   71POPS   GL2  978   7.765  16.023   9.333  0.0659 -0.1966  0.0718
   71POPS   C1A  979   8.253  16.071   9.132  0.0457  0.1879  0.0538
   71POPS   D2A  980   8.221  16.074   8.783  0.2771  0.1089  0.1177
   71POPS   C3A  981   7.987  16.048   8.489  0.0869 -0.0792  0.1798
   71POPS   C4A  982   7.867  15.997   8.114 -0.1206 -0.1050 -0.2927
   71POPS   C1B  983   7.656  15.819   8.983  0.0974 -0.2764  0.2836
   71POPS   C2B  984   7.643  15.688   8.539  0.0740 -0.2223  0.0778
   71POPS   C3B  985   7.348  15.811   8.185  0.0847  0.1737 -0.5840
   71POPS   C4B  986   7.053  15.942   7.838  0.1056 -0.0526  0.1007
   72POPS   CNO  987  10.491  18.030   9.399  0.0906 -0.1696  0.1367
   72POPS   PO4  988  10.845  17.975   9.653 -0.1364  0.0092  0.3063
   72POPS   GL1  989  10.954  17.767   9.279 -0.2067 -0.1437  0.2545
   72POPS   GL2  990  11.157  17.961   9.139  0.0902  0.3305  0.0485
   72POPS   C1A  991  10.897  17.600   8.807 -0.3444 -0.0434  0.1183
   72POPS   D2A  992  11.023  17.686   8.360 -0.1637  0.1606 -0.0997
   72POPS   C3A  993  10.930  17.988   8.093 -0.1363  0.1021  0.3874
   72POPS   C4A  994  10.948  18.225   7.713 -0.1536 -0.2490 -0.0988
   72POPS   C1B  995  11.375  17.703   8.774  0.1414  0.4357  0.1560
   72POPS   C2B  996  11.509  17.478   8.370  0.1416  0.0221  0.3182
   72POPS   C3B  997  11.564  17.311   7.912  0.0500  0.2400 -0.2061
   72POPS   C4B  998  11.652  16.907   7.655 -0.3087  0.1572  0.1164
   73POPS   CNO  999   5.179  15.762  10.096  0.1163  0.0447 -0.1000
   73POPS   PO4 1000   4.917  15.631   9.765  0.3279  0.2584  0.0412
   73POPS   GL1 1001   4.935  15.981   9.545 -0.0785 -0.2242  0.1353
   73POPS   GL2 1002   4.841  16.104   9.867 -0.1372  0.2527  0.0520
   73POPS   C1A 1003   5.177  16.218   9.310 -0.0968  0.1685 -0.1848
   73POPS   D2A 1004   5.134  16.518   9.113  0.2902  0.4237  0.0695
   73POPS   C3A 1005   4.990  16.443   8.727  0.0742  0.2525  0.0502
   73POPS   C4A 1006   4.725  16.318   8.411  0.0828 -0.1217  0.1835
   73POPS   C1B 1007   4.484  16.185   9.681 -0.0251  0.0189 -0.2730
   73POPS   C2B 1008   4.285  15.985   9.286  0.0597  0.1842 -0.2512
   73POPS   C3B 1009   4.269  15.974   8.871 -0.0543 -0.0771  0.0651
   73POPS   C4B 1010   4.325  16.094   8.526  0.1397  0.3407  0.0233
   74POPS   CNO 1011   0.818   6.078  10.842 -0.0541 -0.3089 -0.0767
   74POPS   PO4 1012   1.132   6.377  10.652 -0.4326  0.2393  0.0807
   74POPS   GL1 1013   1.220   6.392  10.211 -0.1044 -0.0797 -0.1692
   74POPS   GL2 1014   0.997   6.260   9.995 -0.1206 -0.1299  0.0629
   74POPS   C1A 1015   1.507   6.510   9.782 -0.2587 -0.0600  0.2605
   74POPS   D2A 1016   1.337   6.586   9.341 -0.1071 -0.0094 -0.0377
   74POPS   C3A 1017   1.100   6.945   9.478  0.1334  0.0780  0.2249
   74POPS   C4A 1018   1.249   7.306   9.615  0.1959  0.0088 -0.0089
   74POPS   C1B 1019   1.043   6.310   9.588  0.2365  0.3714 -0.1372
   74POPS   C2B 1020   0.891   6.530   9.200 -0.2026 -0.1056  0.0409
   74POPS   C3B 1021   0.898   6.598   8.756 -0.1940  0.0373 -0.1768
   74POPS   C4B 1022   0.771   6.680   8.422  0.1244 -0.2950  0.1762
   75POPS   CNO 1023  16.160  14.385   9.927  0.1391 -0.2733 -0.1522
   75POPS   PO4 1024  16.445  14.065   9.952  0.0116 -0.3427  0.3473
   75POPS   GL1 1025  16.501  14.245   9.562 -0.2306 -0.1839 -0.1621
   75POPS   GL2 1026  16.164  14.500   9.409  0.0310  0.0331  0.1060
   75POPS   C1A 1027  16.501  14.284   9.059  0.2929 -0.1093  0.3929
   75POPS   D2A 1028  16.719  14.196   8.699  0.0825  0.0542 -0.0423
   75POPS   C3A 1029  16.582  13.916   8.359 -0.1087  0.1225 -0.2446
   75POPS   C4A 1030  16.637  13.986   7.873 -0.0382  0.2914 -0.3749
   75POPS   C1B 1031  16.095  14.764   9.134 -0.1477 -0.1177 -0.0935
   75POPS   C2B 1032  16.093  14.837   8.666  0.1073  0.3061  0.0211
   75POPS   C3B 1033  16.151  14.952   8.320 -0.2367 -0.1641 -0.3503
   75POPS   C4B 1034  16.048  15.324   8.367 -0.0806 -0.1070 -0.0937
   76POPS   CNO 1035   2.661   9.436  10.640  0.0876 -0.2200 -0.4014
   76POPS   PO4 1036   2.943   9.259  10.297 -0.2180 -0.1675 -0.1738
   76POPS   GL1 1037   2.881   9.026   9.940  0.0562  0.0252  0.1286
   76POPS   GL2 1038   3.192   8.964   9.745  0.0622  0.0989 -0.4284
   76POPS   C1A 1039   2.551   8.937   9.736 -0.1347 -0.1824 -0.2059
   76POPS   D2A 1040   2.367   8.755   9.291  0.0693  0.1279 -0.3263
   76POPS   C3A 1041   2.333   8.784   8.878  0.0438 -0.4262  0.0387
   76POPS   C4A 1042   2.302   8.645   8.404 -0.1853  0.2937  0.0599
   76POPS   C1B 1043   2.939   9.146   9.431  0.0049 -0.0864 -0.1329
   76POPS   C2B 1044   2.732   9.051   8.992 -0.0798 -0.3364 -0.0302
   76POPS   C3B 1045   2.685   9.286   8.708  0.4779  0.0891  0.0681
   76POPS   C4B 1046   2.838   9.292   8.252  0.1505 -0.0397 -0.1646
   77POPS   CNO 1047   0.778   2.670  10.762 -0.4195 -0.0628  0.5203
   77POPS   PO4 1048   0.605   2.762  10.400 -0.2856 -0.0077  0.0133
   77POPS   GL1 1049   0.415   2.592  10.050 -0.0853  0.2242  0.0882
   77POPS   GL2 1050   0.695   2.446   9.997 -0.2564  0.1875 -0.0473
   77POPS   C1A 1051   0.349   2.809   9.728  0.5081  0.1000 -0.0953
   77POPS   D2A 1052   0.418   2.927   9.347 -0.1066  0.0493  0.0603
   77POPS   C3A 1053   0.256   2.635   9.028 -0.1859  0.1644  0.1825
   77POPS   C4A 1054   0.150   2.745   8.544  0.0417  0.1702 -0.0656
   77POPS   C1B 1055   0.641   2.490   9.562 -0.2219 -0.0423  0.0060
   77POPS   C2B 1056   0.585   2.338   9.285  0.3476  0.2798 -0.2573
   77POPS   C3B 1057   0.516   2.229   8.810 -0.0124  0.0090 -0.2514
   77POPS   C4B 1058   0.196   2.242   8.471  0.4102 -0.0023 -0.1908
   78POPS   CNO 1059   5.096  17.447  10.624  0.3961 -0.1308  0.1070
   78POPS   PO4 1060   5.456  17.419  10.277  0.0666 -0.0691  0.0763
   78POPS   GL1 1061   5.258  17.214  10.003  0.0526 -0.3610 -0.0918
   78POPS   GL2 1062   5.008  17.386  10.053  0.0013 -0.0435  0.1466
   78POPS   C1A 1063   5.232  17.003   9.587 -0.1708  0.1624 -0.2959
   78POPS   D2A 1064   5.468  16.840   9.334 -0.0445  0.0430  0.2475
   78POPS   C3A 1065   5.257  17.048   8.955  0.1393  0.1994 -0.3547
   78POPS   C4A 1066   5.332  17.461   8.601  0.2196 -0.0955 -0.3575
   78POPS   C1B 1067   5.132  17.542   9.607  0.1302  0.0614  0.0501
   78POPS   C2B 1068   5.115  17.534   9.184  0.1805 -0.4696  0.0065
   78POPS   C3B 1069   4.821  17.475   8.930  0.1697  0.0369 -0.0537
   78POPS   C4B 1070   4.830  17.520   8.514  0.0886  0.1089 -0.0955
   79POPS   CNO 1071   8.676  17.087  10.239 -0.2906  0.0572 -0.2026
   79POPS   PO4 1072   8.752  17.207   9.816 -0.1869  0.1270 -0.0883
   79POPS   GL1 1073   8.712  17.347   9.386 -0.2303  0.1062 -0.0127
   79POPS   GL2 1074   8.890  17.460   9.194 -0.1828 -0.4696  0.1417
   79POPS   C1A 1075   8.365  17.406   9.119 -0.0876 -0.2674  0.0207
   79POPS   D2A 1076   8.271  17.471   8.700  0.1366  0.0862  0.0400
   79POPS   C3A 1077   8.033  17.503   8.298 -0.1122 -0.0530  0.1068
   79POPS   C4A 1078   7.692  17.359   8.032 -0.2120 -0.2302  0.0224
   79POPS   C1B 1079   8.980  17.112   8.892  0.0041 -0.1392  0.2534
   79POPS   C2B 1080   8.948  16.768   8.648 -0.0062  0.1167  0.0245
   79POPS   C3B 1081   9.004  16.675   8.239  0.0112 -0.1950  0.0313
   79POPS   C4B 1082   8.747  16.785   7.865  0.0232 -0.0074  0.3598
   80POPS   CNO 1083   3.242  13.215  10.180 -0.0880  0.1731 -0.4050
   80POPS   PO4 1084   3.406  12.816  10.083 -0.0289 -0.1885  0.1090
   80POPS   GL1 1085   3.402  12.909   9.674  0.0791  0.0453  0.0179
   80POPS   GL2 1086   3.201  13.029   9.683 -0.0654  0.0212 -0.0733
   80POPS   C1A 1087   3.545  12.620   9.380  0.1759 -0.0636 -0.0876
   80POPS   D2A 1088   3.260  12.562   9.032  0.2224  0.0568  0.2093
   80POPS   C3A 1089   3.351  12.522   8.616  0.2456  0.0388 -0.0201
   80POPS   C4A 1090   3.376  12.385   8.176 -0.0062 -0.0616 -0.4284
   80POPS   C1B 1091   3.224  13.035   9.238  0.0689 -0.1320 -0.0032
   80POPS   C2B 1092   3.251  13.007   8.772 -0.0640 -0.0181 -0.1882
   80POPS   C3B 1093   3.246  13.053   8.443 -0.0396  0.0328  0.3425
   80POPS   C4B 1094   3.553  12.909   8.051 -0.2912 -0.0176 -0.0472
   81POPS   CNO 1095  15.265  11.344  10.405  0.0246 -0.1050  0.2906
   81POPS   PO4 1096  15.531  10.959  10.408  0.3075  0.1962 -0.0269
   81POPS   GL1 1097  15.506  10.906  10.013 -0.2966 -0.2162  0.0764
   81POPS   GL2 1098  15.396  11.153   9.840  0.2382  0.3179  0.0688
   81POPS   C1A 1099  15.419  10.623   9.751 -0.1429 -0.0159  0.0353
   81POPS   D2A 1100  15.517  10.555   9.318  0.0085  0.2251  0.0115
   81POPS   C3A 1101  15.422  10.499   8.893 -0.0408  0.3162  0.4033
   81POPS   C4A 1102  15.125  10.350   8.564  0.4276 -0.0247  0.1596
   81POPS   C1B 1103  14.968  11.295   9.772 -0.0550  0.4327 -0.2447
   81POPS   C2B 1104  14.560  11.371   9.798  0.2756  0.2214  0.2979
   81POPS   C3B 1105  14.131  11.477   9.629 -0.0414  0.0119  0.2714
   81POPS   C4B 1106  14.010  11.881   9.443 -0.0832 -0.0425 -0.2371
   82POPS   CNO 1107   9.559   3.090  10.011 -0.0141 -0.0231 -0.1503
   82POPS   PO4 1108   9.369   3.269   9.650  0.0349 -0.0228  0.1325
   82POPS   GL1 1109   9.247   3.159   9.296 -0.0087 -0.1093 -0.0864
   82POPS   GL2 1110   9.118   2.860   9.345  0.1035  0.2751 -0.1295
   82POPS   C1A 1111   9.337   3.305   8.835  0.0926 -0.3654  0.0382
   82POPS   D2A 1112   9.468   3.593   8.749 -0.0178 -0.2557 -0.0566
   82POPS   C3A 1113   9.332   3.607   8.270 -0.2498  0.0375 -0.0590
   82POPS   C4A 1114   9.085   3.703   7.909 -0.2135 -0.1390 -0.1186
   82POPS   C1B 1115   9.080   2.727   8.987  0.1283 -0.0779 -0.1112
   82POPS   C2B 1116   9.179   2.855   8.716 -0.0491 -0.0999 -0.2277
   82POPS   C3B 1117   9.529   3.007   8.393  0.1080 -0.1102  0.0255
   82POPS   C4B 1118   9.741   3.255   8.020 -0.0461 -0.2367 -0.1100
   83POPS   CNO 1119   6.675   7.300  10.232  0.2087  0.1650  0.3577
   83POPS   PO4 1120   6.266   7.368  10.037 -0.0369 -0.0105  0.3914
   83POPS   GL1 1121   6.391   7.272   9.698 -0.1653 -0.2532 -0.1692
   83POPS   GL2 1122   6.441   6.936   9.686 -0.2129 -0.1210  0.1036
   83POPS   C1A 1123   6.601   7.568   9.400  0.0975  0.3008 -0.0788
   83POPS   D2A 1124   6.687   7.576   8.973  0.0269 -0.4267  0.3207
   83POPS   C3A 1125   6.614   7.310   8.676 -0.0138 -0.1224  0.0138
   83POPS   C4A 1126   6.475   7.446   8.287 -0.2409 -0.1774  0.2781
   83POPS   C1B 1127   6.349   6.746   9.295  0.2408 -0.4172  0.0048
   83POPS   C2B 1128   6.272   6.852   8.935  0.1656  0.0173  0.0485
   83POPS   C3B 1129   6.212   6.845   8.521  0.2049 -0.3776  0.3354
   83POPS   C4B 1130   6.046   6.868   8.109 -0.1669  0.0411  0.2686
   84POPS   CNO 1131   7.754  12.857  10.303 -0.1170  0.0631  0.2045
   84POPS   PO4 1132   7.972  13.121   9.976 -0.2200  0.2406 -0.0315
   84POPS   GL1 1133   7.951  13.189   9.478 -0.1526  0.1454  0.1721
   84POPS   GL2 1134   7.539  13.321   9.473 -0.1939  0.2516  0.1109
   84POPS   C1A 1135   8.081  13.061   9.078 -0.3543  0.0987 -0.0239
   84POPS   D2A 1136   8.088  12.651   8.911 -0.4002  0.1630  0.0222
   84POPS   C3A 1137   8.062  12.526   8.584 -0.0040  0.1244 -0.0781
   84POPS   C4A 1138   7.991  12.391   8.199  0.2477  0.3210  0.1209
   84POPS   C1B 1139   7.388  13.492   9.119 -0.0453  0.3641 -0.1809
   84POPS   C2B 1140   7.327  13.498   8.654  0.2338 -0.0665 -0.5171
   84POPS   C3B 1141   6.991  13.513   8.317 -0.0271 -0.1918 -0.1175
   84POPS   C4B 1142   6.640  13.723   8.268  0.0175 -0.2085  0.1753
   85POPS   CNO 1143   0.098  17.393  10.149 -0.1701 -0.1311 -0.1463
   85POPS   PO4 1144   0.514  17.264  10.253 -0.0133  0.0666 -0.2145
   85POPS   GL1 1145   0.615  17.078   9.826 -0.0369 -0.0056  0.1314
   85POPS   GL2 1146   0.811  17.329   9.700 -0.0282  0.4112 -0.1171
   85POPS   C1A 1147   0.471  16.879   9.360  0.0673 -0.1965 -0.3706
   85POPS   D2A 1148   0.677  16.623   9.052 -0.0432  0.0395  0.0159
   85POPS   C3A 1149   0.950  16.724   8.748 -0.3181  0.4984  0.1357
   85POPS   C4A 1150   0.914  16.844   8.349 -0.0066  0.3578 -0.4248
   85POPS   C1B 1151   0.599  17.371   9.308 -0.2314  0.2178 -0.0048
   85POPS   C2B 1152   0.294  17.635   9.168 -0.0212  0.1443  0.0797
   85POPS   C3B 1153   0.109  17.852   9.417  0.0910  0.2266 -0.0253
   85POPS   C4B 1154   0.104  18.264   9.554  0.2465 -0.1623  0.2106
   86POPS   CNO 1155   5.868   6.687  10.489 -0.0014 -0.1852 -0.0706
   86POPS   PO4 1156   5.719   6.335  10.356 -0.0953  0.1118  0.1810
   86POPS   GL1 1157   5.868   6.321   9.900  0.1467  0.1803 -0.2403
   86POPS   GL2 1158   6.035   6.602   9.729 -0.0961 -0.0181 -0.0042
   86POPS   C1A 1159   5.808   6.239   9.484  0.0875  0.1489 -0.0659
   86POPS   D2A 1160   5.839   6.094   9.050  0.1837 -0.3431 -0.0894
   86POPS   C3A 1161   6.023   6.434   8.900  0.2097  0.0908  0.0516
   86POPS   C4A 1162   6.328   6.296   8.485 -0.0375  0.0420 -0.2766
   86POPS   C1B 1163   5.851   6.708   9.379 -0.0304 -0.2590 -0.1570
   86POPS   C2B 1164   5.655   6.799   9.031 -0.1310 -0.1356 -0.4396
   86POPS   C3B 1165   5.709   6.970   8.588 -0.2577  0.0195 -0.0915
   86POPS   C4B 1166   5.489   6.910   8.186  0.2890  0.5339 -0.0584
   87POPS   CNO 1167   8.853   4.161  10.070  0.3540  0.1850  0.2754
   87POPS   PO4 1168   9.009   4.158   9.654 -0.0821  0.0199 -0.3147
   87POPS   GL1 1169   8.932   4.141   9.300 -0.0876  0.1398  0.0404
   87POPS   GL2 1170   8.579   4.060   9.325  0.0753 -0.0979 -0.1769
   87POPS   C1A 1171   9.016   4.319   8.887  0.0048  0.2060  0.0044
   87POPS   D2A 1172   9.135   4.473   8.519  0.0838 -0.2272  0.3495
   87POPS   C3A 1173   8.979   4.750   8.302 -0.3701  0.0519 -0.1655
   87POPS   C4A 1174   9.025   5.025   7.887  0.1755  0.0486  0.1777
   87POPS   C1B 1175   8.517   4.288   8.968  0.0016 -0.3019  0.2459
   87POPS   C2B 1176   8.645   4.391   8.460 -0.2472  0.2307 -0.1086
   87POPS   C3B 1177   8.272   4.489   8.149 -0.0377  0.1176 -0.3660
   87POPS   C4B 1178   8.043   4.903   8.180 -0.0325 -0.1201 -0.0013
   88POPS   CNO 1179  14.357  11.557  10.198 -0.2699  0.0950 -0.1056
   88POPS   PO4 1180  14.473  11.995  10.262 -0.3296  0.0011 -0.2843
   88POPS   GL1 1181  14.432  11.893   9.822 -0.3374  0.0759 -0.2113
   88POPS   GL2 1182  14.847  11.896   9.779  0.0845 -0.2885 -0.4279
   88POPS   C1A 1183  14.504  12.039   9.426  0.0132 -0.2295 -0.1288
   88POPS   D2A 1184  14.769  12.026   9.096 -0.0685  0.0868  0.1627
   88POPS   C3A 1185  14.626  12.044   8.727 -0.0315 -0.1925  0.4231
   88POPS   C4A 1186  14.647  12.100   8.333 -0.3773  0.1851 -0.3620
   88POPS   C1B 1187  14.767  11.601   9.425 -0.0509 -0.2790  0.0872
   88POPS   C2B 1188  14.754  11.538   8.985  0.0116 -0.0192  0.0536
   88POPS   C3B 1189  14.484  11.353   8.792  0.2513 -0.0429 -0.0979
   88POPS   C4B 1190  14.372  11.057   8.512  0.1433  0.2169  0.2718
   89POPS   CNO 1191  15.088  12.097  10.249 -0.1378 -0.0661 -0.2031
   89POPS   PO4 1192  15.479  12.247  10.284 -0.0882  0.1474  0.0084
   89POPS   GL1 1193  15.478  12.190   9.811  0.2842  0.1394 -0.0978
   89POPS   GL2 1194  15.602  12.472   9.593  0.2660 -0.0771 -0.2833
   89POPS   C1A 1195  15.211  12.098   9.378  0.2988  0.0868  0.2927
   89POPS   D2A 1196  15.297  12.071   8.981 -0.0050  0.1158  0.1207
   89POPS   C3A 1197  15.163  11.818   8.721  0.0029  0.4800 -0.4116
   89POPS   C4A 1198  14.857  11.636   8.499  0.1677  0.1559 -0.0787
   89POPS   C1B 1199  15.510  12.514   9.214 -0.0589  0.0652  0.0481
   89POPS   C2B 1200  15.373  12.684   8.831  0.1998 -0.5022 -0.0979
   89POPS   C3B 1201  15.549  12.732   8.518 -0.1235 -0.1274  0.2287
   89POPS   C4B 1202  15.263  12.730   8.123  0.1668 -0.0731  0.0526
   90POPS   CNO 1203   7.107   3.274   9.993 -0.2100 -0.3015  0.1872
   90POPS   PO4 1204   7.033   2.742   9.937  0.1241 -0.3835 -0.1766
   90POPS   GL1 1205   7.072   2.698   9.545  0.0473  0.0443  0.1413
   90POPS   GL2 1206   7.301   2.641   9.336 -0.0296 -0.3630  0.2417
   90POPS   C1A 1207   6.713   2.618   9.115 -0.0564  0.3006  0.0072
   90POPS   D2A 1208   6.692   2.829   8.624 -0.0385  0.4811 -0.1249
   90POPS   C3A 1209   6.504   2.549   8.323 -0.1637 -0.0050 -0.0251
   90POPS   C4A 1210   6.349   2.626   7.899  0.0540  0.0003  0.1262
   90POPS   C1B 1211   7.136   2.467   8.902  0.1476  0.1264 -0.3612
   90POPS   C2B 1212   7.084   2.570   8.456 -0.0421  0.2742  0.1468
   90POPS   C3B 1213   6.925   2.333   8.194 -0.2587  0.1868  0.0789
   90POPS   C4B 1214   6.647   2.200   7.882  0.1639  0.0746 -0.2311
   91POPS   CNO 1215  17.362  12.008  10.609  0.0773  0.2294  0.0805
   91POPS   PO4 1216  17.654  12.031  10.243 -0.1833 -0.1010 -0.2243
   91POPS   GL1 1217  17.513  12.281   9.806  0.2805 -0.0039 -0.0546
   91POPS   GL2 1218  17.784  12.464   9.602 -0.0304  0.0493  0.1569
   91POPS   C1A 1219  17.385  12.140   9.403 -0.0458  0.2047  0.1204
   91POPS   D2A 1220  17.296  12.192   8.952  0.2249  0.2535 -0.0382
   91POPS   C3A 1221  17.231  11.928   8.685  0.0285 -0.0363  0.0815
   91POPS   C4A 1222  16.978  11.905   8.237 -0.2309  0.0833  0.0758
   91POPS   C1B 1223  17.758  12.423   9.167  0.3449  0.2353  0.0661
   91POPS   C2B 1224  17.758  12.428   8.796  0.0166  0.0908 -0.1419
   91POPS   C3B 1225  17.968  12.494   8.479  0.1907 -0.1941  0.1014
   91POPS   C4B 1226  17.883  12.486   8.044  0.1192 -0.0101 -0.0316
   92POPS   CNO 1227  11.116   2.043   9.847 -0.0287 -0.0523  0.2396
   92POPS   PO4 1228  11.275   2.404  10.095  0.1367 -0.0960  0.0448
   92POPS   GL1 1229  11.348   2.387   9.573  0.1521 -0.0192  0.4204
   92POPS   GL2 1230  11.035   2.496   9.532 -0.1036  0.1898  0.5381
   92POPS   C1A 1231  11.341   2.544   9.087 -0.4475  0.0823  0.0405
   92POPS   D2A 1232  11.488   2.672   8.623  0.2245  0.0002  0.2602
   92POPS   C3A 1233  11.582   2.611   8.201  0.0754  0.1187 -0.0502
   92POPS   C4A 1234  12.016   2.623   8.092  0.1912 -0.2036 -0.0050
   92POPS   C1B 1235  11.115   2.084   9.202  0.3194 -0.1367 -0.3246
   92POPS   C2B 1236  11.058   2.183   8.862 -0.0199  0.3464 -0.0183
   92POPS   C3B 1237  10.811   2.011   8.522  0.1760  0.0966  0.1124
   92POPS   C4B 1238  10.580   1.961   8.147  0.1614 -0.1956 -0.0984
   93POPS   CNO 1239  12.713   8.238  10.462 -0.1354 -0.0109  0.1964
   93POPS   PO4 1240  13.052   7.968  10.595  0.0930  0.0327  0.1975
   93POPS   GL1 1241  12.895   7.774  10.221  0.0828  0.0046 -0.1496
   93POPS   GL2 1242  12.627   7.757  10.078 -0.0270 -0.0447 -0.1675
   93POPS   C1A 1243  13.052   7.548   9.875  0.1592  0.2526 -0.1922
   93POPS   D2A 1244  13.052   7.510   9.465  0.0262 -0.0953 -0.0434
   93POPS   C3A 1245  13.031   7.286   9.113  0.0617  0.0535 -0.5109
   93POPS   C4A 1246  12.633   7.259   8.927  0.0161 -0.0702 -0.2280
   93POPS   C1B 1247  12.491   7.484   9.724  0.2884 -0.2235  0.2759
   93POPS   C2B 1248  12.606   7.589   9.286  0.0700  0.0014 -0.2849
   93POPS   C3B 1249  12.702   7.730   8.849 -0.1250 -0.2340 -0.0397
   93POPS   C4B 1250  12.534   8.004   8.517  0.1981  0.1624  0.1099
   94POPS   CNO 1251   0.678  16.657  10.788 -0.1016 -0.2951  0.2996
   94POPS   PO4 1252   0.736  16.303  10.466  0.0379 -0.1202  0.1859
   94POPS   GL1 1253   0.870  16.347  10.086  0.3834  0.1727 -0.2122
   94POPS   GL2 1254   0.518  16.314   9.959  0.1184  0.0038 -0.3811
   94POPS   C1A 1255   1.248  16.277   9.936 -0.0357 -0.0833  0.0075
   94POPS   D2A 1256   1.594  16.066   9.962 -0.0270 -0.2605  0.1882
   94POPS   C3A 1257   1.967  16.296   9.753  0.1924  0.2767 -0.1227
   94POPS   C4A 1258   2.353  16.537   9.700  0.1112 -0.0715  0.0506
   94POPS   C1B 1259   0.792  16.483   9.555 -0.2130  0.0702 -0.0664
   94POPS   C2B 1260   1.153  16.495   9.210 -0.1690  0.2956 -0.0057
   94POPS   C3B 1261   1.456  16.528   8.890 -0.2148 -0.1045 -0.0577
   94POPS   C4B 1262   1.505  16.835   8.644 -0.2231  0.3041  0.1774
   95POPS   CNO 1263   4.146  16.642  11.031 -0.1692  0.0245 -0.0500
   95POPS   PO4 1264   4.374  16.989  10.760  0.1717  0.1334 -0.0914
   95POPS   GL1 1265   4.265  17.003  10.412 -0.1089 -0.1606  0.1824
   95POPS   GL2 1266   3.945  16.999  10.458  0.1536  0.1124  0.0155
   95POPS   C1A 1267   4.369  17.342  10.117  0.1599 -0.3044  0.0987
   95POPS   D2A 1268   4.646  17.664   9.876  0.1950  0.2481 -0.0004
   95POPS   C3A 1269   4.627  17.585   9.408 -0.0592  0.0691 -0.1224
   95POPS   C4A 1270   4.563  17.907   9.015  0.2019 -0.0593 -0.1016
   95POPS   C1B 1271   3.949  17.179  10.024  0.2260  0.1786 -0.0187
   95POPS   C2B 1272   4.164  17.405   9.630  0.0882 -0.0062 -0.0624
   95POPS   C3B 1273   4.073  17.804   9.293  0.0749 -0.1913  0.2199
   95POPS   C4B 1274   4.072  17.897   8.843  0.2625  0.0216 -0.0645
   96POPS   CNO 1275   7.172   8.527   9.855  0.2050 -0.0950 -0.0027
   96POPS   PO4 1276   6.978   8.950  10.005 -0.2887  0.0559  0.1983
   96POPS   GL1 1277   6.967   8.936   9.572  0.0336  0.0416  0.0452
   96POPS   GL2 1278   6.674   8.959   9.586 -0.0839 -0.0749 -0.0918
   96POPS   C1A 1279   7.054   9.066   9.178  0.3161 -0.0405  0.2326
   96POPS   D2A 1280   7.425   9.096   8.912  0.0305  0.1310 -0.0482
   96POPS   C3A 1281   7.643   8.861   8.578  0.0875 -0.2063  0.4803
   96POPS   C4A 1282   7.699   8.961   8.181  0.1013 -0.0515 -0.0173
   96POPS   C1B 1283   6.583   9.169   9.084  0.5261 -0.2338 -0.1086
   96POPS   C2B 1284   6.664   9.342   8.748  0.3073  0.3184  0.1447
   96POPS   C3B 1285   6.768   9.183   8.273  0.1453  0.1859  0.0923
   96POPS   C4B 1286   6.898   9.043   7.904  0.2937  0.2969  0.0057
   97POPS   CNO 1287  15.102   5.756  10.308  0.3144 -0.1974 -0.1460
   97POPS   PO4 1288  15.438   5.857  10.249  0.0548 -0.2986  0.1441
   97POPS   GL1 1289  15.314   5.663   9.914  0.0473  0.0058  0.0100
   97POPS   GL2 1290  15.413   5.747   9.638 -0.2738 -0.2157  0.0297
   97POPS   C1A 1291  14.971   5.473   9.616 -0.1518  0.1664 -0.0810
   97POPS   D2A 1292  15.035   5.307   9.223  0.0724  0.0944 -0.2240
   97POPS   C3A 1293  14.722   5.227   8.848 -0.0628  0.0916  0.0995
   97POPS   C4A 1294  14.506   5.091   8.502 -0.1630  0.3189  0.0300
   97POPS   C1B 1295  15.374   5.792   9.299  0.1167  0.0718 -0.2529
   97POPS   C2B 1296  15.358   5.702   8.894 -0.0087 -0.0771  0.2288
   97POPS   C3B 1297  15.475   5.358   8.682 -0.1655 -0.1185 -0.0995
   97POPS   C4B 1298  15.866   5.342   8.366 -0.3868  0.4035  0.0053
   98POPS   CNO 1299   7.112   6.363  10.059 -0.0508 -0.0417 -0.1085
   98POPS   PO4 1300   7.459   6.604  10.189 -0.1432 -0.0303  0.1346
   98POPS   GL1 1301   7.276   6.785   9.814 -0.3969  0.0021 -0.0529
   98POPS   GL2 1302   7.375   6.756   9.538 -0.0262 -0.1556  0.1019
   98POPS   C1A 1303   6.938   7.006   9.583 -0.2479 -0.0011 -0.2819
   98POPS   D2A 1304   6.754   7.124   9.161 -0.0024 -0.0388  0.0858
   98POPS   C3A 1305   7.038   7.102   8.840 -0.1256 -0.2193 -0.3923
   98POPS   C4A 1306   7.032   7.279   8.435  0.0458 -0.2090  0.2032
   98POPS   C1B 1307   7.348   7.116   9.210 -0.3345 -0.1951  0.2756
   98POPS   C2B 1308   7.540   7.094   8.802 -0.1218 -0.0523 -0.1288
   98POPS   C3B 1309   7.310   6.887   8.491 -0.1325  0.1429 -0.0099
   98POPS   C4B 1310   7.259   6.684   8.074 -0.2437  0.0455 -0.0476
   99POPS   CNO 1311  17.145  15.850   9.898  0.1911  0.0698  0.0109
   99POPS   PO4 1312  17.559  15.966  10.136  0.0879  0.2017 -0.0389
   99POPS   GL1 1313  17.425  16.288   9.824  0.2917  0.3486 -0.0001
   99POPS   GL2 1314  17.089  16.209   9.627  0.1876  0.0215  0.1965
   99POPS   C1A 1315  17.478  16.488   9.456  0.0712  0.0623  0.1221
   99POPS   D2A 1316  17.252  16.650   9.136 -0.1799  0.2127  0.1733
   99POPS   C3A 1317  17.545  16.639   8.813  0.1389  0.0663 -0.1538
   99POPS   C4A 1318  17.383  16.697   8.420  0.0618  0.2738 -0.2653
   99POPS   C1B 1319  17.059  16.214   9.324 -0.0542  0.1639 -0.0895
   99POPS   C2B 1320  16.987  16.178   8.887 -0.0912  0.0855 -0.1533
   99POPS   C3B 1321  17.001  16.488   8.596 -0.4021 -0.1549 -0.2253
   99POPS   C4B 1322  16.883  16.608   8.229 -0.4080  0.0284 -0.2485
  100POPS   CNO 1323   5.419  11.053  10.460 -0.0300 -0.0884 -0.0221
  100POPS   PO4 1324   5.708  11.387  10.242 -0.0107  0.1773 -0.4408
  100POPS   GL1 1325   5.927  11.091   9.890 -0.0870 -0.0305  0.2076
  100POPS   GL2 1326   5.664  11.115   9.678  0.3624 -0.1124 -0.1053
  100POPS   C1A 1327   6.062  11.094   9.408  0.0930  0.0990  0.0648
  100POPS   D2A 1328   6.183  11.020   9.076 -0.0440  0.0661 -0.0031
  100POPS   C3A 1329   5.948  10.865   8.755  0.2588 -0.0516  0.2253
  100POPS   C4A 1330   6.089  10.436   8.553 -0.0405 -0.1732  0.0723
  100POPS   C1B 1331   5.645  11.117   9.115  0.3754 -0.2687  0.0238
  100POPS   C2B 1332   5.587  11.203   8.659  0.1675  0.0815 -0.2047
  100POPS   C3B 1333   5.311  11.215   8.311  0.1326 -0.0852 -0.1985
  100POPS   C4B 1334   4.900  11.249   8.073 -0.1774  0.1781  0.0730
  101POPS   CNO 1335   0.444   4.588  10.485 -0.2377 -0.0397 -0.0137
  101POPS   PO4 1336   0.073   4.599  10.812  0.0815 -0.0545 -0.4985
  101POPS   GL1 1337  -0.026   4.432  10.375 -0.0106  0.0262 -0.2416
  101POPS   GL2 1338  -0.179   4.156  10.313 -0.0016 -0.0069 -0.2263
  101POPS   C1A 1339  -0.238   4.478   9.935 -0.0272 -0.1390  0.1268
  101POPS   D2A 1340  -0.184   4.803   9.628  0.1173 -0.0161  0.4053
  101POPS   C3A 1341   0.255   4.603   9.563  0.1215  0.1267  0.1233
  101POPS   C4A 1342   0.407   4.489   9.916 -0.0094  0.2083 -0.1877
  101POPS   C1B 1343  -0.420   3.944  10.073  0.1694  0.1077  0.1019
  101POPS   C2B 1344  -0.591   3.883   9.684 -0.1673  0.1989 -0.0750
  101POPS   C3B 1345  -0.758   3.960   9.307 -0.0040 -0.1439  0.1187
  101POPS   C4B 1346  -0.736   3.798   8.758 -0.1270 -0.2864 -0.1047
  102POPS   CNO 1347   1.303   7.789  10.295 -0.0406 -0.0703  0.0974
  102POPS   PO4 1348   1.242   8.196  10.099 -0.0584 -0.4984  0.1791
  102POPS   GL1 1349   1.427   8.318   9.719  0.1703 -0.3748  0.1557
  102POPS   GL2 1350   1.677   8.103   9.691 -0.0083  0.1211  0.1702
  102POPS   C1A 1351   1.379   8.341   9.334 -0.0697 -0.1794 -0.0016
  102POPS   D2A 1352   1.418   8.474   8.934  0.1700  0.1384 -0.1169
  102POPS   C3A 1353   1.517   8.894   8.785  0.0427  0.2519 -0.2263
  102POPS   C4A 1354   1.521   9.397   8.702 -0.0459 -0.2170  0.3954
  102POPS   C1B 1355   1.797   8.087   9.321 -0.1676  0.0872  0.1249
  102POPS   C2B 1356   1.871   7.910   8.924 -0.2157  0.2974  0.0883
  102POPS   C3B 1357   1.651   7.889   8.592  0.2563  0.4056 -0.0747
  102POPS   C4B 1358   1.627   7.646   8.220 -0.0437 -0.0714  0.2044
  103POPS   CNO 1359  10.259  11.962   9.660 -0.2238 -0.1300  0.0695
  103POPS   PO4 1360  10.040  12.039   9.954  0.0954  0.2525  0.3666
  103POPS   GL1 1361   9.765  11.755   9.597 -0.1488 -0.0710  0.0488
  103POPS   GL2 1362   9.869  11.808   9.346 -0.3165 -0.0211  0.0230
  103POPS   C1A 1363   9.465  11.541   9.617  0.0549 -0.0159  0.1749
  103POPS   D2A 1364   9.439  11.269   9.240 -0.1374  0.0033  0.0140
  103POPS   C3A 1365   9.657  11.100   8.928 -0.0106 -0.2857  0.0033
  103POPS   C4A 1366   9.942  11.215   8.544  0.1464  0.1134  0.1003
  103POPS   C1B 1367  10.120  12.042   9.050 -0.0625 -0.0333 -0.3659
  103POPS   C2B 1368  10.273  12.211   8.646  0.0932 -0.1787 -0.0929
  103POPS   C3B 1369  10.188  12.117   8.211 -0.2778 -0.3211  0.0578
  103POPS   C4B 1370   9.962  11.665   8.112 -0.1167 -0.1473  0.0611
  104POPS   CNO 1371  13.530   3.020   9.821  0.1412 -0.0894 -0.1110
  104POPS   PO4 1372  13.186   2.977   9.788  0.0582  0.0847  0.2577
  104POPS   GL1 1373  13.330   3.359   9.500 -0.1926 -0.1599  0.2571
  104POPS   GL2 1374  13.232   3.586   9.692 -0.2004 -0.0146  0.0381
  104POPS   C1A 1375  13.301   3.532   9.101  0.0486  0.0700  0.1165
  104POPS   D2A 1376  13.392   3.805   8.809 -0.0315 -0.2453 -0.1203
  104POPS   C3A 1377  13.765   3.790   8.517 -0.2627  0.1096 -0.1670
  104POPS   C4A 1378  13.982   4.059   8.309  0.1518 -0.2233 -0.0213
  104POPS   C1B 1379  13.392   3.899   9.409 -0.0860  0.2349  0.0763
  104POPS   C2B 1380  13.592   4.202   9.126  0.2024 -0.1352 -0.4418
  104POPS   C3B 1381  13.658   4.416   8.747 -0.3547 -0.0131 -0.0914
  104POPS   C4B 1382  13.880   4.559   8.238  0.0446  0.0903  0.1923
  105POPS   CNO 1383  11.028  11.888  10.066 -0.2952 -0.0626 -0.1270
  105POPS   PO4 1384  10.797  11.542  10.064 -0.2291  0.3415  0.2122
  105POPS   GL1 1385  10.570  11.514   9.682 -0.2360 -0.0857 -0.1725
  105POPS   GL2 1386  10.662  11.161   9.657 -0.2239  0.0981 -0.1107
  105POPS   C1A 1387  10.390  11.670   9.277 -0.0012 -0.0004 -0.2045
  105POPS   D2A 1388   9.900  11.583   8.952  0.1920  0.0544 -0.0568
  105POPS   C3A 1389  10.029  11.707   8.606  0.0883  0.1234 -0.0061
  105POPS   C4A 1390  10.385  11.456   8.316 -0.1449 -0.0697 -0.1778
  105POPS   C1B 1391  10.748  10.876   9.342  0.3760 -0.2438 -0.1683
  105POPS   C2B 1392  10.678  10.740   8.972  0.3897 -0.1731  0.3138
  105POPS   C3B 1393  10.545  10.602   8.540 -0.4961  0.1579 -0.0455
  105POPS   C4B 1394  10.694  10.234   8.285 -0.0173 -0.1165 -0.2529
  106POPS   CNO 1395  11.584  16.094  10.000  0.0256 -0.3959  0.1975
  106POPS   PO4 1396  11.124  16.142   9.814  0.0315 -0.1139  0.0422
  106POPS   GL1 1397  10.928  16.100   9.393  0.0989  0.0850 -0.1123
  106POPS   GL2 1398  11.248  16.142   9.306  0.7471  0.0244  0.0199
  106POPS   C1A 1399  10.690  16.163   9.126 -0.0981 -0.0550 -0.1178
  106POPS   D2A 1400  10.705  16.201   8.617  0.1094  0.0692  0.1804
  106POPS   C3A 1401  10.816  15.937   8.242 -0.1352 -0.2002  0.1714
  106POPS   C4A 1402  10.843  15.860   7.865 -0.3514  0.0848  0.1475
  106POPS   C1B 1403  11.114  16.149   8.893  0.0047  0.1864 -0.3572
  106POPS   C2B 1404  11.217  16.182   8.529  0.2100  0.0757 -0.0891
  106POPS   C3B 1405  11.295  15.993   8.199  0.2205 -0.0714  0.1821
  106POPS   C4B 1406  11.365  15.787   7.868 -0.0023 -0.1521 -0.0579
  107POPS   CNO 1407  10.818   3.642  10.153 -0.1711 -0.2611 -0.1791
  107POPS   PO4 1408  10.858   3.498   9.729 -0.3409 -0.4263 -0.0054
  107POPS   GL1 1409  11.172   3.410   9.451 -0.0622  0.0378  0.0115
  107POPS   GL2 1410  11.356   3.141   9.564 -0.0548 -0.0637 -0.0960
  107POPS   C1A 1411  11.404   3.262   9.058  0.0053  0.0386 -0.1217
  107POPS   D2A 1412  11.102   3.066   8.757 -0.0009  0.1401  0.2950
  107POPS   C3A 1413  11.148   2.943   8.383  0.2075 -0.2301  0.3503
  107POPS   C4A 1414  11.055   2.708   7.987  0.1059 -0.2101 -0.2291
  107POPS   C1B 1415  11.128   2.952   9.293  0.0543  0.0369 -0.0053
  107POPS   C2B 1416  10.847   2.580   9.084  0.1949 -0.5125  0.2474
  107POPS   C3B 1417  10.717   2.625   8.673  0.3187 -0.2537  0.2818
  107POPS   C4B 1418  10.687   2.461   8.274 -0.0014 -0.1534 -0.1306
  108POPS   CNO 1419   1.901  14.559  10.033 -0.0652  0.0054  0.1216
  108POPS   PO4 1420   1.598  14.795  10.205  0.1083  0.0761  0.1155
  108POPS   GL1 1421   1.766  15.130   9.976  0.0906  0.1627  0.0929
  108POPS   GL2 1422   1.475  15.193   9.856  0.0557 -0.2386  0.1586
  108POPS   C1A 1423   2.079  15.331   9.685  0.1140  0.2557 -0.1597
  108POPS   D2A 1424   2.189  15.567   9.288 -0.1786 -0.0800 -0.3223
  108POPS   C3A 1425   2.291  15.396   8.935  0.1142 -0.1876  0.1232
  108POPS   C4A 1426   2.318  15.592   8.510  0.0111 -0.0652 -0.0041
  108POPS   C1B 1427   1.197  15.208   9.437 -0.4832 -0.0012 -0.0566
  108POPS   C2B 1428   1.238  15.044   9.035  0.0600  0.0329  0.3719
  108POPS   C3B 1429   1.345  14.974   8.641  0.0767  0.1612  0.0996
  108POPS   C4B 1430   1.050  14.977   8.296  0.0642 -0.2227  0.1088
  109POPS   CNO 1431   7.656   3.451   9.750  0.0494 -0.0850  0.0581
  109POPS   PO4 1432   7.295   3.732   9.638 -0.1147 -0.1545 -0.3889
  109POPS   GL1 1433   7.502   3.732   9.314  0.2185  0.1287  0.2621
  109POPS   GL2 1434   7.779   3.852   9.373 -0.0748  0.1001 -0.4108
  109POPS   C1A 1435   7.370   3.694   8.960 -0.0855  0.0812  0.0756
  109POPS   D2A 1436   7.190   3.700   8.583 -0.1838 -0.0772  0.2930
  109POPS   C3A 1437   6.805   3.800   8.228 -0.2242  0.2375 -0.0667
  109POPS   C4A 1438   6.494   3.913   7.938  0.1263 -0.1674  0.1192
  109POPS   C1B 1439   7.830   3.423   9.093 -0.1403  0.2322 -0.1433
  109POPS   C2B 1440   7.750   3.122   8.774  0.1118  0.5142 -0.0961
  109POPS   C3B 1441   7.741   3.209   8.411  0.0801  0.1553  0.2924
  109POPS   C4B 1442   7.431   3.549   8.147  0.0031  0.0955 -0.0017
  110POPS   CNO 1443   9.578   7.147  10.337  0.0056  0.3070 -0.2749
  110POPS   PO4 1444   9.962   7.129  10.392  0.1153  0.0897  0.0522
  110POPS   GL1 1445  10.327   7.374  10.184  0.0088  0.0848  0.0815
  110POPS   GL2 1446  10.638   7.530  10.247 -0.2702 -0.0443  0.1424
  110POPS   C1A 1447  10.329   7.620   9.856 -0.0611 -0.3460  0.1024
  110POPS   D2A 1448  10.045   7.757   9.600 -0.1461  0.0829 -0.2053
  110POPS   C3A 1449  10.074   7.508   9.310  0.2344  0.1485 -0.1816
  110POPS   C4A 1450  10.119   7.435   8.934  0.0591  0.3996 -0.1162
  110POPS   C1B 1451  10.689   7.333   9.803 -0.1581  0.2487  0.3105
  110POPS   C2B 1452  10.591   7.424   9.268 -0.0809 -0.1824  0.0043
  110POPS   C3B 1453  10.598   7.271   8.859 -0.1722 -0.3566  0.1087
  110POPS   C4B 1454  10.380   6.973   8.620 -0.0362 -0.0880  0.0743
  111POPS   CNO 1455  12.432   9.937  10.845  0.2159  0.0832  0.2333
  111POPS   PO4 1456  12.174   9.769  10.622 -0.1159  0.2883  0.1780
  111POPS   GL1 1457  11.910   9.834  10.260 -0.1021 -0.2890 -0.0122
  111POPS   GL2 1458  12.122  10.017   9.973  0.2356  0.3020 -0.1882
  111POPS   C1A 1459  11.924   9.615   9.797 -0.2648 -0.0032  0.0678
  111POPS   D2A 1460  12.049   9.495   9.391  0.2687 -0.1889  0.0231
  111POPS   C3A 1461  11.826   9.254   9.163 -0.2379 -0.1763 -0.1548
  111POPS   C4A 1462  11.649   9.181   8.797  0.2487 -0.1721  0.1384
  111POPS   C1B 1463  12.473   9.798   9.776  0.3545 -0.1519  0.3243
  111POPS   C2B 1464  12.543   9.611   9.305 -0.1007 -0.1829  0.1330
  111POPS   C3B 1465  12.389   9.764   8.814 -0.3116  0.0080 -0.0563
  111POPS   C4B 1466  12.410  10.154   8.565 -0.1408  0.0499  0.0012
  112POPS   CNO 1467  15.998  15.540   9.773 -0.1834 -0.0738 -0.1380
  112POPS   PO4 1468  16.269  15.282  10.041 -0.0364 -0.1080 -0.1453
  112POPS   GL1 1469  16.469  15.101   9.625  0.1518  0.2639  0.1769
  112POPS   GL2 1470  16.813  15.139   9.584  0.0677  0.0821 -0.2126
  112POPS   C1A 1471  16.230  15.240   9.183 -0.0576 -0.3319  0.0143
  112POPS   D2A 1472  16.370  15.231   8.798  0.2327 -0.1287  0.3426
  112POPS   C3A 1473  16.506  15.366   8.401  0.2318 -0.1027 -0.0808
  112POPS   C4A 1474  16.383  15.240   7.915 -0.1246  0.4005  0.3118
  112POPS   C1B 1475  16.781  15.271   9.162 -0.0107  0.0083 -0.0095
  112POPS   C2B 1476  16.886  15.275   8.792  0.5054  0.2041  0.0352
  112POPS   C3B 1477  17.002  15.276   8.396  0.1348 -0.0811  0.0841
  112POPS   C4B 1478  17.027  15.122   7.958 -0.0989 -0.1743  0.1321
  113POPS   CNO 1479  17.204  12.253  10.212  0.0185  0.2127  0.1432
  113POPS   PO4 1480  17.297  12.713  10.222 -0.0883 -0.1087 -0.2222
  113POPS   GL1 1481  17.070  12.607   9.909 -0.0932 -0.1387  0.1610
  113POPS   GL2 1482  16.781  12.617   9.804 -0.2516  0.0306  0.0481
  113POPS   C1A 1483  17.209  12.586   9.552 -0.0650  0.2468 -0.0621
  113POPS   D2A 1484  17.372  12.732   9.190 -0.3234  0.1207  0.0677
  113POPS   C3A 1485  17.720  12.932   9.379  0.0486 -0.0446 -0.0443
  113POPS   C4A 1486  17.840  13.406   9.457  0.0854 -0.0941  0.1279
  113POPS   C1B 1487  16.722  12.500   9.399  0.1412  0.1322  0.0095
  113POPS   C2B 1488  16.714  12.418   8.956  0.1250 -0.1998 -0.1109
  113POPS   C3B 1489  16.886  12.287   8.602 -0.1494 -0.0053 -0.1004
  113POPS   C4B 1490  16.964  12.451   8.204  0.1184  0.3479  0.0097
  114POPS   CNO 1491   6.118   2.605  10.078 -0.1521 -0.3906  0.1797
  114POPS   PO4 1492   5.723   2.810   9.925 -0.1222  0.2061  0.0603
  114POPS   GL1 1493   5.662   2.556   9.543 -0.0411 -0.0155 -0.0678
  114POPS   GL2 1494   5.409   2.476   9.579  0.4723  0.4185  0.0064
  114POPS   C1A 1495   5.622   2.295   9.174 -0.2600 -0.2979 -0.2349
  114POPS   D2A 1496   5.553   2.185   8.707  0.2810  0.0015  0.1613
  114POPS   C3A 1497   5.128   2.033   8.374  0.0476 -0.2911 -0.0075
  114POPS   C4A 1498   4.976   2.362   8.004  0.2518  0.0846  0.0914
  114POPS   C1B 1499   5.100   2.558   9.317 -0.1096  0.1491  0.1761
  114POPS   C2B 1500   4.915   2.831   8.980  0.1969  0.1840  0.0191
  114POPS   C3B 1501   4.601   2.892   8.587 -0.3950  0.2504 -0.0061
  114POPS   C4B 1502   4.245   2.967   8.563 -0.2096  0.0211 -0.0476
  115POPS   CNO 1503  10.677  10.056  10.773  0.3849  0.2936 -0.1213
  115POPS   PO4 1504  10.630   9.955  10.310 -0.1728 -0.4274  0.0200
  115POPS   GL1 1505  10.569   9.997   9.891 -0.0630 -0.1888  0.0831
  115POPS   GL2 1506  10.241   9.996   9.626 -0.0400 -0.2125 -0.0496
  115POPS   C1A 1507  10.799   9.869   9.538 -0.2202 -0.1735  0.0298
  115POPS   D2A 1508  10.650   9.698   9.123  0.1143  0.0860  0.0345
  115POPS   C3A 1509  10.439   9.459   8.739 -0.2204 -0.2339  0.0757
  115POPS   C4A 1510  10.745   9.267   8.295  0.1487  0.3599  0.1630
  115POPS   C1B 1511  10.153   9.886   9.343 -0.0728 -0.2024 -0.0862
  115POPS   C2B 1512  10.116   9.843   8.918 -0.0219 -0.0953 -0.0550
  115POPS   C3B 1513  10.050   9.661   8.494  0.0724 -0.2728 -0.2106
  115POPS   C4B 1514   9.706   9.422   8.247 -0.2608  0.1571 -0.2362
  116POPS   CNO 1515   2.836   5.499  10.345  0.2752  0.0389  0.0450
  116POPS   PO4 1516   2.487   5.832  10.372 -0.2878 -0.0657  0.2445
  116POPS   GL1 1517   2.432   5.812  10.038  0.0400  0.1057 -0.0824
  116POPS   GL2 1518   2.716   5.869   9.857  0.0612  0.1025 -0.2292
  116POPS   C1A 1519   2.219   5.964   9.669 -0.0594 -0.1331 -0.0130
  116POPS   D2A 1520   1.941   5.792   9.487 -0.1850 -0.2453  0.0379
  116POPS   C3A 1521   1.787   5.943   9.124 -0.0820  0.0996 -0.0693
  116POPS   C4A 1522   1.493   5.738   8.821  0.1229 -0.0372  0.0461
  116POPS   C1B 1523   2.715   5.929   9.405 -0.0237  0.0003 -0.1368
  116POPS   C2B 1524   2.740   5.962   8.903 -0.0267  0.0800  0.1280
  116POPS   C3B 1525   2.346   5.868   8.671 -0.2369 -0.1369  0.2596
  116POPS   C4B 1526   2.345   5.756   8.202  0.2077  0.1457 -0.0018
  117POPS   CNO 1527  15.884   5.667  10.346  0.0626  0.1393  0.0607
  117POPS   PO4 1528  16.282   6.015  10.277  0.1881 -0.0912 -0.1935
  117POPS   GL1 1529  16.373   5.970   9.944  0.0852  0.1405 -0.3577
  117POPS   GL2 1530  16.594   5.656  10.102  0.1248 -0.1591 -0.0917
  117POPS   C1A 1531  16.334   6.097   9.580  0.0140  0.1161 -0.2715
  117POPS   D2A 1532  16.372   6.164   9.190  0.1662  0.1459 -0.0472
  117POPS   C3A 1533  16.756   6.449   8.971 -0.0265 -0.1054  0.1540
  117POPS   C4A 1534  17.050   6.358   8.734  0.0619 -0.1170  0.1475
  117POPS   C1B 1535  16.654   5.732   9.659  0.0126 -0.0584 -0.0544
  117POPS   C2B 1536  16.495   5.677   9.335 -0.0957  0.5264  0.0262
  117POPS   C3B 1537  16.375   5.714   8.817  0.1681 -0.3438  0.1362
  117POPS   C4B 1538  16.279   5.682   8.460  0.0061  0.0349 -0.0110
  118POPS   CNO 1539   8.670  12.577   9.981 -0.1221 -0.0262  0.2848
  118POPS   PO4 1540   8.709  12.163  10.031 -0.1428  0.1311 -0.0028
  118POPS   GL1 1541   8.729  12.119   9.599 -0.0481 -0.0779  0.1407
  118POPS   GL2 1542   8.829  11.889   9.417  0.0779  0.1844 -0.0756
  118POPS   C1A 1543   8.983  12.345   9.238 -0.2010  0.0341  0.0165
  118POPS   D2A 1544   9.159  12.292   8.811  0.0883 -0.0260 -0.1264
  118POPS   C3A 1545   9.184  12.071   8.512 -0.1356  0.0951 -0.3870
  118POPS   C4A 1546   9.128  11.696   8.275 -0.3877 -0.3141 -0.1045
  118POPS   C1B 1547   8.888  11.940   8.993  0.1836 -0.0066 -0.1077
  118POPS   C2B 1548   8.698  11.831   8.573 -0.2424  0.2227 -0.0885
  118POPS   C3B 1549   8.357  12.032   8.247 -0.0002 -0.0374 -0.1521
  118POPS   C4B 1550   8.163  11.816   7.981  0.0839 -0.0409  0.2251
  119POPS   CNO 1551  10.689   1.202  10.147  0.4992 -0.1938 -0.0879
  119POPS   PO4 1552  10.668   1.303   9.763 -0.1728  0.0464 -0.0210
  119POPS   GL1 1553  10.841   1.283   9.321  0.2236  0.1515  0.1620
  119POPS   GL2 1554  11.111   1.543   9.330  0.1413  0.1706 -0.1179
  119POPS   C1A 1555  11.244   1.305   8.906 -0.1659  0.2162  0.1295
  119POPS   D2A 1556  11.257   1.214   8.459 -0.3050 -0.3070 -0.0659
  119POPS   C3A 1557  11.371   0.822   8.262  0.0344  0.1720  0.2185
  119POPS   C4A 1558  11.537   0.482   7.931 -0.0995 -0.1290 -0.0031
  119POPS   C1B 1559  11.602   1.403   9.227  0.0984 -0.0853 -0.3050
  119POPS   C2B 1560  11.921   1.241   9.123  0.2754 -0.0227  0.2899
  119POPS   C3B 1561  12.132   1.120   8.817 -0.0021  0.0081  0.1088
  119POPS   C4B 1562  12.437   0.626   8.638 -0.1352 -0.1536 -0.4075
  120POPS   CNO 1563  10.593   8.558  10.638  0.1973  0.1224  0.0195
  120POPS   PO4 1564  10.830   8.601  10.279  0.1076 -0.2821  0.2149
  120POPS   GL1 1565  11.056   8.665   9.878 -0.1894  0.0105 -0.1054
  120POPS   GL2 1566  11.169   8.944   9.922  0.2603  0.0079 -0.3574
  120POPS   C1A 1567  11.248   8.436   9.556  0.1928  0.2401  0.1726
  120POPS   D2A 1568  11.395   8.376   9.122 -0.4512  0.0535 -0.1689
  120POPS   C3A 1569  11.522   8.683   8.907  0.1597 -0.1678 -0.0538
  120POPS   C4A 1570  11.412   8.844   8.420 -0.0818 -0.2778 -0.0898
  120POPS   C1B 1571  10.957   9.198   9.530 -0.4300 -0.1546  0.1822
  120POPS   C2B 1572  10.870   9.279   9.141  0.1011 -0.1344 -0.1692
  120POPS   C3B 1573  10.955   9.574   8.785 -0.1539  0.0730 -0.2836
  120POPS   C4B 1574  11.103   9.779   8.297  0.2314 -0.1115 -0.0432
  121POPS   CNO 1575   9.449   9.055  10.690 -0.1763  0.0768 -0.1661
  121POPS   PO4 1576   9.175   9.200  10.214 -0.1510  0.1230  0.0990
  121POPS   GL1 1577   9.036   8.952   9.876  0.3663  0.1683 -0.0293
  121POPS   GL2 1578   8.826   9.012   9.804 -0.0244 -0.2284 -0.2016
  121POPS   C1A 1579   9.433   8.758   9.696 -0.1605 -0.0373  0.0443
  121POPS   D2A 1580   9.711   8.576   9.456  0.0668  0.1710 -0.0650
  121POPS   C3A 1581   9.674   8.139   9.653  0.2831  0.2038  0.1422
  121POPS   C4A 1582   9.743   7.912  10.062  0.1255 -0.2211  0.1035
  121POPS   C1B 1583   9.075   9.070   9.412 -0.0278  0.1125 -0.1222
  121POPS   C2B 1584   9.086   9.073   8.950 -0.1385 -0.0639 -0.0847
  121POPS   C3B 1585   8.858   9.353   8.592  0.0181 -0.1150  0.1645
  121POPS   C4B 1586   8.653   9.564   8.196  0.0976  0.1520 -0.0378
  122POPS   CNO 1587  15.299   1.470  10.360  0.1964 -0.0522 -0.1204
  122POPS   PO4 1588  15.117   1.145  10.244 -0.1245  0.1559 -0.0699
  122POPS   GL1 1589  15.244   0.937   9.939  0.1207  0.2887  0.1770
  122POPS   GL2 1590  14.908   0.801   9.727 -0.0472 -0.0270 -0.0900
  122POPS   C1A 1591  15.588   1.036   9.629  0.1356  0.1422 -0.2662
  122POPS   D2A 1592  15.724   0.672   9.349  0.0037 -0.3921 -0.1920
  122POPS   C3A 1593  15.725   0.253   9.669  0.0441 -0.2545 -0.1577
  122POPS   C4A 1594  15.826  -0.155   9.438  0.2298  0.2335 -0.0722
  122POPS   C1B 1595  15.130   0.496   9.440 -0.0326 -0.0343 -0.6075
  122POPS   C2B 1596  15.449   0.224   9.158 -0.1586  0.1937 -0.0466
  122POPS   C3B 1597  15.518   0.144   8.714  0.1083  0.2683 -0.2717
  122POPS   C4B 1598  15.693   0.025   8.371 -0.1214  0.2198  0.3594
  123POPS   CNO 1599  17.342  14.977  10.363 -0.3556 -0.1693  0.0941
  123POPS   PO4 1600  17.632  14.719  10.155  0.0326  0.0768  0.1201
  123POPS   GL1 1601  17.675  14.913   9.777 -0.0861 -0.1805 -0.3927
  123POPS   GL2 1602  17.540  14.691   9.598 -0.0586  0.1277 -0.3833
  123POPS   C1A 1603  17.766  15.074   9.357 -0.1745 -0.0677 -0.1359
  123POPS   D2A 1604  17.882  15.096   8.949 -0.0075  0.0454 -0.1084
  123POPS   C3A 1605  17.674  15.187   8.623 -0.1314 -0.0735  0.2272
  123POPS   C4A 1606  17.486  15.217   8.228 -0.1275  0.0665  0.0016
  123POPS   C1B 1607  17.673  14.635   9.198  0.0606  0.2618 -0.0609
  123POPS   C2B 1608  17.633  14.624   8.761  0.0259  0.1701  0.0151
  123POPS   C3B 1609  17.699  14.735   8.383  0.2443  0.2282 -0.1589
  123POPS   C4B 1610  18.042  14.748   8.026  0.3061  0.0426  0.0342
  124POPS   CNO 1611   3.791   0.950  10.830  0.0436 -0.0464  0.3050
  124POPS   PO4 1612   3.807   1.132  10.362  0.2420 -0.2688  0.1284
  124POPS   GL1 1613   3.537   1.028   9.993 -0.0559 -0.4369 -0.1358
  124POPS   GL2 1614   3.415   0.645   9.977 -0.0260 -0.1402  0.0693
  124POPS   C1A 1615   3.599   1.264   9.657 -0.2867 -0.2880  0.1583
  124POPS   D2A 1616   3.650   1.699   9.680  0.1876 -0.1341  0.0315
  124POPS   C3A 1617   3.837   1.913   9.480  0.3272 -0.3494  0.1781
  124POPS   C4A 1618   3.704   2.029   9.167 -0.1044 -0.0105 -0.0402
  124POPS   C1B 1619   3.594   0.609   9.614 -0.2964 -0.1756 -0.2132
  124POPS   C2B 1620   3.531   0.585   9.213 -0.0098 -0.2988 -0.4344
  124POPS   C3B 1621   3.308   0.424   8.800  0.1288 -0.0190  0.1649
  124POPS   C4B 1622   3.418   0.153   8.445 -0.0077  0.0900  0.2649
  125POPS   CNO 1623  10.353  14.264  10.184 -0.0346  0.2236 -0.0902
  125POPS   PO4 1624  10.568  13.968  10.017  0.1650 -0.0731  0.1168
  125POPS   GL1 1625  10.620  13.860   9.547  0.3342 -0.1095 -0.0318
  125POPS   GL2 1626  10.284  13.697   9.454  0.2313  0.0969  0.1068
  125POPS   C1A 1627  10.466  14.128   9.292  0.0928  0.0450  0.3124
  125POPS   D2A 1628  10.396  14.212   8.842  0.2336 -0.3079  0.0771
  125POPS   C3A 1629  10.738  14.111   8.776 -0.0602 -0.4180  0.5496
  125POPS   C4A 1630  10.883  13.966   8.448  0.2439  0.1181  0.1077
  125POPS   C1B 1631  10.493  13.660   9.031 -0.0444 -0.2838  0.1237
  125POPS   C2B 1632  10.558  13.638   8.602 -0.1264 -0.1396  0.3927
  125POPS   C3B 1633  10.971  13.500   8.398 -0.2266 -0.1800  0.1652
  125POPS   C4B 1634  11.182  13.243   8.149 -0.0276  0.0767 -0.1884
  126POPS   CNO 1635   6.904  14.780   9.846 -0.0701 -0.0363 -0.3502
  126POPS   PO4 1636   6.465  14.671   9.954  0.2174  0.0884  0.0539
  126POPS   GL1 1637   6.458  14.870   9.683  0.1747  0.1872  0.3119
  126POPS   GL2 1638   6.729  14.740   9.394 -0.0258 -0.0857  0.0058
  126POPS   C1A 1639   6.255  14.819   9.299 -0.0997  0.2374 -0.1022
  126POPS   D2A 1640   6.045  14.805   8.925  0.1653  0.0538  0.0846
  126POPS   C3A 1641   6.232  14.560   8.559  0.0283  0.1251 -0.2215
  126POPS   C4A 1642   6.053  14.540   8.139  0.4231  0.0294 -0.2352
  126POPS   C1B 1643   6.914  14.874   8.983  0.1067 -0.2348  0.0095
  126POPS   C2B 1644   6.992  14.999   8.569  0.1439 -0.2210 -0.1390
  126POPS   C3B 1645   7.030  14.864   8.120 -0.5801 -0.2751  0.0698
  126POPS   C4B 1646   6.808  14.926   7.751  0.0919 -0.0538 -0.1989
  127POPS   CNO 1647   2.247   3.646  10.292  0.0507  0.0291 -0.0141
  127POPS   PO4 1648   1.821   3.582  10.185 -0.2201  0.0973  0.2116
  127POPS   GL1 1649   2.029   3.705   9.750 -0.0158 -0.0633 -0.0943
  127POPS   GL2 1650   2.050   3.986   9.899  0.0106  0.1040  0.2777
  127POPS   C1A 1651   1.945   3.642   9.269 -0.2676 -0.0482 -0.0790
  127POPS   D2A 1652   1.704   3.504   8.909 -0.0178 -0.0372 -0.0240
  127POPS   C3A 1653   1.353   3.547   8.636 -0.1873  0.1020  0.2326
  127POPS   C4A 1654   0.946   3.416   8.511 -0.1610  0.2163  0.1966
  127POPS   C1B 1655   2.090   4.102   9.392  0.0755  0.2647  0.0060
  127POPS   C2B 1656   1.925   4.257   9.087 -0.3280  0.1800 -0.0911
  127POPS   C3B 1657   2.125   4.329   8.675  0.0623 -0.0274 -0.1317
  127POPS   C4B 1658   2.395   4.137   8.407  0.2825 -0.0677 -0.1627
  128POPS   CNO 1659  18.213   8.446  10.378  0.0223  0.2063 -0.0573
  128POPS   PO4 1660  18.468   8.806  10.450  0.1149  0.1258  0.0205
  128POPS   GL1 1661  18.624   8.518  10.121 -0.3660 -0.2738 -0.4168
  128POPS   GL2 1662  18.682   8.840   9.926 -0.0366 -0.3483 -0.0026
  128POPS   C1A 1663  18.512   8.322   9.729 -0.1542  0.0816 -0.1635
  128POPS   D2A 1664  18.322   8.233   9.370  0.0208 -0.1494  0.2095
  128POPS   C3A 1665  18.308   8.478   9.021  0.0083 -0.2019  0.1018
  128POPS   C4A 1666  18.360   8.693   8.640  0.0332 -0.0878  0.0657
  128POPS   C1B 1667  18.498   8.875   9.493  0.0429 -0.0094 -0.0219
  128POPS   C2B 1668  18.360   8.986   9.092  0.1046 -0.0954  0.1190
  128POPS   C3B 1669  17.876   8.896   8.860 -0.1821  0.4749 -0.2386
  128POPS   C4B 1670  17.820   9.142   8.500 -0.1556  0.0761  0.0481
  129POPS   CNO 1671   0.505  12.288  10.075  0.0546  0.0820  0.5337
  129POPS   PO4 1672   0.683  11.825  10.155  0.0362 -0.0110  0.1144
  129POPS   GL1 1673   0.923  12.068   9.852 -0.1617  0.0424 -0.3439
  129POPS   GL2 1674   0.581  11.956   9.650 -0.3343  0.0192 -0.2365
  129POPS   C1A 1675   1.146  12.165   9.487 -0.3888 -0.3746  0.1664
  129POPS   D2A 1676   1.449  11.996   9.314  0.2258 -0.1699  0.0154
  129POPS   C3A 1677   1.697  11.911   8.891 -0.1082 -0.5461  0.3332
  129POPS   C4A 1678   1.551  11.827   8.501 -0.3764  0.1681  0.1264
  129POPS   C1B 1679   0.304  12.093   9.360  0.1224 -0.0060  0.0842
  129POPS   C2B 1680   0.235  12.104   8.930  0.0634 -0.2305 -0.2049
  129POPS   C3B 1681   0.148  12.006   8.604  0.0539 -0.4098 -0.0302
  129POPS   C4B 1682   0.329  12.054   8.161  0.0734  0.4228 -0.3217
  130POPS   CNO 1683   7.201   1.120  10.076  0.1059 -0.0317 -0.2581
  130POPS   PO4 1684   7.422   1.346   9.802  0.0012  0.1757 -0.1194
  130POPS   GL1 1685   7.674   1.089   9.545  0.0215  0.1270  0.2636
  130POPS   GL2 1686   7.986   1.285   9.450 -0.2712 -0.1067 -0.1516
  130POPS   C1A 1687   7.534   0.891   9.075 -0.0010 -0.1679 -0.0757
  130POPS   D2A 1688   7.622   0.755   8.643  0.1456 -0.1039  0.0453
  130POPS   C3A 1689   7.555   0.303   8.549 -0.2564  0.0627 -0.0850
  130POPS   C4A 1690   7.601  -0.087   8.322  0.0044 -0.0243 -0.1674
  130POPS   C1B 1691   7.711   1.361   9.068  0.1447 -0.4379 -0.0528
  130POPS   C2B 1692   7.447   1.342   8.769  0.1112 -0.0313  0.3357
  130POPS   C3B 1693   7.387   1.506   8.329 -0.1633 -0.1622 -0.0160
  130POPS   C4B 1694   7.301   1.424   7.944 -0.3300  0.0178  0.2632
  131POPS   CNO 1695  15.895  16.713  10.537 -0.0569 -0.3033 -0.3030
  131POPS   PO4 1696  15.808  16.811  10.144 -0.0317 -0.3320  0.1309
  131POPS   GL1 1697  15.706  16.782   9.669 -0.0115  0.2187  0.1449
  131POPS   GL2 1698  15.950  16.512   9.606 -0.0796  0.0232  0.0174
  131POPS   C1A 1699  15.719  16.939   9.252  0.0814 -0.0661 -0.0802
  131POPS   D2A 1700  15.853  17.109   8.918  0.2412  0.0645 -0.0437
  131POPS   C3A 1701  15.689  16.955   8.555  0.2478 -0.1368  0.1549
  131POPS   C4A 1702  15.607  17.022   8.127 -0.0115 -0.2183 -0.0070
  131POPS   C1B 1703  16.107  16.644   9.161 -0.1127 -0.2694 -0.2083
  131POPS   C2B 1704  16.157  16.605   8.772  0.2538  0.2874 -0.0847
  131POPS   C3B 1705  16.130  16.759   8.416 -0.0139 -0.0785  0.2802
  131POPS   C4B 1706  16.140  17.180   8.465 -0.0376  0.4881  0.1286
  132POPS   CNO 1707  17.810   2.808  11.188 -0.0350 -0.1108 -0.0968
  132POPS   PO4 1708  17.682   2.797  10.809 -0.2057  0.0299  0.1094
  132POPS   GL1 1709  17.508   2.872  10.379 -0.0149  0.0221 -0.0657
  132POPS   GL2 1710  17.198   3.038  10.149 -0.1013 -0.0899 -0.0591
  132POPS   C1A 1711  17.629   2.957   9.976 -0.1073  0.2771  0.0084
  132POPS   D2A 1712  17.657   2.723   9.597  0.2142 -0.0332  0.0986
  132POPS   C3A 1713  18.032   2.632   9.370 -0.0119  0.4334  0.1097
  132POPS   C4A 1714  18.169   2.545   8.936  0.1298  0.2751  0.2188
  132POPS   C1B 1715  17.203   2.929   9.690 -0.1309 -0.0589 -0.0656
  132POPS   C2B 1716  17.300   2.848   9.253  0.4020 -0.1561  0.2232
  132POPS   C3B 1717  17.184   2.695   8.799 -0.0058  0.1009 -0.2094
  132POPS   C4B 1718  17.312   2.488   8.433  0.1020 -0.1242  0.0096
  133POPS   CNO 1719   1.880  17.550  10.723 -0.0705 -0.0712 -0.0352
  133POPS   PO4 1720   2.189  17.657  10.563  0.1468 -0.1090 -0.0108
  133POPS   GL1 1721   2.371  17.599  10.089 -0.3024 -0.1826 -0.0947
  133POPS   GL2 1722   2.158  17.837  10.034  0.0142 -0.0007 -0.0291
  133POPS   C1A 1723   2.522  17.650   9.699  0.2317  0.4590 -0.0317
  133POPS   D2A 1724   2.672  17.874   9.460  0.0006  0.3662 -0.1023
  133POPS   C3A 1725   2.495  17.988   9.214  0.2310  0.1183  0.3426
  133POPS   C4A 1726   2.226  18.078   8.910  0.1973 -0.1045  0.0046
  133POPS   C1B 1727   1.771  17.793   9.786  0.1130  0.0387 -0.2876
  133POPS   C2B 1728   1.507  17.704   9.441  0.2232 -0.0221 -0.2145
  133POPS   C3B 1729   1.139  17.501   9.263 -0.0776 -0.3419 -0.0477
  133POPS   C4B 1730   0.914  17.464   8.873 -0.2235 -0.2451  0.0089
  134POPS   CNO 1731   9.594  16.113   9.955  0.0232 -0.1730 -0.1165
  134POPS   PO4 1732  10.082  16.101   9.921 -0.0812  0.0983  0.1219
  134POPS   GL1 1733  10.137  16.377   9.536 -0.0884 -0.0042 -0.2746
  134POPS   GL2 1734  10.089  16.682   9.530  0.3212 -0.1613  0.1392
  134POPS   C1A 1735  10.294  16.504   9.082 -0.2474  0.1317  0.1884
  134POPS   D2A 1736  10.249  16.449   8.622  0.0651 -0.1030  0.2319
  134POPS   C3A 1737  10.109  16.732   8.260  0.1824 -0.1764  0.4878
  134POPS   C4A 1738  10.353  17.019   7.961  0.0924 -0.0060 -0.1040
  134POPS   C1B 1739   9.880  16.765   9.134  0.1115  0.2798 -0.4521
  134POPS   C2B 1740   9.853  16.865   8.733 -0.0870 -0.1085 -0.0997
  134POPS   C3B 1741   9.777  17.049   8.357  0.1250 -0.0079  0.0086
  134POPS   C4B 1742   9.851  17.182   7.967  0.0404 -0.0243  0.1306
  135POPS   CNO 1743  16.904   6.779  10.245  0.1452  0.0239  0.2241
  135POPS   PO4 1744  16.962   7.137  10.497 -0.0377 -0.0774 -0.1606
  135POPS   GL1 1745  17.171   7.162  10.127 -0.0725  0.3811  0.0223
  135POPS   GL2 1746  17.436   6.946  10.177 -0.3970 -0.0981 -0.4390
  135POPS   C1A 1747  17.258   7.542   9.845 -0.2027 -0.3154  0.1520
  135POPS   D2A 1748  17.154   7.519   9.445  0.0669 -0.2427 -0.0839
  135POPS   C3A 1749  17.056   7.892   9.174  0.1456 -0.2578  0.3110
  135POPS   C4A 1750  17.253   8.253   8.966  0.4360 -0.0926  0.2110
  135POPS   C1B 1751  17.392   7.070   9.688 -0.2133  0.0438 -0.1418
  135POPS   C2B 1752  17.351   7.114   9.260 -0.3390 -0.0669  0.1580
  135POPS   C3B 1753  17.258   7.416   8.952 -0.0462 -0.0917  0.3250
  135POPS   C4B 1754  17.630   7.479   8.588  0.2638  0.0812 -0.0866
  136POPS   CNO 1755   4.909  11.899   9.796  0.0624 -0.2198 -0.0247
  136POPS   PO4 1756   4.887  11.393   9.813  0.1473  0.1240  0.1175
  136POPS   GL1 1757   4.686  11.432   9.462  0.0824 -0.0719 -0.1984
  136POPS   GL2 1758   4.551  11.675   9.629  0.3035  0.0660 -0.0482
  136POPS   C1A 1759   4.834  11.658   9.028  0.2455 -0.0800 -0.0996
  136POPS   D2A 1760   4.815  11.695   8.669  0.1997 -0.1234  0.0841
  136POPS   C3A 1761   4.600  11.663   8.255  0.2689  0.1773 -0.1427
  136POPS   C4A 1762   4.690  11.669   7.870 -0.1139  0.1961 -0.2905
  136POPS   C1B 1763   4.540  12.010   9.356  0.0972 -0.2546  0.2240
  136POPS   C2B 1764   4.500  12.033   8.914  0.0691  0.0324  0.0424
  136POPS   C3B 1765   4.600  12.099   8.467  0.0180  0.3550  0.2457
  136POPS   C4B 1766   4.833  12.105   8.041  0.1333 -0.2789  0.1979
  137POPS   CNO 1767   4.390   5.758  10.697 -0.0762 -0.1722 -0.0919
  137POPS   PO4 1768   4.080   5.781  10.295 -0.1061  0.1763 -0.1030
  137POPS   GL1 1769   3.724   5.655   9.936  0.1065  0.2057 -0.2347
  137POPS   GL2 1770   3.628   5.297   9.893 -0.2337 -0.0730 -0.1931
  137POPS   C1A 1771   3.695   5.575   9.476  0.1197 -0.1893  0.0074
  137POPS   D2A 1772   3.675   5.655   9.033 -0.0610  0.3607 -0.1479
  137POPS   C3A 1773   3.608   5.390   8.672 -0.2097  0.3276 -0.0016
  137POPS   C4A 1774   3.929   5.332   8.357 -0.0022  0.0567 -0.2143
  137POPS   C1B 1775   3.376   5.105   9.601  0.0654 -0.2665 -0.0856
  137POPS   C2B 1776   3.280   5.347   9.193 -0.0155 -0.2588  0.2655
  137POPS   C3B 1777   3.106   5.423   8.745  0.0463  0.2618  0.0319
  137POPS   C4B 1778   3.101   5.393   8.363 -0.1691 -0.0835 -0.0244
  138YOPS   CNO 1779  10.102  10.757  10.357  0.1442 -0.2541  0.0248
  138YOPS   PO4 1780  10.229  10.841   9.815  0.0114 -0.0654  0.1384
  138YOPS   GL1 1781  10.054  10.732   9.405  0.0398 -0.0676  0.0165
  138YOPS   GL2 1782   9.786  10.768   9.229  0.1046  0.3993 -0.2456
  138YOPS   C1A 1783  10.016  10.323   9.183 -0.2419 -0.1634  0.1272
  138YOPS   D2A 1784  10.057  10.294   8.711  0.1039  0.1510  0.2362
  138YOPS   C3A 1785   9.734  10.342   8.368  0.2085  0.0325  0.1345
  138YOPS   C4A 1786   9.579  10.671   8.428 -0.2147 -0.0348  0.1978
  138YOPS   C1B 1787  10.150  10.753   8.835  0.1458  0.1924 -0.0413
  138YOPS   C2B 1788  10.073  10.705   8.370  0.0024  0.0181  0.2670
  138YOPS   D3B 1789  10.258  10.472   8.130 -0.2142  0.1587 -0.0283
  138YOPS   C4B 1790  10.052  10.034   8.181 -0.0024 -0.1122 -0.0542
  139YOPS   CNO 1791   4.486  12.855   9.996  0.2141 -0.0563  0.2713
  139YOPS   PO4 1792   4.872  12.944   9.848 -0.1574  0.2654 -0.1798
  139YOPS   GL1 1793   4.985  13.268   9.472  0.1199  0.2191  0.3328
  139YOPS   GL2 1794   5.299  13.557   9.375 -0.1407 -0.3462 -0.1053
  139YOPS   C1A 1795   4.776  13.427   9.123 -0.1863  0.0540  0.1226
  139YOPS   D2A 1796   4.658  13.511   8.672 -0.1495  0.0707 -0.3053
  139YOPS   C3A 1797   4.364  13.488   8.434 -0.0676 -0.0922 -0.1897
  139YOPS   C4A 1798   4.333  13.391   8.012  0.0050 -0.1978  0.1339
  139YOPS   C1B 1799   5.282  13.417   9.007 -0.0015 -0.0682 -0.2462
  139YOPS   C2B 1800   5.322  13.304   8.619 -0.0682 -0.0616 -0.2005
  139YOPS   D3B 1801   5.701  13.308   8.481  0.2240  0.0529 -0.0697
  139YOPS   C4B 1802   5.822  13.251   8.029  0.0423 -0.2227 -0.5005
  140YOPS   CNO 1803   5.516  16.518  10.418  0.2081  0.4602  0.2565
  140YOPS   PO4 1804   5.302  16.907  10.437 -0.0114 -0.4356  0.1700
  140YOPS   GL1 1805   4.960  16.653  10.193  0.1589 -0.2536  0.2112
  140YOPS   GL2 1806   4.634  16.862  10.087  0.0821  0.1782 -0.0197
  140YOPS   C1A 1807   4.861  16.623   9.772  0.0757 -0.0397 -0.0498
  140YOPS   D2A 1808   4.662  16.463   9.316  0.0644  0.2297  0.1826
  140YOPS   C3A 1809   4.750  16.105   9.035  0.1489 -0.1754 -0.0525
  140YOPS   C4A 1810   5.084  15.933   8.730  0.1202 -0.0732 -0.1492
  140YOPS   C1B 1811   4.638  17.153   9.665  0.1185 -0.3555  0.0172
  140YOPS   C2B 1812   4.766  17.134   9.281 -0.1125 -0.1277 -0.3018
  140YOPS   D3B 1813   4.747  16.934   8.870  0.0458 -0.1332 -0.0769
  140YOPS   C4B 1814   4.977  17.051   8.495  0.5068 -0.4028 -0.1296
  141YOPS   CNO 1815   0.348   6.292  10.843  0.0244  0.2089  0.0638
  141YOPS   PO4 1816   0.314   6.001  10.577 -0.1053 -0.0139  0.2094
  141YOPS   GL1 1817   0.280   6.093  10.146  0.2548 -0.0190 -0.1504
  141YOPS   GL2 1818   0.001   6.078  10.081 -0.3591 -0.0937 -0.0218
  141YOPS   C1A 1819   0.414   5.931   9.727  0.1510  0.0268 -0.2373
  141YOPS   D2A 1820   0.224   6.013   9.271  0.3324  0.0369  0.0107
  141YOPS   C3A 1821   0.079   6.197   8.834  0.2087 -0.1948 -0.1984
  141YOPS   C4A 1822   0.317   6.449   8.530  0.0845  0.1723  0.1352
  141YOPS   C1B 1823   0.008   6.227   9.694  0.0149  0.1410 -0.0876
  141YOPS   C2B 1824  -0.122   6.384   9.217 -0.0667  0.0596 -0.0477
  141YOPS   D3B 1825  -0.289   6.602   8.854  0.0131 -0.1486 -0.1581
  141YOPS   C4B 1826  -0.074   6.774   8.511  0.2554  0.4148  0.1308
  142YOPS   CNO 1827   1.134   4.371  10.703 -0.2844 -0.1313 -0.0981
  142YOPS   PO4 1828   0.786   4.269  10.444  0.1380 -0.1200  0.0005
  142YOPS   GL1 1829   0.634   4.099  10.151  0.0252 -0.1141 -0.0505
  142YOPS   GL2 1830   0.963   4.170   9.961  0.0951  0.0052  0.1031
  142YOPS   C1A 1831   0.203   4.058  10.042  0.0604  0.0389  0.1096
  142YOPS   D2A 1832  -0.017   4.180   9.608 -0.1314  0.2548  0.0905
  142YOPS   C3A 1833  -0.246   4.378   9.298  0.1081 -0.3048 -0.3769
  142YOPS   C4A 1834  -0.031   4.549   9.017  0.3235  0.0623  0.1500
  142YOPS   C1B 1835   0.705   4.179   9.656  0.1498  0.1104  0.0270
  142YOPS   C2B 1836   0.616   3.900   9.182 -0.0114 -0.1585 -0.0437
  142YOPS   D3B 1837   0.575   3.549   8.860 -0.3676 -0.4669  0.0525
  142YOPS   C4B 1838   0.564   3.654   8.420  0.1089  0.2443  0.1850
  143YOPS   CNO 1839  10.956   2.980   9.791  0.2332 -0.0907  0.0409
  143YOPS   PO4 1840  10.548   2.834   9.680 -0.1266  0.2281 -0.3546
  143YOPS   GL1 1841  10.670   3.179   9.334  0.2696 -0.3131  0.0641
  143YOPS   GL2 1842  10.549   2.993   9.076  0.1605  0.0012  0.0069
  143YOPS   C1A 1843  10.924   3.410   9.032 -0.0487 -0.0717  0.3772
  143YOPS   D2A 1844  10.828   3.601   8.625  0.1534  0.0451 -0.1318
  143YOPS   C3A 1845  10.942   3.711   8.149 -0.0210  0.3043 -0.3847
  143YOPS   C4A 1846  10.809   3.913   7.932 -0.0987 -0.2040  0.0765
  143YOPS   C1B 1847  10.525   3.169   8.664  0.1206 -0.1525 -0.1220
  143YOPS   C2B 1848  10.674   3.121   8.277 -0.1143  0.2267  0.0479
  143YOPS   D3B 1849  10.571   2.818   8.010  0.0786 -0.2167  0.2137
  143YOPS   C4B 1850  10.787   2.716   7.595  0.3255  0.2869  0.0137
  144YOPS   CNO 1851   8.373  15.801   9.884 -0.1267  0.0116  0.0189
  144YOPS   PO4 1852   8.698  15.451   9.775  0.0457  0.0570 -0.1495
  144YOPS   GL1 1853   8.934  15.664   9.337  0.1204 -0.2434 -0.1459
  144YOPS   GL2 1854   8.749  15.929   9.130  0.1142 -0.2721  0.1866
  144YOPS   C1A 1855   9.202  15.657   8.935  0.0402  0.1354  0.0500
  144YOPS   D2A 1856   9.133  15.646   8.501  0.0903 -0.2784 -0.0468
  144YOPS   C3A 1857   9.099  15.524   8.126 -0.1265  0.1062  0.1155
  144YOPS   C4A 1858   8.803  15.311   7.970 -0.2973  0.0856 -0.1696
  144YOPS   C1B 1859   8.640  15.781   8.757  0.1022  0.3395 -0.1525
  144YOPS   C2B 1860   8.627  15.617   8.325  0.0364  0.2242 -0.1664
  144YOPS   D3B 1861   8.716  15.783   7.813 -0.0511 -0.1090  0.0712
  144YOPS   C4B 1862   9.142  15.788   7.606  0.0351 -0.1268 -0.0430
  145YOPS   CNO 1863   2.746  13.791   9.686 -0.0249  0.1861  0.1074
  145YOPS   PO4 1864   2.621  14.149   9.655 -0.2820 -0.3803 -0.0545
  145YOPS   GL1 1865   2.942  14.182   9.354  0.3300 -0.1519  0.0509
  145YOPS   GL2 1866   3.000  13.917   9.227 -0.0610  0.1310 -0.3516
  145YOPS   C1A 1867   2.831  14.286   8.983  0.1984  0.1977 -0.0656
  145YOPS   D2A 1868   2.771  14.230   8.499 -0.2182  0.0189 -0.2130
  145YOPS   C3A 1869   2.708  14.117   8.057  0.1089  0.2278  0.1649
  145YOPS   C4A 1870   2.757  13.725   7.968 -0.2303  0.1924  0.2151
  145YOPS   C1B 1871   3.028  13.892   8.746  0.0670 -0.1481 -0.5397
  145YOPS   C2B 1872   3.114  13.823   8.355 -0.1522 -0.0108  0.2914
  145YOPS   D3B 1873   3.279  13.903   7.905  0.2303 -0.1163 -0.1537
  145YOPS   C4B 1874   3.332  14.125   7.494  0.1001  0.0957  0.0568
  146YOPS   CNO 1875  14.528   6.996  10.561 -0.0976 -0.0965  0.1680
  146YOPS   PO4 1876  14.463   6.514  10.527 -0.1612 -0.0177 -0.0907
  146YOPS   GL1 1877  14.593   6.753  10.128  0.0582 -0.2481  0.0483
  146YOPS   GL2 1878  14.931   6.691  10.205  0.0495 -0.0345 -0.2912
  146YOPS   C1A 1879  14.460   6.826   9.704  0.0400  0.1287 -0.0108
  146YOPS   D2A 1880  14.371   6.893   9.315 -0.1115 -0.1890  0.1753
  146YOPS   C3A 1881  14.452   7.097   8.916  0.0591 -0.2318 -0.2204
  146YOPS   C4A 1882  14.499   7.148   8.476  0.0159  0.1613  0.1097
  146YOPS   C1B 1883  14.973   6.751   9.789 -0.2271 -0.1804 -0.1931
  146YOPS   C2B 1884  14.935   6.761   9.341  0.0438 -0.2577 -0.1497
  146YOPS   D3B 1885  14.882   6.871   8.909  0.0109 -0.2916 -0.1264
  146YOPS   C4B 1886  14.911   6.541   8.516 -0.1905 -0.1646  0.1784
  147YOPS   CNO 1887   3.129   4.632  10.411 -0.1383  0.0013  0.1961
  147YOPS   PO4 1888   2.766   4.561  10.193 -0.3070 -0.1067  0.2048
  147YOPS   GL1 1889   2.586   4.479   9.812  0.1411 -0.1107 -0.1809
  147YOPS   GL2 1890   2.251   4.527   9.821  0.0651  0.3302 -0.0734
  147YOPS   C1A 1891   2.568   4.427   9.347  0.1456  0.1830 -0.0883
  147YOPS   D2A 1892   2.848   4.547   8.993 -0.3413 -0.4026  0.0390
  147YOPS   C3A 1893   2.639   4.470   8.718 -0.1510 -0.0053 -0.0584
  147YOPS   C4A 1894   2.805   4.499   8.319  0.1155  0.1813  0.0871
  147YOPS   C1B 1895   1.870   4.524   9.551  0.4218  0.2244  0.0826
  147YOPS   C2B 1896   1.985   4.736   9.145  0.1706  0.1532 -0.3100
  147YOPS   D3B 1897   1.912   4.930   8.710  0.0608  0.0215  0.1213
  147YOPS   C4B 1898   2.307   4.862   8.497  0.2104  0.1220  0.2004
  148YOPS   CNO 1899   5.770  10.267  10.328 -0.0286 -0.0374  0.0432
  148YOPS   PO4 1900   5.452  10.158  10.058 -0.0458 -0.1130 -0.1726
  148YOPS   GL1 1901   5.350  10.233   9.603  0.0723 -0.0310  0.1168
  148YOPS   GL2 1902   5.512  10.431   9.365 -0.2734 -0.0450 -0.0133
  148YOPS   C1A 1903   5.140  10.292   9.150 -0.2281 -0.2390 -0.1985
  148YOPS   D2A 1904   4.755  10.153   8.848 -0.1007 -0.1769 -0.1617
  148YOPS   C3A 1905   4.525  10.179   8.498  0.2137 -0.2153  0.0058
  148YOPS   C4A 1906   4.125  10.362   8.418 -0.3120 -0.2862  0.1292
  148YOPS   C1B 1907   5.346  10.699   9.014  0.3044  0.2196 -0.1961
  148YOPS   C2B 1908   5.214  10.770   8.552  0.2004 -0.2498  0.1085
  148YOPS   D3B 1909   5.635  10.786   8.369 -0.0916  0.0073 -0.1515
  148YOPS   C4B 1910   5.613  10.891   7.885 -0.1928  0.2078  0.1719
  149YOPS   CNO 1911   4.619   0.184  10.551 -0.1043  0.0471 -0.1548
  149YOPS   PO4 1912   4.793   0.612  10.471  0.0253  0.0665 -0.0461
  149YOPS   GL1 1913   4.556   0.586  10.096 -0.1575  0.1702 -0.0726
  149YOPS   GL2 1914   4.351   0.414  10.167 -0.0295 -0.1878  0.0065
  149YOPS   C1A 1915   4.810   0.495   9.795 -0.2887  0.0040  0.1797
  149YOPS   D2A 1916   5.029   0.593   9.441  0.3804  0.2490  0.1037
  149YOPS   C3A 1917   5.187   0.852   9.068  0.0421 -0.0721  0.0015
  149YOPS   C4A 1918   5.322   1.036   8.651  0.0908 -0.0705  0.2169
  149YOPS   C1B 1919   4.445   0.153   9.765  0.0127 -0.0385  0.2505
  149YOPS   C2B 1920   4.704   0.032   9.316 -0.6005  0.0521  0.0171
  149YOPS   D3B 1921   4.851  -0.121   8.936 -0.1968  0.0831 -0.1999
  149YOPS   C4B 1922   5.005  -0.503   8.838 -0.3930  0.0092  0.4034
  150YOPS   CNO 1923  15.084   4.300  10.560 -0.1136 -0.2445 -0.1283
  150YOPS   PO4 1924  15.006   4.331  10.120  0.0978  0.1421 -0.0276
  150YOPS   GL1 1925  15.023   4.609   9.784 -0.1964 -0.1130  0.1639
  150YOPS   GL2 1926  14.884   4.826   9.624  0.4143 -0.1859  0.2830
  150YOPS   C1A 1927  15.137   4.448   9.411 -0.0680 -0.1529 -0.0102
  150YOPS   D2A 1928  15.199   4.400   9.036 -0.1978  0.0366  0.1699
  150YOPS   C3A 1929  15.165   4.485   8.558 -0.1090  0.1726 -0.1793
  150YOPS   C4A 1930  14.953   4.498   8.233  0.2988 -0.1309  0.1148
  150YOPS   C1B 1931  14.648   4.909   9.263  0.0187  0.0851 -0.0020
  150YOPS   C2B 1932  14.246   5.001   9.052  0.1230 -0.1038 -0.0511
  150YOPS   D3B 1933  14.025   5.248   8.729 -0.2753 -0.0039 -0.1226
  150YOPS   C4B 1934  14.064   5.717   8.653  0.0680 -0.0449  0.1584
  151YOPS   CNO 1935   8.734   7.551  10.729 -0.0080  0.0623 -0.1542
  151YOPS   PO4 1936   9.019   7.843  10.421  0.2518  0.3614  0.1418
  151YOPS   GL1 1937   8.874   7.965   9.965 -0.2862 -0.1952  0.1160
  151YOPS   GL2 1938   8.624   7.765   9.767 -0.0134 -0.1365 -0.0811
  151YOPS   C1A 1939   9.045   7.996   9.638 -0.0970  0.0046  0.0967
  151YOPS   D2A 1940   9.251   8.148   9.321  0.1667  0.1755  0.1422
  151YOPS   C3A 1941   9.354   7.949   9.006  0.2423 -0.0098  0.3134
  151YOPS   C4A 1942   9.233   7.776   8.672  0.0998 -0.2524 -0.0942
  151YOPS   C1B 1943   8.977   7.517   9.802  0.0939 -0.2710 -0.3411
  151YOPS   C2B 1944   9.414   7.647   9.698 -0.0738  0.0017  0.3594
  151YOPS   D3B 1945   9.593   7.747   9.359 -0.3047  0.1307  0.0229
  151YOPS   C4B 1946   9.667   7.515   9.005 -0.1842 -0.0558 -0.2280
  152YOPS   CNO 1947   3.487   4.317  10.612 -0.4053  0.0249  0.0212
  152YOPS   PO4 1948   3.788   4.482  10.400 -0.0697  0.0527 -0.0016
  152YOPS   GL1 1949   3.861   4.444   9.966 -0.0931 -0.1180  0.2671
  152YOPS   GL2 1950   3.614   4.660   9.779 -0.0620  0.2899  0.1882
  152YOPS   C1A 1951   3.929   4.324   9.528 -0.1781  0.0129 -0.1120
  152YOPS   D2A 1952   3.877   4.431   8.997 -0.1397  0.1280 -0.1033
  152YOPS   C3A 1953   3.715   4.558   8.655 -0.2019 -0.0035  0.0020
  152YOPS   C4A 1954   3.821   4.868   8.337  0.1257  0.0672 -0.0365
  152YOPS   C1B 1955   3.544   4.660   9.376  0.2368 -0.1042  0.0712
  152YOPS   C2B 1956   3.370   4.476   9.053 -0.0957 -0.2155 -0.3611
  152YOPS   D3B 1957   3.159   4.257   8.693  0.0198 -0.0354  0.3035
  152YOPS   C4B 1958   3.178   3.762   8.802  0.4608  0.0595  0.1781
  153YOPS   CNO 1959  17.373   0.958  10.377 -0.3064 -0.2059  0.0327
  153YOPS   PO4 1960  17.147   0.622  10.311  0.2941 -0.2088 -0.0791
  153YOPS   GL1 1961  16.852   0.872   9.993  0.1036  0.1027 -0.2172
  153YOPS   GL2 1962  17.117   1.194   9.992 -0.0438  0.2381 -0.6344
  153YOPS   C1A 1963  16.896   1.069   9.563  0.0349  0.1821  0.0254
  153YOPS   D2A 1964  16.800   1.189   9.126  0.1465  0.1657 -0.0828
  153YOPS   C3A 1965  16.566   1.392   8.759  0.0911  0.2001 -0.0260
  153YOPS   C4A 1966  16.775   1.612   8.520 -0.2003  0.1396 -0.1200
  153YOPS   C1B 1967  17.200   1.458   9.730  0.0083 -0.0753  0.4445
  153YOPS   C2B 1968  17.231   1.474   9.308  0.2390  0.2249  0.0067
  153YOPS   D3B 1969  17.388   1.286   8.970  0.0619  0.0599 -0.2456
  153YOPS   C4B 1970  17.145   1.355   8.723 -0.1437  0.0546  0.1422
  154YOPS   CNO 1971  13.666  18.057   9.722 -0.0787  0.1197  0.1164
  154YOPS   PO4 1972  13.269  18.191   9.746  0.1527 -0.2207 -0.0867
  154YOPS   GL1 1973  13.354  18.089   9.312 -0.1686  0.2421  0.0375
  154YOPS   GL2 1974  13.474  18.344   9.223  0.0582 -0.0596 -0.1891
  154YOPS   C1A 1975  13.165  18.081   8.861 -0.0961  0.0431  0.3141
  154YOPS   D2A 1976  13.261  18.154   8.395  0.1043  0.0133  0.1179
  154YOPS   C3A 1977  13.578  18.056   8.098  0.2513  0.1125  0.1486
  154YOPS   C4A 1978  13.798  18.226   7.702 -0.0189  0.1845  0.0341
  154YOPS   C1B 1979  13.262  18.618   8.973  0.2667  0.0358  0.0945
  154YOPS   C2B 1980  13.313  18.911   8.623  0.0351  0.0223  0.0771
  154YOPS   D3B 1981  13.307  18.814   8.242 -0.0888  0.2068 -0.2155
  154YOPS   C4B 1982  13.040  18.481   8.060  0.0907 -0.0854  0.3064
  155YOPS   CNO 1983   3.832   6.558  10.228  0.0091  0.1298 -0.0885
  155YOPS   PO4 1984   4.238   6.438  10.234 -0.0677 -0.2370 -0.0659
  155YOPS   GL1 1985   4.293   6.570   9.884  0.0217  0.1147 -0.2197
  155YOPS   GL2 1986   4.265   6.326   9.695 -0.1587  0.0518  0.2907
  155YOPS   C1A 1987   3.899   6.688   9.665  0.3394  0.2409  0.3527
  155YOPS   D2A 1988   3.563   6.930   9.511 -0.0031 -0.0353  0.1281
  155YOPS   C3A 1989   3.311   7.099   9.280 -0.1530  0.0553  0.2209
  155YOPS   C4A 1990   2.869   7.258   9.456 -0.1058 -0.0833 -0.0895
  155YOPS   C1B 1991   4.213   6.325   9.329 -0.4161  0.2342 -0.0452
  155YOPS   C2B 1992   4.167   6.453   8.821  0.0063 -0.2388 -0.0078
  155YOPS   D3B 1993   4.174   6.226   8.385 -0.1165  0.1584  0.0721
  155YOPS   C4B 1994   3.825   6.063   8.119  0.1249  0.0671  0.0064
  156YOPS   CNO 1995  12.629   9.868  10.289  0.2321 -0.1483 -0.0522
  156YOPS   PO4 1996  12.871   9.570  10.225  0.0175 -0.3073 -0.1479
  156YOPS   GL1 1997  12.985   9.656   9.815 -0.0114  0.0753 -0.0656
  156YOPS   GL2 1998  13.323   9.535   9.746  0.1220  0.3466 -0.0361
  156YOPS   C1A 1999  12.988   9.921   9.408  0.2331 -0.1020  0.2009
  156YOPS   D2A 2000  13.240  10.020   9.109  0.0953  0.1704 -0.4737
  156YOPS   C3A 2001  13.465  10.109   8.749  0.1474  0.1235 -0.2199
  156YOPS   C4A 2002  13.452  10.213   8.270  0.1035  0.1697 -0.0411
  156YOPS   C1B 2003  13.302   9.585   9.326  0.0280  0.0023 -0.0893
  156YOPS   C2B 2004  13.520   9.623   8.920  0.0752  0.3042 -0.0333
  156YOPS   D3B 2005  13.245   9.699   8.566  0.1518 -0.0343  0.0043
  156YOPS   C4B 2006  13.148   9.393   8.393 -0.2575  0.0225  0.3532
  157YOPS   CNO 2007   6.233   8.829  10.524 -0.0336  0.0764  0.3084
  157YOPS   PO4 2008   5.980   8.826  10.135 -0.1923 -0.1442  0.0557
  157YOPS   GL1 2009   5.778   8.892   9.652 -0.2825 -0.0556  0.0863
  157YOPS   GL2 2010   5.899   8.999   9.417 -0.1623 -0.1880 -0.3345
  157YOPS   C1A 2011   5.586   8.595   9.311 -0.3267 -0.0995 -0.2799
  157YOPS   D2A 2012   5.671   8.637   8.986  0.0821  0.1621  0.1898
  157YOPS   C3A 2013   5.776   8.655   8.538  0.2667 -0.0439  0.2006
  157YOPS   C4A 2014   5.517   8.944   8.284  0.0082 -0.0435  0.2259
  157YOPS   C1B 2015   5.923   9.060   9.003 -0.1470  0.0935  0.2725
  157YOPS   C2B 2016   5.666   9.166   8.698 -0.1191  0.1546  0.0633
  157YOPS   D3B 2017   5.294   9.317   8.589  0.0985 -0.1274 -0.1750
  157YOPS   C4B 2018   5.225   9.734   8.401  0.0184  0.0299 -0.1829
  158YOPS   CNO 2019   3.613  11.833  10.442 -0.2765 -0.1043  0.0096
  158YOPS   PO4 2020   4.020  11.684  10.490 -0.1013  0.1256  0.0552
  158YOPS   GL1 2021   3.958  11.531   9.982  0.0873  0.3159  0.1893
  158YOPS   GL2 2022   3.639  11.404   9.929  0.0623 -0.1037  0.4670
  158YOPS   C1A 2023   3.980  11.679   9.538  0.0938 -0.0575  0.2059
  158YOPS   D2A 2024   4.258  11.584   9.238 -0.1819  0.1113 -0.0689
  158YOPS   C3A 2025   4.336  11.618   8.768  0.2593 -0.1412  0.1908
  158YOPS   C4A 2026   4.167  11.916   8.395 -0.0527 -0.0898 -0.3280
  158YOPS   C1B 2027   3.387  11.577   9.727  0.0118  0.1041 -0.0224
  158YOPS   C2B 2028   3.501  11.949   9.392 -0.1174 -0.0496 -0.2486
  158YOPS   D3B 2029   3.433  12.109   8.936 -0.0757 -0.0793 -0.1221
  158YOPS   C4B 2030   3.720  12.049   8.619 -0.0970  0.0364 -0.1238
  159YOPS   CNO 2031  18.300  16.086  10.626 -0.0165 -0.1766  0.1038
  159YOPS   PO4 2032  18.513  15.926  10.327  0.2560  0.0813 -0.3967
  159YOPS   GL1 2033  18.472  16.143   9.973 -0.1163 -0.1893 -0.1156
  159YOPS   GL2 2034  18.052  16.179   9.819  0.1973 -0.0136  0.0054
  159YOPS   C1A 2035  18.523  16.327   9.529 -0.2370  0.0578 -0.2137
  159YOPS   D2A 2036  18.589  16.542   9.213 -0.0602 -0.3367  0.0486
  159YOPS   C3A 2037  18.587  16.759   8.833  0.0320  0.0656  0.0474
  159YOPS   C4A 2038  18.883  16.702   8.552  0.0837 -0.0503 -0.0179
  159YOPS   C1B 2039  18.060  16.189   9.546 -0.1441 -0.0383  0.1337
  159YOPS   C2B 2040  18.092  16.437   9.131  0.5750  0.0233 -0.1000
  159YOPS   D3B 2041  18.098  16.623   8.724  0.2031  0.3040 -0.2170
  159YOPS   C4B 2042  17.759  16.973   8.499 -0.4353 -0.1128 -0.2308
  160YOPS   CNO 2043   6.405   0.368  10.962  0.1199  0.1364 -0.1687
  160YOPS   PO4 2044   6.481   0.341  10.469  0.0864  0.1227 -0.2134
  160YOPS   GL1 2045   6.249   0.238  10.093  0.0615  0.0840  0.2994
  160YOPS   GL2 2046   5.942   0.384  10.276 -0.1537 -0.1633 -0.0553
  160YOPS   C1A 2047   6.252   0.252   9.565  0.0896  0.0001 -0.2747
  160YOPS   D2A 2048   6.463   0.049   9.270  0.0766 -0.0365 -0.0107
  160YOPS   C3A 2049   6.895   0.314   9.178  0.0194 -0.1835  0.0670
  160YOPS   C4A 2050   7.148   0.556   9.116  0.0716  0.2667  0.1397
  160YOPS   C1B 2051   5.492   0.401  10.072 -0.4089  0.0970 -0.0765
  160YOPS   C2B 2052   5.273   0.294   9.775 -0.0673  0.1050  0.0640
  160YOPS   D3B 2053   4.965  -0.064   9.716  0.1453  0.0862  0.4310
  160YOPS   C4B 2054   5.071  -0.453   9.792 -0.2837 -0.1525 -0.1339
  161YOPS   CNO 2055   8.785  10.358   9.824  0.1268 -0.1878 -0.2646
  161YOPS   PO4 2056   8.279  10.347   9.949  0.1654 -0.0849 -0.1782
  161YOPS   GL1 2057   8.167  10.485   9.562 -0.2471  0.0792  0.1059
  161YOPS   GL2 2058   8.336  10.269   9.424 -0.0418  0.2020 -0.0774
  161YOPS   C1A 2059   8.066  10.669   9.062 -0.0405 -0.0636  0.2670
  161YOPS   D2A 2060   8.028  10.589   8.624 -0.0553 -0.2795  0.1913
  161YOPS   C3A 2061   8.223  10.468   8.183  0.3748  0.2272  0.1397
  161YOPS   C4A 2062   8.060  10.404   7.868 -0.1036  0.0220 -0.2150
  161YOPS   C1B 2063   8.598  10.549   9.236  0.1343  0.0604 -0.0755
  161YOPS   C2B 2064   8.932  10.657   8.896  0.1664  0.1409 -0.2812
  161YOPS   D3B 2065   9.120  10.791   8.499 -0.4683 -0.1401  0.1311
  161YOPS   C4B 2066   9.296  11.104   8.612 -0.0192 -0.3266  0.0345
  162YOPS   CNO 2067   7.804  11.811   9.980 -0.1054 -0.0397 -0.0834
  162YOPS   PO4 2068   7.798  12.172   9.912  0.2998  0.0094  0.1453
  162YOPS   GL1 2069   7.858  11.949   9.509 -0.4171 -0.3362  0.3146
  162YOPS   GL2 2070   7.974  11.595   9.598 -0.1180 -0.4466  0.0917
  162YOPS   C1A 2071   7.986  11.881   9.126  0.1500  0.0658 -0.1598
  162YOPS   D2A 2072   8.087  11.913   8.677  0.1559 -0.2193 -0.0961
  162YOPS   C3A 2073   7.835  11.933   8.388 -0.0106  0.0862  0.0484
  162YOPS   C4A 2074   7.538  11.702   8.169 -0.0784  0.1106 -0.1022
  162YOPS   C1B 2075   7.966  11.333   9.212  0.1468  0.0757  0.0341
  162YOPS   C2B 2076   7.911  11.071   8.846  0.1856 -0.0479  0.0477
  162YOPS   D3B 2077   7.701  10.943   8.485  0.0988 -0.2536  0.0823
  162YOPS   C4B 2078   7.689  10.476   8.258 -0.1263  0.2806 -0.1532
  163YOPS   CNO 2079   7.720   7.002  10.009  0.1364  0.0597 -0.0024
  163YOPS   PO4 2080   8.132   6.811  10.095 -0.0439 -0.1118 -0.2063
  163YOPS   GL1 2081   8.295   6.930   9.773 -0.0218 -0.1477  0.0928
  163YOPS   GL2 2082   8.541   7.113   9.872  0.1599  0.1195  0.0814
  163YOPS   C1A 2083   8.321   7.003   9.309  0.1158  0.1196  0.0223
  163YOPS   D2A 2084   8.119   7.060   8.890  0.0509  0.1038 -0.0688
  163YOPS   C3A 2085   8.106   7.229   8.497 -0.0816 -0.1944 -0.0705
  163YOPS   C4A 2086   8.373   7.467   8.235  0.0849 -0.2269 -0.2057
  163YOPS   C1B 2087   8.810   7.122   9.437  0.2690 -0.1250  0.1106
  163YOPS   C2B 2088   8.696   7.165   9.033 -0.2981 -0.1713 -0.1642
  163YOPS   D3B 2089   8.592   7.339   8.646  0.2010  0.1920 -0.0482
  163YOPS   C4B 2090   8.939   7.354   8.448 -0.0993 -0.0564 -0.0289
  164YOPS   CNO 2091  16.624   4.417  10.813 -0.0466 -0.0370  0.3201
  164YOPS   PO4 2092  16.642   4.629  10.369  0.2387 -0.2334  0.1123
  164YOPS   GL1 2093  16.893   4.613  10.109 -0.0248  0.2555  0.0913
  164YOPS   GL2 2094  17.020   4.357   9.926  0.1325 -0.0449 -0.1657
  164YOPS   C1A 2095  16.624   4.676   9.720 -0.0468 -0.0001 -0.0285
  164YOPS   D2A 2096  16.454   4.695   9.385  0.0955  0.2197  0.4870
  164YOPS   C3A 2097  16.332   4.909   9.012 -0.2510  0.0584 -0.2840
  164YOPS   C4A 2098  16.516   5.153   8.686  0.3005  0.2537 -0.1590
  164YOPS   C1B 2099  17.123   4.495   9.524 -0.0974  0.4038 -0.1033
  164YOPS   C2B 2100  17.316   4.630   9.105  0.3325 -0.0373 -0.4019
  164YOPS   D3B 2101  17.386   4.641   8.699 -0.1583 -0.2560  0.2362
  164YOPS   C4B 2102  17.451   5.012   8.405  0.0362 -0.0318  0.2934
  165YOPS   CNO 2103   4.136   5.405   9.991 -0.3962 -0.0825 -0.4289
  165YOPS   PO4 2104   4.034   4.896  10.097 -0.3773 -0.0535  0.3427
  165YOPS   GL1 2105   3.927   5.037   9.572  0.0330 -0.2285 -0.1534
  165YOPS   GL2 2106   4.293   5.146   9.601  0.3441  0.3232  0.0420
  165YOPS   C1A 2107   3.796   5.141   9.187 -0.1934 -0.1232  0.2714
  165YOPS   D2A 2108   3.500   4.973   8.929 -0.1336  0.1843 -0.0858
  165YOPS   C3A 2109   3.213   4.762   8.560 -0.3553  0.3025 -0.0764
  165YOPS   C4A 2110   3.302   4.691   8.207 -0.0292  0.1976 -0.1470
  165YOPS   C1B 2111   4.310   5.153   9.296 -0.1335 -0.0486 -0.0928
  165YOPS   C2B 2112   4.543   5.134   8.898 -0.1039  0.1991 -0.3193
  165YOPS   D3B 2113   4.746   4.839   8.718 -0.1002  0.1534 -0.3716
  165YOPS   C4B 2114   4.906   5.009   8.348  0.0701 -0.4643 -0.1173
  166YOPS   CNO 2115  16.317   2.936  10.850 -0.0209 -0.4725  0.0931
  166YOPS   PO4 2116  16.342   2.734  10.385 -0.3050  0.2130  0.0474
  166YOPS   GL1 2117  16.437   3.054  10.049  0.0415 -0.1499  0.2804
  166YOPS   GL2 2118  16.695   3.036   9.915  0.0095 -0.5112  0.0784
  166YOPS   C1A 2119  16.166   3.222   9.796  0.5723 -0.2038 -0.0830
  166YOPS   D2A 2120  16.071   3.100   9.305 -0.1364  0.1389 -0.1731
  166YOPS   C3A 2121  16.049   2.853   8.900  0.2045  0.0673 -0.0206
  166YOPS   C4A 2122  16.171   2.930   8.539 -0.0219 -0.1693 -0.1765
  166YOPS   C1B 2123  16.614   2.887   9.452 -0.0570 -0.0527  0.0431
  166YOPS   C2B 2124  16.542   2.985   9.055  0.1418  0.2164 -0.0432
  166YOPS   D3B 2125  16.720   2.942   8.659  0.5331  0.1216  0.0182
  166YOPS   C4B 2126  17.003   2.919   8.388 -0.1673 -0.2424 -0.1226
  167YOPS   CNO 2127   1.632   2.828  10.856 -0.0119  0.1743 -0.2176
  167YOPS   PO4 2128   1.520   2.740  10.439  0.0216  0.0299  0.1417
  167YOPS   GL1 2129   1.381   2.679   9.952 -0.1008  0.1716 -0.0770
  167YOPS   GL2 2130   1.242   2.348   9.918 -0.1641 -0.0537 -0.0305
  167YOPS   C1A 2131   1.107   2.858   9.692  0.0320 -0.1203  0.0326
  167YOPS   D2A 2132   0.903   2.836   9.287 -0.3155  0.1670 -0.1535
  167YOPS   C3A 2133   0.750   2.681   8.950 -0.0829 -0.1054  0.1062
  167YOPS   C4A 2134   1.074   2.635   8.726 -0.0104  0.0209 -0.2617
  167YOPS   C1B 2135   1.440   2.069   9.643  0.0829 -0.1481  0.3553
  167YOPS   C2B 2136   1.428   1.955   9.266 -0.3546  0.0339 -0.2360
  167YOPS   D3B 2137   1.476   2.249   8.810  0.1045 -0.3114  0.2205
  167YOPS   C4B 2138   1.453   2.381   8.451 -0.1786 -0.0087 -0.1324
  168POPE   NH3 2139   7.471   8.290  10.154  0.1931 -0.2666  0.1231
  168POPE   PO4 2140   7.420   7.862  10.384 -0.2303  0.0450  0.0020
  168POPE   GL1 2141   7.260   7.773   9.932 -0.1213  0.2530  0.0757
  168POPE   GL2 2142   7.401   7.984   9.786 -0.0645 -0.0178  0.1296
  168POPE   C1A 2143   7.185   7.549   9.556  0.3117  0.3145  0.2479
  168POPE   D2A 2144   7.065   7.546   9.227 -0.3132 -0.2030  0.1698
  168POPE   C3A 2145   7.338   7.549   8.808 -0.0561  0.2067  0.3551
  168POPE   C4A 2146   7.542   7.439   8.441  0.0889 -0.0584  0.2151
  168POPE   C1B 2147   7.449   7.890   9.294 -0.0526  0.1049 -0.0668
  168POPE   C2B 2148   7.579   7.968   8.873  0.3485  0.2716  0.0093
  168POPE   C3B 2149   7.462   7.932   8.433  0.0438 -0.0555 -0.1972
  168POPE   C4B 2150   7.142   7.681   8.171  0.1135  0.1703  0.1128
  169POPE   NH3 2151   9.174  17.145   9.535 -0.0879  0.1043  0.3141
  169POPE   PO4 2152   9.055  17.588   9.661 -0.1301  0.1735  0.0322
  169POPE   GL1 2153   9.265  17.820   9.377  0.0806  0.0322  0.0488
  169POPE   GL2 2154   9.173  18.160   9.374  0.4375 -0.0450  0.1667
  169POPE   C1A 2155   9.210  17.788   8.995  0.1562  0.0926 -0.1055
  169POPE   D2A 2156   9.104  17.607   8.649 -0.0349 -0.2251  0.1263
  169POPE   C3A 2157   8.742  17.435   8.459  0.2581  0.0096 -0.0960
  169POPE   C4A 2158   8.666  17.071   8.316  0.2771  0.1930  0.3117
  169POPE   C1B 2159   8.970  18.197   8.951  0.3432 -0.0265  0.1508
  169POPE   C2B 2160   8.851  18.272   8.512  0.0811 -0.0250  0.0740
  169POPE   C3B 2161   8.820  18.216   8.053  0.0907 -0.0287 -0.1546
  169POPE   C4B 2162   8.641  18.431   7.707  0.0316  0.2418  0.2216
  170POPE   NH3 2163  17.690   4.204  10.683 -0.0131  0.0562 -0.2574
  170POPE   PO4 2164  17.704   3.747  10.541 -0.0044 -0.0566  0.1212
  170POPE   GL1 2165  17.617   3.753  10.206  0.1788 -0.2455 -0.1557
  170POPE   GL2 2166  17.419   4.031  10.192 -0.1968  0.0707  0.2830
  170POPE   C1A 2167  17.459   3.531   9.908 -0.1192 -0.1377 -0.0838
  170POPE   D2A 2168  17.591   3.276   9.598  0.2583 -0.3116 -0.2103
  170POPE   C3A 2169  17.714   3.058   9.227  0.0113  0.0414  0.5529
  170POPE   C4A 2170  17.716   2.715   8.972  0.1442  0.0648  0.0093
  170POPE   C1B 2171  17.348   4.066   9.721 -0.0823  0.2072  0.1658
  170POPE   C2B 2172  17.309   3.768   9.465  0.0673 -0.3115 -0.1604
  170POPE   C3B 2173  17.348   3.545   9.125 -0.1140 -0.1931 -0.1608
  170POPE   C4B 2174  17.477   3.245   8.804  0.0729 -0.2125 -0.0608
  171POPE   NH3 2175   9.015   1.147   9.789 -0.1744  0.0625 -0.2079
  171POPE   PO4 2176   8.929   0.700   9.886  0.1920 -0.1628 -0.3452
  171POPE   GL1 2177   8.749   0.790   9.556 -0.1719  0.1204  0.0222
  171POPE   GL2 2178   8.637   0.534   9.468 -0.0021 -0.1033  0.0399
  171POPE   C1A 2179   8.942   0.810   9.130 -0.3783 -0.1284 -0.1832
  171POPE   D2A 2180   8.785   0.763   8.686 -0.1967  0.1364 -0.1025
  171POPE   C3A 2181   8.543   0.429   8.455 -0.0365  0.2039  0.0386
  171POPE   C4A 2182   8.400   0.029   8.247 -0.3645  0.0641 -0.1209
  171POPE   C1B 2183   8.486   0.525   9.074  0.4223 -0.2061  0.0486
  171POPE   C2B 2184   8.303   0.159   8.849 -0.1063  0.0913  0.0064
  171POPE   C3B 2185   7.984   0.132   8.574 -0.0834 -0.2431  0.1209
  171POPE   C4B 2186   7.891   0.302   8.139  0.1809  0.0939 -0.2922
  172POPE   NH3 2187  16.026  14.948   9.765  0.0168  0.1889 -0.1526
  172POPE   PO4 2188  15.754  14.609   9.735 -0.1370  0.0555 -0.3008
  172POPE   GL1 2189  15.636  14.630   9.343  0.1118 -0.0432 -0.2187
  172POPE   GL2 2190  15.694  14.910   9.372  0.0110  0.0854 -0.0590
  172POPE   C1A 2191  15.671  14.656   8.885 -0.0746  0.1564  0.0796
  172POPE   D2A 2192  15.621  14.870   8.563 -0.3900 -0.2709 -0.0127
  172POPE   C3A 2193  15.515  14.832   8.151  0.0451 -0.1497  0.0717
  172POPE   C4A 2194  15.602  14.510   7.792 -0.0468 -0.0430 -0.0716
  172POPE   C1B 2195  15.316  15.030   9.135  0.0685 -0.1732 -0.0691
  172POPE   C2B 2196  15.154  14.880   8.766  0.0890 -0.0802  0.0472
  172POPE   C3B 2197  15.137  14.646   8.421  0.3948 -0.2300  0.3008
  172POPE   C4B 2198  14.970  14.723   8.011 -0.1332 -0.2307 -0.0029
  173POPE   NH3 2199  16.255   3.294  10.465 -0.1607  0.1518 -0.1126
  173POPE   PO4 2200  15.920   3.717  10.351 -0.0188 -0.0333 -0.2803
  173POPE   GL1 2201  15.998   3.684   9.920  0.3560 -0.3942  0.1632
  173POPE   GL2 2202  16.013   4.009   9.718  0.2377 -0.1053  0.1201
  173POPE   C1A 2203  15.917   3.568   9.494 -0.0161  0.2128 -0.0128
  173POPE   D2A 2204  15.853   3.546   9.095 -0.2979  0.2078 -0.0946
  173POPE   C3A 2205  15.669   3.142   8.993  0.0020 -0.2599 -0.0746
  173POPE   C4A 2206  15.596   2.770   8.765  0.0272  0.3537 -0.0977
  173POPE   C1B 2207  16.098   4.019   9.273 -0.0428  0.2302  0.0818
  173POPE   C2B 2208  16.097   3.833   8.781  0.1326  0.0821 -0.1829
  173POPE   C3B 2209  15.934   3.828   8.342  0.1555  0.2841 -0.1035
  173POPE   C4B 2210  15.705   4.052   8.028 -0.0234  0.0246  0.2742
  174POPE   NH3 2211   8.870   5.385  10.008  0.2751 -0.0337  0.1944
  174POPE   PO4 2212   8.403   5.406  10.069  0.1239  0.0017 -0.3825
  174POPE   GL1 2213   8.439   5.609   9.704 -0.1741  0.1354 -0.0985
  174POPE   GL2 2214   8.540   5.203   9.686 -0.1632  0.2483  0.1442
  174POPE   C1A 2215   8.464   5.765   9.276  0.0304 -0.2124  0.0528
  174POPE   D2A 2216   8.361   6.082   9.040  0.1844  0.1630  0.2534
  174POPE   C3A 2217   8.275   5.897   8.660  0.1508 -0.0347  0.1160
  174POPE   C4A 2218   8.314   6.005   8.261  0.0549 -0.0850  0.0753
  174POPE   C1B 2219   8.642   5.106   9.244 -0.0402 -0.0197  0.0653
  174POPE   C2B 2220   8.347   5.309   9.007 -0.2123  0.1408 -0.1253
  174POPE   C3B 2221   8.319   5.400   8.625 -0.0166  0.0983  0.0855
  174POPE   C4B 2222   8.259   5.525   8.159 -0.1673 -0.2827  0.1987
  175POPE   NH3 2223   2.760   9.727  10.210  0.0035  0.3499 -0.2115
  175POPE   PO4 2224   2.884  10.140  10.292 -0.0055  0.0291  0.1183
  175POPE   GL1 2225   2.911  10.229   9.830 -0.1754  0.0229  0.2243
  175POPE   GL2 2226   3.207  10.437   9.727 -0.2028 -0.0253 -0.2940
  175POPE   C1A 2227   2.631  10.177   9.528  0.0803  0.2825  0.3069
  175POPE   D2A 2228   2.220  10.119   9.519  0.2028  0.2003 -0.0018
  175POPE   C3A 2229   1.970  10.048   9.090  0.1168  0.1514 -0.2107
  175POPE   C4A 2230   1.730   9.825   8.907  0.3171  0.1145 -0.0580
  175POPE   C1B 2231   2.871  10.606   9.464 -0.2237 -0.1283 -0.0095
  175POPE   C2B 2232   2.830  10.841   9.158 -0.3214 -0.1034  0.1286
  175POPE   C3B 2233   2.707  10.745   8.803 -0.3325  0.2639  0.0202
  175POPE   C4B 2234   2.402  10.574   8.515  0.0348 -0.0694  0.0432
  176POPE   NH3 2235   1.221  12.911  10.089 -0.1150  0.0973 -0.2001
  176POPE   PO4 2236   0.908  12.532  10.275 -0.1492  0.2946  0.1392
  176POPE   GL1 2237   0.861  12.586   9.861  0.1609 -0.2417  0.0044
  176POPE   GL2 2238   0.856  12.886   9.671 -0.0077  0.2100  0.1844
  176POPE   C1A 2239   0.688  12.443   9.522 -0.1070 -0.1531  0.0905
  176POPE   D2A 2240   0.797  12.046   9.141  0.1053  0.1262 -0.4558
  176POPE   C3A 2241   1.072  12.053   8.715 -0.2227 -0.1910 -0.0352
  176POPE   C4A 2242   1.277  12.190   8.261 -0.1633  0.1000  0.1496
  176POPE   C1B 2243   0.690  12.860   9.260 -0.0022 -0.4158  0.1852
  176POPE   C2B 2244   0.742  12.867   8.786 -0.0239  0.1364 -0.3064
  176POPE   C3B 2245   0.761  12.789   8.406  0.0126 -0.3908 -0.0873
  176POPE   C4B 2246   0.877  13.090   8.095  0.1030 -0.1674 -0.0147
  177POPE   NH3 2247  12.911   3.256  10.124 -0.2698 -0.3283 -0.3187
  177POPE   PO4 2248  12.847   3.630  10.062 -0.1729 -0.0840 -0.1068
  177POPE   GL1 2249  12.756   3.748   9.616 -0.0001  0.2097 -0.1461
  177POPE   GL2 2250  12.506   3.893   9.523 -0.0742 -0.4226 -0.1166
  177POPE   C1A 2251  12.682   3.627   9.088  0.1678 -0.2857  0.0540
  177POPE   D2A 2252  12.898   3.774   8.789  0.1473  0.3209  0.0754
  177POPE   C3A 2253  13.198   3.482   8.479 -0.1480  0.2020  0.2852
  177POPE   C4A 2254  13.543   3.411   8.255 -0.0466 -0.1429  0.2913
  177POPE   C1B 2255  12.349   3.962   9.174 -0.0845  0.0088 -0.2709
  177POPE   C2B 2256  12.314   3.793   8.721 -0.3050 -0.1584 -0.0001
  177POPE   C3B 2257  12.269   3.663   8.294 -0.3211 -0.0224 -0.1595
  177POPE   C4B 2258  12.520   3.588   7.887 -0.0848  0.1735 -0.0367
  178POPE   NH3 2259  11.298   7.061  10.970  0.0430  0.0640  0.3226
  178POPE   PO4 2260  11.366   6.844  10.523 -0.1967  0.0192 -0.4555
  178POPE   GL1 2261  11.460   6.778  10.038  0.1029  0.0886 -0.0560
  178POPE   GL2 2262  11.861   6.640   9.974  0.3001 -0.2692  0.0885
  178POPE   C1A 2263  11.526   6.703   9.590  0.2537 -0.1329  0.3258
  178POPE   D2A 2264  11.370   6.618   9.316 -0.2537  0.2528  0.3065
  178POPE   C3A 2265  11.375   6.750   8.887  0.1923  0.3012 -0.1509
  178POPE   C4A 2266  11.472   6.887   8.482  0.2008  0.3272  0.2862
  178POPE   C1B 2267  12.034   6.657   9.637 -0.0188 -0.1503 -0.3251
  178POPE   C2B 2268  11.893   6.671   9.195  0.2505 -0.3725  0.1263
  178POPE   C3B 2269  12.193   6.520   8.919  0.0352 -0.2351  0.2384
  178POPE   C4B 2270  12.361   6.454   8.626 -0.0391  0.1357  0.1459
  179POPE   NH3 2271   5.219  15.119  10.016  0.0467 -0.0592 -0.2093
  179POPE   PO4 2272   5.290  14.889   9.753  0.1351 -0.1887  0.1752
  179POPE   GL1 2273   5.231  14.816   9.432 -0.1733 -0.1097  0.1280
  179POPE   GL2 2274   4.876  14.843   9.291 -0.1858 -0.0960 -0.0089
  179POPE   C1A 2275   5.422  14.601   9.072 -0.0040 -0.1075  0.2783
  179POPE   D2A 2276   5.316  14.802   8.783 -0.1520  0.3138 -0.4814
  179POPE   C3A 2277   5.132  14.695   8.487 -0.1201 -0.0330 -0.0878
  179POPE   C4A 2278   4.919  14.484   8.119  0.0266  0.0676 -0.1932
  179POPE   C1B 2279   4.785  14.800   8.775 -0.0981  0.0735  0.0013
  179POPE   C2B 2280   4.619  14.771   8.387 -0.1254 -0.1471 -0.1361
  179POPE   C3B 2281   4.399  14.788   7.933 -0.1164  0.1656  0.0965
  179POPE   C4B 2282   4.503  14.958   7.563 -0.0640 -0.2490 -0.0767
  180POPE   NH3 2283  16.720  11.464  10.245 -0.1187  0.2948  0.0109
  180POPE   PO4 2284  16.867  11.933  10.434 -0.0468 -0.5270 -0.1540
  180POPE   GL1 2285  16.845  11.925  10.000 -0.3892  0.0078 -0.1360
  180POPE   GL2 2286  16.933  12.111   9.698  0.2091 -0.0840 -0.1706
  180POPE   C1A 2287  16.885  11.610   9.677 -0.2367 -0.0693  0.2455
  180POPE   D2A 2288  17.075  11.291   9.384 -0.4312 -0.1912 -0.0541
  180POPE   C3A 2289  17.075  10.855   9.413 -0.1507  0.1628  0.0164
  180POPE   C4A 2290  17.337  10.597   9.074  0.0350 -0.1504 -0.1158
  180POPE   C1B 2291  16.820  11.925   9.317 -0.0446  0.3213 -0.1793
  180POPE   C2B 2292  16.767  11.914   8.927 -0.2771 -0.4397 -0.0084
  180POPE   C3B 2293  16.624  11.774   8.558  0.0449  0.1022 -0.4609
  180POPE   C4B 2294  16.741  11.467   8.242  0.1483 -0.0137 -0.2115
  181POPE   NH3 2295  16.794  15.445  10.005 -0.1580  0.1603  0.1066
  181POPE   PO4 2296  17.229  15.312   9.842  0.1534  0.0158  0.3286
  181POPE   GL1 2297  17.399  15.399   9.529 -0.0090 -0.2790  0.1762
  181POPE   GL2 2298  17.292  15.097   9.386 -0.4499  0.1750 -0.0256
  181POPE   C1A 2299  17.657  15.519   9.189 -0.0881  0.5297  0.1347
  181POPE   D2A 2300  17.802  15.652   8.911 -0.2230 -0.2102 -0.0395
  181POPE   C3A 2301  17.729  15.786   8.512  0.1451 -0.2605  0.0694
  181POPE   C4A 2302  17.680  15.974   8.144  0.0022  0.0891 -0.0369
  181POPE   C1B 2303  17.304  15.012   9.006  0.0805  0.0279  0.0329
  181POPE   C2B 2304  17.245  14.913   8.608 -0.2779 -0.0209 -0.0419
  181POPE   C3B 2305  17.152  14.687   8.164 -0.0169  0.0765  0.1076
  181POPE   C4B 2306  17.018  14.259   8.137  0.0720  0.1625 -0.1134
  182POPE   NH3 2307   6.757  15.160  10.116  0.0166 -0.1462  0.1656
  182POPE   PO4 2308   6.566  15.520  10.303  0.2444  0.3096 -0.0629
  182POPE   GL1 2309   6.733  15.773   9.925  0.1032  0.0522 -0.0250
  182POPE   GL2 2310   6.986  15.534   9.814  0.2615  0.1457  0.2773
  182POPE   C1A 2311   6.576  15.848   9.546 -0.1332 -0.1448 -0.1517
  182POPE   D2A 2312   6.395  15.994   9.173 -0.1487 -0.4416 -0.1333
  182POPE   C3A 2313   6.507  16.187   8.797 -0.1738 -0.1344 -0.0864
  182POPE   C4A 2314   6.459  16.402   8.365  0.0719  0.1141  0.1036
  182POPE   C1B 2315   6.943  15.305   9.422 -0.0636 -0.1644 -0.1498
  182POPE   C2B 2316   6.947  15.374   8.989 -0.0010  0.1898 -0.1487
  182POPE   C3B 2317   6.638  15.495   8.845  0.2310 -0.0454 -0.1601
  182POPE   C4B 2318   6.469  15.735   8.558  0.0831  0.3026 -0.0704
  183POPE   NH3 2319  14.031  14.219   9.997  0.1189  0.0688 -0.2550
  183POPE   PO4 2320  13.479  14.378   9.959  0.1230  0.0386 -0.0154
  183POPE   GL1 2321  13.113  14.355   9.592  0.1562  0.0213  0.0337
  183POPE   GL2 2322  12.877  14.565   9.436 -0.0141 -0.3091 -0.2854
  183POPE   C1A 2323  13.208  14.219   9.094  0.1916  0.0512  0.0271
  183POPE   D2A 2324  13.385  14.200   8.722 -0.0314 -0.0585  0.1009
  183POPE   C3A 2325  13.727  14.302   8.537  0.3240  0.0290 -0.2724
  183POPE   C4A 2326  13.950  14.076   8.246  0.1873 -0.1697 -0.0280
  183POPE   C1B 2327  12.861  14.623   9.044 -0.2635 -0.0760  0.0674
  183POPE   C2B 2328  12.824  14.668   8.661  0.4496  0.0629 -0.4695
  183POPE   C3B 2329  12.522  14.892   8.297  0.1945 -0.1558 -0.0712
  183POPE   C4B 2330  12.519  15.049   7.803  0.1070  0.0751  0.2006
  184POPE   NH3 2331  18.446   6.809  10.831  0.0161 -0.0949 -0.0056
  184POPE   PO4 2332  18.868   6.848  10.591  0.0316  0.0967 -0.0820
  184POPE   GL1 2333  18.961   6.811  10.185 -0.2352  0.0971 -0.1366
  184POPE   GL2 2334  18.715   6.667  10.125  0.1310 -0.0299 -0.2831
  184POPE   C1A 2335  18.939   6.873   9.753 -0.0149 -0.2850  0.2617
  184POPE   D2A 2336  18.916   7.109   9.276  0.2031 -0.0769 -0.2313
  184POPE   C3A 2337  19.321   7.026   8.973  0.0578  0.0870  0.0776
  184POPE   C4A 2338  19.743   6.913   8.681  0.1207 -0.1480 -0.1911
  184POPE   C1B 2339  18.932   6.411   9.828  0.0928 -0.3466 -0.0050
  184POPE   C2B 2340  18.858   6.455   9.422 -0.0235  0.2042  0.1937
  184POPE   C3B 2341  18.820   6.737   8.994 -0.1720 -0.1035 -0.2576
  184POPE   C4B 2342  18.800   7.018   8.791  0.1152  0.0494 -0.1646
  185POPE   NH3 2343  14.567  12.386   9.983  0.2443  0.3739 -0.1269
  185POPE   PO4 2344  14.821  12.741  10.024  0.0780  0.0360 -0.2062
  185POPE   GL1 2345  14.920  12.586   9.658 -0.1471 -0.2116  0.3333
  185POPE   GL2 2346  15.058  12.880   9.561  0.0776 -0.1567 -0.1303
  185POPE   C1A 2347  14.988  12.505   9.130  0.1319 -0.0283  0.1208
  185POPE   D2A 2348  14.987  12.432   8.617  0.2506  0.0092 -0.0506
  185POPE   C3A 2349  15.174  12.239   8.242 -0.3444 -0.2091  0.1295
  185POPE   C4A 2350  14.962  12.051   7.896 -0.0516 -0.2712 -0.3872
  185POPE   C1B 2351  15.451  13.014   9.396  0.2919 -0.2500  0.4551
  185POPE   C2B 2352  15.812  12.992   8.991  0.0594 -0.1228  0.2527
  185POPE   C3B 2353  15.931  13.108   8.704 -0.3283 -0.1896 -0.0114
  185POPE   C4B 2354  16.092  12.925   8.277  0.0907  0.1366 -0.0002
  186POPE   NH3 2355   6.157   5.485  10.077  0.0790 -0.4633  0.1959
  186POPE   PO4 2356   6.505   5.586  10.144 -0.2043  0.3693 -0.1574
  186POPE   GL1 2357   6.540   5.614   9.707  0.1135 -0.1642  0.0760
  186POPE   GL2 2358   6.266   5.441   9.544 -0.1461 -0.0310  0.3322
  186POPE   C1A 2359   6.858   5.705   9.438  0.0882  0.1573  0.2476
  186POPE   D2A 2360   6.883   5.750   8.945  0.0792 -0.1622 -0.1719
  186POPE   C3A 2361   7.158   6.122   8.758 -0.4355 -0.0728  0.1022
  186POPE   C4A 2362   7.390   6.267   8.527 -0.0237  0.0739 -0.2377
  186POPE   C1B 2363   6.424   5.564   9.116 -0.0812  0.0134  0.2248
  186POPE   C2B 2364   6.283   5.699   8.622  0.1233  0.2655 -0.0281
  186POPE   C3B 2365   6.135   5.774   8.369  0.1047  0.3613 -0.2729
  186POPE   C4B 2366   5.735   5.868   8.125  0.5100 -0.0270  0.2256
  187POPE   NH3 2367   0.327  14.263  10.108  0.3431 -0.0887  0.2173
  187POPE   PO4 2368   0.525  13.926   9.982 -0.1676  0.1897  0.1742
  187POPE   GL1 2369   0.390  13.909   9.514 -0.0698  0.0958 -0.2685
  187POPE   GL2 2370   0.223  13.577   9.389  0.2073 -0.3085 -0.0520
  187POPE   C1A 2371   0.512  13.905   9.046  0.3328 -0.2050 -0.0865
  187POPE   D2A 2372   0.504  13.967   8.579  0.3442 -0.1064  0.0558
  187POPE   C3A 2373   0.896  14.120   8.333 -0.2053 -0.0664  0.0079
  187POPE   C4A 2374   1.352  14.100   8.041 -0.2144  0.0700  0.0978
  187POPE   C1B 2375   0.302  13.454   8.998 -0.1816  0.2071  0.0091
  187POPE   C2B 2376   0.152  13.521   8.608 -0.2206 -0.0170  0.1727
  187POPE   C3B 2377   0.045  13.445   8.188  0.0281 -0.1856  0.2308
  187POPE   C4B 2378  -0.030  13.606   7.763 -0.1716  0.0117 -0.1406
  188POPE   NH3 2379   2.703  14.353  10.250  0.3373 -0.1476 -0.0119
  188POPE   PO4 2380   2.437  14.682  10.071  0.1586 -0.0882 -0.1650
  188POPE   GL1 2381   2.357  14.873   9.667 -0.0244  0.0910  0.1363
  188POPE   GL2 2382   2.176  14.656   9.588  0.1988  0.3737 -0.0112
  188POPE   C1A 2383   2.478  15.134   9.348 -0.2686 -0.4085  0.0666
  188POPE   D2A 2384   2.811  15.230   8.995  0.0825 -0.1060 -0.1227
  188POPE   C3A 2385   2.766  15.227   8.597  0.4396  0.0401  0.1937
  188POPE   C4A 2386   3.034  15.078   8.161  0.2154 -0.1746 -0.1698
  188POPE   C1B 2387   2.256  14.744   9.115 -0.0664 -0.1273 -0.0414
  188POPE   C2B 2388   2.171  14.906   8.740  0.0525 -0.2473  0.3834
  188POPE   C3B 2389   2.264  15.079   8.369  0.1486 -0.0855  0.1707
  188POPE   C4B 2390   2.157  15.312   8.046  0.3838  0.2362 -0.2299
  189POPE   NH3 2391   5.042   7.416   9.964 -0.1235  0.2323  0.0942
  189POPE   PO4 2392   5.313   7.765   9.821  0.0106 -0.7053 -0.2517
  189POPE   GL1 2393   4.948   7.954   9.561 -0.0833  0.1665  0.0299
  189POPE   GL2 2394   4.757   8.241   9.670  0.2019  0.1600 -0.1186
  189POPE   C1A 2395   4.754   7.922   9.149 -0.0389  0.1292 -0.0830
  189POPE   D2A 2396   4.521   7.929   8.724  0.0999 -0.0342 -0.1331
  189POPE   C3A 2397   4.416   7.732   8.289  0.0479 -0.0757 -0.1311
  189POPE   C4A 2398   4.229   7.630   7.925  0.0514  0.1793 -0.2076
  189POPE   C1B 2399   4.492   8.241   9.384  0.0478 -0.0235  0.0811
  189POPE   C2B 2400   4.371   8.284   8.992  0.1809  0.2062 -0.1240
  189POPE   C3B 2401   3.974   8.385   8.621 -0.0552 -0.0303  0.0986
  189POPE   C4B 2402   3.623   8.634   8.603 -0.1094 -0.1515 -0.0648
  190POPE   NH3 2403  13.742   8.722  10.364  0.1627 -0.3926  0.1394
  190POPE   PO4 2404  13.577   8.270  10.599 -0.0631 -0.1975  0.0989
  190POPE   GL1 2405  13.793   8.235  10.242 -0.0502  0.2747 -0.3028
  190POPE   GL2 2406  14.147   8.329  10.157  0.1086 -0.0964 -0.2645
  190POPE   C1A 2407  13.608   8.206   9.726  0.2513  0.0854  0.2144
  190POPE   D2A 2408  13.368   8.101   9.409  0.1325 -0.0485  0.2893
  190POPE   C3A 2409  13.246   8.333   9.147 -0.0956 -0.0703  0.0787
  190POPE   C4A 2410  13.203   8.664   9.140 -0.0034 -0.0844  0.0031
  190POPE   C1B 2411  14.060   8.078   9.747 -0.3416 -0.0339 -0.0616
  190POPE   C2B 2412  13.944   8.054   9.269 -0.2380 -0.0146  0.1061
  190POPE   C3B 2413  13.975   7.763   8.844  0.1001 -0.2615  0.1390
  190POPE   C4B 2414  13.898   7.497   8.474 -0.0566 -0.0265  0.1948
  191POPE   NH3 2415   8.872   0.074   9.883  0.2125  0.1623 -0.1631
  191POPE   PO4 2416   8.725  -0.291   9.804  0.1262 -0.0466 -0.2865
  191POPE   GL1 2417   8.612  -0.080   9.466 -0.0033  0.1599 -0.0037
  191POPE   GL2 2418   8.411   0.125   9.528 -0.0092 -0.1802 -0.0999
  191POPE   C1A 2419   8.527  -0.167   9.118  0.1527 -0.0794  0.2431
  191POPE   D2A 2420   8.596  -0.628   8.847 -0.1931 -0.2202 -0.2682
  191POPE   C3A 2421   8.556  -0.548   8.463  0.0490  0.2233 -0.0229
  191POPE   C4A 2422   8.511  -0.711   8.104 -0.0468  0.0710 -0.0970
  191POPE   C1B 2423   8.063   0.030   9.339  0.1899  0.1591 -0.2051
  191POPE   C2B 2424   7.735  -0.366   9.354  0.1225 -0.1957  0.1732
  191POPE   C3B 2425   7.428  -0.660   9.238 -0.0684 -0.0289 -0.2551
  191POPE   C4B 2426   6.980  -0.622   9.246 -0.2595 -0.0618 -0.1934
  192POPE   NH3 2427   9.977   2.194  10.000  0.1495 -0.0541  0.0833
  192POPE   PO4 2428   9.924   1.744   9.889 -0.1218 -0.0181  0.0500
  192POPE   GL1 2429   9.807   1.601   9.531 -0.1350  0.0487  0.0733
  192POPE   GL2 2430   9.944   1.258   9.489  0.1016 -0.0422  0.2500
  192POPE   C1A 2431   9.778   1.793   9.156 -0.0390  0.2131  0.1611
  192POPE   D2A 2432   9.814   1.779   8.733  0.1255  0.0142 -0.3708
  192POPE   C3A 2433   9.524   1.650   8.451  0.0949  0.1175 -0.1558
  192POPE   C4A 2434   9.312   1.681   8.145 -0.1008 -0.1549  0.0386
  192POPE   C1B 2435   9.727   1.353   9.077 -0.1889  0.1686  0.2180
  192POPE   C2B 2436   9.813   1.216   8.684  0.0186 -0.1141 -0.2910
  192POPE   C3B 2437   9.978   1.137   8.310  0.1215 -0.0471 -0.3651
  192POPE   C4B 2438  10.263   1.337   8.037  0.4094  0.3032  0.2464
  193POPE   NH3 2439   4.522  13.366  10.048 -0.0580  0.0702  0.0182
  193POPE   PO4 2440   4.381  13.848  10.010  0.3523 -0.0454 -0.0537
  193POPE   GL1 2441   4.673  14.035   9.715 -0.2767 -0.1457  0.0449
  193POPE   GL2 2442   5.023  13.903   9.605 -0.0254 -0.0414  0.3151
  193POPE   C1A 2443   4.594  14.108   9.316  0.1992  0.0243 -0.1084
  193POPE   D2A 2444   4.485  13.821   9.070 -0.2941  0.0292  0.0313
  193POPE   C3A 2445   4.406  13.929   8.703  0.0672 -0.0052 -0.0330
  193POPE   C4A 2446   4.185  13.898   8.273  0.0054  0.0092  0.0663
  193POPE   C1B 2447   4.972  13.893   9.077  0.0290  0.4968  0.0504
  193POPE   C2B 2448   5.057  13.773   8.706 -0.0326  0.1442  0.1220
  193POPE   C3B 2449   5.151  13.630   8.337  0.2256  0.4252  0.1227
  193POPE   C4B 2450   5.355  13.465   8.048  0.0927 -0.1439  0.0034
  194POPE   NH3 2451  18.293  10.851  10.072  0.4008 -0.3131 -0.2608
  194POPE   PO4 2452  18.418  11.299  10.011 -0.1049  0.0783 -0.1196
  194POPE   GL1 2453  18.192  11.156   9.699 -0.0320  0.1493  0.2039
  194POPE   GL2 2454  18.055  10.831   9.607  0.2103 -0.0026  0.3617
  194POPE   C1A 2455  17.927  11.332   9.453 -0.0708  0.1219 -0.2997
  194POPE   D2A 2456  17.779  11.456   9.142  0.0377 -0.0587 -0.3356
  194POPE   C3A 2457  17.969  11.190   8.877 -0.1248  0.2314 -0.2768
  194POPE   C4A 2458  18.225  11.067   8.521  0.2010  0.0074  0.0245
  194POPE   C1B 2459  18.083  10.884   9.202  0.1486 -0.2014 -0.0058
  194POPE   C2B 2460  18.009  10.699   8.824  0.3895  0.0478  0.0232
  194POPE   C3B 2461  17.693  10.501   8.815  0.2625 -0.0934 -0.3691
  194POPE   C4B 2462  17.251  10.742   8.593  0.1371  0.1692  0.0543
  195POPE   NH3 2463  11.030  13.836   9.829 -0.0486 -0.1781  0.3798
  195POPE   PO4 2464  10.823  13.521   9.956  0.0721  0.0348 -0.0521
  195POPE   GL1 2465  11.026  13.457   9.515 -0.0533  0.0969 -0.2978
  195POPE   GL2 2466  10.775  13.414   9.305 -0.0399 -0.2000  0.1338
  195POPE   C1A 2467  11.280  13.442   9.254 -0.2365 -0.0902  0.0936
  195POPE   D2A 2468  11.585  13.653   8.972 -0.2393 -0.3502 -0.0824
  195POPE   C3A 2469  11.978  13.560   8.882 -0.0406 -0.3009 -0.2440
  195POPE   C4A 2470  12.385  13.329   8.755  0.1296  0.2503 -0.2305
  195POPE   C1B 2471  10.851  13.306   8.875 -0.1686  0.1506  0.0728
  195POPE   C2B 2472  11.023  12.996   8.526 -0.2308 -0.0216 -0.3253
  195POPE   C3B 2473  11.284  12.803   8.452 -0.0852  0.0599 -0.1606
  195POPE   C4B 2474  11.644  12.626   8.309  0.2363 -0.2205  0.0085
  196POPE   NH3 2475   3.637   8.920   9.990  0.0480  0.0473  0.0221
  196POPE   PO4 2476   3.222   8.752  10.168 -0.1319 -0.0057  0.0349
  196POPE   GL1 2477   2.927   8.487   9.960  0.0862 -0.0565  0.2746
  196POPE   GL2 2478   2.617   8.465   9.933 -0.0407  0.1095  0.0959
  196POPE   C1A 2479   2.864   8.580   9.508  0.1741  0.1150  0.0282
  196POPE   D2A 2480   2.782   8.511   9.013  0.0595  0.0122 -0.0470
  196POPE   C3A 2481   2.698   8.441   8.638  0.0892 -0.2253  0.1790
  196POPE   C4A 2482   2.477   8.197   8.374  0.3261 -0.0568  0.0254
  196POPE   C1B 2483   2.625   8.000   9.866  0.0063 -0.0745  0.0010
  196POPE   C2B 2484   2.618   7.750   9.526 -0.0764  0.0885 -0.1967
  196POPE   C3B 2485   2.695   7.571   9.113 -0.0783 -0.1222 -0.0113
  196POPE   C4B 2486   2.690   7.261   8.794 -0.1906 -0.0321  0.0842
  197POPE   NH3 2487  15.380  14.206   9.939  0.2175 -0.1137  0.1626
  197POPE   PO4 2488  15.304  14.579  10.066  0.2203  0.1445 -0.1401
  197POPE   GL1 2489  15.201  14.493   9.557 -0.3717  0.0065 -0.1380
  197POPE   GL2 2490  14.923  14.642   9.414  0.1233  0.1466 -0.4373
  197POPE   C1A 2491  15.249  14.491   9.134 -0.0267  0.2244  0.1705
  197POPE   D2A 2492  15.295  14.338   8.770 -0.0066  0.1893 -0.2247
  197POPE   C3A 2493  15.556  14.381   8.438 -0.2553 -0.3394  0.2367
  197POPE   C4A 2494  15.881  14.562   8.308  0.2242  0.7173  0.1700
  197POPE   C1B 2495  14.728  14.702   8.963  0.2237 -0.1012 -0.0890
  197POPE   C2B 2496  14.652  14.755   8.535  0.0667  0.0197  0.1270
  197POPE   C3B 2497  14.514  14.924   8.115  0.0471  0.0310  0.0102
  197POPE   C4B 2498  14.261  15.165   7.828 -0.0929  0.2314 -0.0668
  198YOPE   NH3 2499  10.668  12.685  10.335  0.0087 -0.1701  0.1142
  198YOPE   PO4 2500  10.982  12.460  10.111  0.2942  0.1635 -0.2405
  198YOPE   GL1 2501  10.947  12.339   9.699 -0.0717  0.0745 -0.3667
  198YOPE   GL2 2502  10.827  12.001   9.546  0.1365 -0.0467  0.2233
  198YOPE   C1A 2503  11.017  12.449   9.281  0.2806  0.1695 -0.0826
  198YOPE   D2A 2504  11.081  12.468   8.767  0.1060  0.0173 -0.0340
  198YOPE   C3A 2505  10.793  12.128   8.555 -0.3647 -0.0259 -0.0172
  198YOPE   C4A 2506  10.612  11.882   8.281  0.2168  0.1528 -0.0635
  198YOPE   C1B 2507  10.875  11.703   9.067 -0.0167 -0.1442  0.4816
  198YOPE   C2B 2508  10.929  11.331   9.024 -0.1703 -0.1010 -0.0330
  198YOPE   D3B 2509  11.036  11.035   8.579  0.2755  0.0583  0.2826
  198YOPE   C4B 2510  11.070  11.052   8.194 -0.2067 -0.0178 -0.1816
  199YOPE   NH3 2511  16.797   4.078  10.371  0.1936 -0.0992  0.1002
  199YOPE   PO4 2512  16.810   3.634  10.456  0.1236  0.1913  0.2196
  199YOPE   GL1 2513  16.959   3.494  10.044  0.0510 -0.0715  0.1132
  199YOPE   GL2 2514  17.030   3.807  10.004  0.1141  0.2143  0.0133
  199YOPE   C1A 2515  17.024   3.368   9.633 -0.0037  0.1591  0.2054
  199YOPE   D2A 2516  16.935   3.254   9.217 -0.0052  0.3932  0.3124
  199YOPE   C3A 2517  16.974   3.344   8.788  0.2105  0.0610 -0.1418
  199YOPE   C4A 2518  16.865   3.404   8.388 -0.2066  0.0226  0.0167
  199YOPE   C1B 2519  16.851   3.959   9.607  0.0287  0.0563 -0.0090
  199YOPE   C2B 2520  16.891   3.808   9.230 -0.1365 -0.3395  0.1921
  199YOPE   D3B 2521  16.740   3.777   8.900  0.0508 -0.3063 -0.2974
  199YOPE   C4B 2522  16.629   3.877   8.528  0.0638  0.2679  0.0629
  200YOPE   NH3 2523  12.009  17.732   9.505  0.4362 -0.1435 -0.2037
  200YOPE   PO4 2524  12.252  17.560   9.782 -0.0430 -0.1006 -0.1379
  200YOPE   GL1 2525  12.375  17.351   9.307 -0.0562 -0.3059 -0.0277
  200YOPE   GL2 2526  12.227  17.572   9.128 -0.0405 -0.1040 -0.0590
  200YOPE   C1A 2527  12.312  17.038   9.028 -0.0403  0.3546 -0.0046
  200YOPE   D2A 2528  12.223  17.014   8.598 -0.0218 -0.1874  0.0155
  200YOPE   C3A 2529  12.411  17.146   8.211 -0.1038 -0.0280 -0.4413
  200YOPE   C4A 2530  12.550  17.235   7.758  0.0986 -0.0649  0.2460
  200YOPE   C1B 2531  12.266  17.522   8.677  0.1708  0.0704 -0.0465
  200YOPE   C2B 2532  12.416  17.656   8.288 -0.0803  0.3812 -0.1629
  200YOPE   D3B 2533  12.327  17.755   7.913  0.0881 -0.0022 -0.0224
  200YOPE   C4B 2534  12.371  17.938   7.561 -0.0140 -0.4010 -0.0491
  201YOPE   NH3 2535  13.377   3.828  10.177 -0.1588  0.0118  0.0672
  201YOPE   PO4 2536  13.744   3.691  10.426 -0.1119  0.1127  0.1980
  201YOPE   GL1 2537  13.829   3.954  10.015  0.2224  0.1750  0.2725
  201YOPE   GL2 2538  13.639   4.124   9.801 -0.0215 -0.1093 -0.0822
  201YOPE   C1A 2539  14.048   3.748   9.704  0.2894 -0.0943  0.2670
  201YOPE   D2A 2540  14.412   3.649   9.477 -0.1307  0.0645  0.0200
  201YOPE   C3A 2541  14.432   3.877   9.077 -0.0519  0.2717  0.0435
  201YOPE   C4A 2542  14.396   3.784   8.594 -0.1092  0.1278  0.0647
  201YOPE   C1B 2543  13.687   4.419   9.613  0.0696 -0.2236 -0.0873
  201YOPE   C2B 2544  13.636   4.679   9.261  0.0528  0.0748  0.1420
  201YOPE   D3B 2545  13.744   4.893   8.962  0.2732 -0.3715 -0.0171
  201YOPE   C4B 2546  13.627   4.888   8.512 -0.1109 -0.0580  0.0219
  202YOPE   NH3 2547  10.879  14.832   9.833 -0.0009 -0.0617 -0.1116
  202YOPE   PO4 2548  11.138  14.769  10.141 -0.1244  0.0180 -0.0605
  202YOPE   GL1 2549  11.282  14.644   9.693 -0.0818  0.0956 -0.3010
  202YOPE   GL2 2550  11.121  14.390   9.654 -0.2046 -0.3087 -0.3353
  202YOPE   C1A 2551  11.278  14.613   9.198 -0.2996 -0.1176 -0.0269
  202YOPE   D2A 2552  11.187  14.723   8.888  0.1919  0.2222  0.5347
  202YOPE   C3A 2553  11.407  15.021   8.740  0.1528  0.2057  0.1793
  202YOPE   C4A 2554  11.730  15.138   8.602  0.0145  0.2259  0.1749
  202YOPE   C1B 2555  10.962  14.156   9.276  0.2300 -0.1546 -0.2856
  202YOPE   C2B 2556  10.948  13.868   9.153 -0.1079  0.1628 -0.3224
  202YOPE   D3B 2557  11.121  13.707   8.827  0.0469 -0.2742 -0.2645
  202YOPE   C4B 2558  11.367  13.797   8.424  0.1978  0.0821 -0.1272
  203YOPE   NH3 2559  13.215  15.218   9.917  0.1530  0.2310 -0.2506
  203YOPE   PO4 2560  13.419  14.852  10.140  0.1254 -0.0527  0.2368
  203YOPE   GL1 2561  13.486  14.807   9.723 -0.0016  0.0358 -0.1284
  203YOPE   GL2 2562  13.709  15.018   9.631  0.1977 -0.2148 -0.3675
  203YOPE   C1A 2563  13.354  14.732   9.297  0.1811  0.3108  0.5490
  203YOPE   D2A 2564  13.434  14.744   8.832  0.4359 -0.2249  0.3066
  203YOPE   C3A 2565  13.339  14.636   8.398  0.1344 -0.0003  0.2697
  203YOPE   C4A 2566  13.064  14.440   8.052  0.0529 -0.0119  0.0334
  203YOPE   C1B 2567  13.847  14.833   9.259 -0.0058 -0.2573  0.0094
  203YOPE   C2B 2568  13.938  14.786   8.823 -0.0888  0.1924  0.0809
  203YOPE   D3B 2569  14.006  14.703   8.382 -0.2043 -0.0070  0.0374
  203YOPE   C4B 2570  14.147  14.651   7.979 -0.0792 -0.2026  0.4431
  204YOPE   NH3 2571  16.171  16.360  10.011 -0.1533  0.0008 -0.0021
  204YOPE   PO4 2572  16.113  15.958  10.104 -0.1545  0.2203  0.1406
  204YOPE   GL1 2573  15.756  16.014   9.856  0.1493  0.0346  0.1441
  204YOPE   GL2 2574  15.754  16.066   9.633  0.2902  0.4289  0.3686
  204YOPE   C1A 2575  15.374  15.793   9.698 -0.0084  0.1644  0.0426
  204YOPE   D2A 2576  15.397  15.453   9.448  0.2299  0.0542  0.2167
  204YOPE   C3A 2577  15.667  15.334   9.074  0.2026 -0.1954  0.0304
  204YOPE   C4A 2578  15.763  15.287   8.752 -0.1455 -0.1294  0.1981
  204YOPE   C1B 2579  15.977  15.663   9.329  0.2402  0.0476  0.1559
  204YOPE   C2B 2580  16.058  15.674   8.887  0.2423 -0.1460 -0.0087
  204YOPE   D3B 2581  16.208  15.814   8.409 -0.1143 -0.1776 -0.1452
  204YOPE   C4B 2582  16.516  15.971   8.120  0.3549  0.0867  0.1618
  205YOPE   NH3 2583   5.008  14.471   9.797 -0.0409  0.2061 -0.3484
  205YOPE   PO4 2584   5.400  14.326   9.734  0.1564 -0.1552 -0.0959
  205YOPE   GL1 2585   5.542  14.213   9.401 -0.1341 -0.1573  0.0277
  205YOPE   GL2 2586   5.762  13.962   9.372 -0.0980 -0.1270  0.0781
  205YOPE   C1A 2587   5.386  14.096   8.970 -0.0262  0.1565 -0.0584
  205YOPE   D2A 2588   5.451  14.344   8.590 -0.1446 -0.0332 -0.2607
  205YOPE   C3A 2589   5.740  14.690   8.493  0.2167 -0.2135  0.0363
  205YOPE   C4A 2590   6.049  15.009   8.391 -0.1736  0.3313  0.0907
  205YOPE   C1B 2591   6.168  13.730   9.115 -0.3605 -0.1862  0.1347
  205YOPE   C2B 2592   6.086  13.708   8.597 -0.3002 -0.0163 -0.0838
  205YOPE   D3B 2593   6.165  13.541   8.311 -0.3359  0.0495 -0.1851
  205YOPE   C4B 2594   6.303  13.703   7.890  0.4473 -0.2261  0.2558
  206YOPE   NH3 2595   0.304   0.603  10.340 -0.0194 -0.3312  0.3128
  206YOPE   PO4 2596   0.409   1.046  10.468  0.2720  0.2387 -0.1141
  206YOPE   GL1 2597   0.436   1.343  10.213  0.0141 -0.0467 -0.2787
  206YOPE   GL2 2598   0.596   1.568  10.165 -0.0270 -0.1834  0.0115
  206YOPE   C1A 2599   0.379   1.236   9.762 -0.3808 -0.1065  0.1305
  206YOPE   D2A 2600   0.305   1.266   9.374 -0.2165 -0.0368  0.2302
  206YOPE   C3A 2601   0.608   1.536   9.221  0.0447 -0.1405  0.1866
  206YOPE   C4A 2602   0.773   1.730   8.872 -0.0485 -0.2371  0.0277
  206YOPE   C1B 2603   0.821   1.491   9.808  0.1344 -0.1891  0.2195
  206YOPE   C2B 2604   0.767   1.128   9.528 -0.1496  0.0174 -0.3628
  206YOPE   D3B 2605   1.037   0.845   9.320  0.4516  0.0878  0.4681
  206YOPE   C4B 2606   1.227   0.534   8.958 -0.0166  0.2667 -0.2452
  207YOPE   NH3 2607  10.620   0.020   9.635  0.1465  0.0745 -0.2547
  207YOPE   PO4 2608  10.464   0.401   9.658 -0.0003  0.2433 -0.3120
  207YOPE   GL1 2609  10.364   0.554   9.221  0.2604  0.0958  0.1110
  207YOPE   GL2 2610  10.303   0.133   9.202 -0.1241 -0.0732 -0.1875
  207YOPE   C1A 2611  10.395   0.491   8.722 -0.2721 -0.2595 -0.0137
  207YOPE   D2A 2612  10.552   0.562   8.318 -0.0465 -0.0240  0.1886
  207YOPE   C3A 2613  11.017   0.530   8.123  0.1841  0.1159  0.1526
  207YOPE   C4A 2614  11.140   0.778   7.701  0.4104  0.4602 -0.0223
  207YOPE   C1B 2615  10.424   0.034   8.866 -0.1529 -0.2321  0.2726
  207YOPE   C2B 2616  10.435   0.108   8.421  0.2255  0.1691  0.2605
  207YOPE   D3B 2617  10.198   0.309   8.102  0.2300 -0.0526  0.1901
  207YOPE   C4B 2618   9.765   0.224   7.969 -0.0809  0.1446  0.1097
  208YOPE   NH3 2619   7.578   1.453  10.347  0.0999 -0.0488 -0.6114
  208YOPE   PO4 2620   7.712   1.002  10.314 -0.3339 -0.2321  0.0675
  208YOPE   GL1 2621   7.807   0.824   9.936 -0.2116  0.0383  0.0513
  208YOPE   GL2 2622   8.056   0.792   9.737  0.2475 -0.0942  0.1061
  208YOPE   C1A 2623   7.607   0.605   9.507 -0.0040 -0.2329 -0.1430
  208YOPE   D2A 2624   7.611   0.371   9.052 -0.1459  0.0811  0.2707
  208YOPE   C3A 2625   7.726  -0.006   8.984 -0.1276 -0.0201 -0.1006
  208YOPE   C4A 2626   7.545  -0.422   8.785 -0.0171 -0.1315 -0.0465
  208YOPE   C1B 2627   8.063   0.524   9.335 -0.0937  0.1666  0.0583
  208YOPE   C2B 2628   8.047   0.558   8.882  0.0277 -0.3547  0.4676
  208YOPE   D3B 2629   8.029   0.623   8.479 -0.1725  0.0868 -0.2147
  208YOPE   C4B 2630   7.650   0.751   8.143 -0.0106 -0.3144  0.1187
  209YOPE   NH3 2631  13.664  13.888   9.903  0.1544 -0.0690 -0.3862
  209YOPE   PO4 2632  13.620  13.489  10.020 -0.0578 -0.1866  0.1750
  209YOPE   GL1 2633  13.817  13.394   9.730  0.0643 -0.1819 -0.3225
  209YOPE   GL2 2634  13.662  13.606   9.473  0.2397 -0.0223  0.1343
  209YOPE   C1A 2635  13.825  13.069   9.510  0.0353 -0.3610  0.2878
  209YOPE   D2A 2636  13.901  12.832   9.174 -0.1752 -0.1470 -0.1282
  209YOPE   C3A 2637  13.671  12.881   8.829  0.0914 -0.1962 -0.3863
  209YOPE   C4A 2638  13.995  13.097   8.605 -0.0262  0.3115 -0.2805
  209YOPE   C1B 2639  13.676  13.333   9.051 -0.2510  0.3276  0.2773
  209YOPE   C2B 2640  13.572  13.483   8.636 -0.3514 -0.1088 -0.0031
  209YOPE   D3B 2641  13.407  13.800   8.398 -0.0878  0.0231  0.2885
  209YOPE   C4B 2642  13.506  14.129   8.123  0.3271 -0.1491  0.2201
  210YOPE   NH3 2643  15.440   4.576  10.315  0.2075  0.2765 -0.2115
  210YOPE   PO4 2644  15.392   4.969  10.390 -0.1767  0.2069  0.0339
  210YOPE   GL1 2645  15.351   4.926   9.943 -0.0053  0.0776 -0.0555
  210YOPE   GL2 2646  15.193   5.157   9.896 -0.1744  0.0632  0.2405
  210YOPE   C1A 2647  15.557   4.783   9.671  0.1985 -0.0588 -0.3322
  210YOPE   D2A 2648  15.482   4.819   9.276 -0.1935 -0.1620  0.5964
  210YOPE   C3A 2649  15.602   4.660   8.859  0.2268 -0.1186 -0.2128
  210YOPE   C4A 2650  15.838   4.443   8.479 -0.1791 -0.0112 -0.2543
  210YOPE   C1B 2651  15.429   5.257   9.557 -0.0912 -0.1086 -0.2329
  210YOPE   C2B 2652  15.551   5.311   9.159 -0.0044 -0.1465 -0.2726
  210YOPE   D3B 2653  15.864   5.074   8.831  0.0027  0.0190 -0.0410
  210YOPE   C4B 2654  16.102   4.873   8.474 -0.1013 -0.0299 -0.6827
  211YOPE   NH3 2655  10.443   3.285   9.822 -0.2863 -0.0213  0.0278
  211YOPE   PO4 2656  10.285   3.632   9.888 -0.0878 -0.0313 -0.3327
  211YOPE   GL1 2657  10.391   3.619   9.469  0.2587  0.2652 -0.0615
  211YOPE   GL2 2658  10.611   3.764   9.365  0.0075 -0.0399  0.1493
  211YOPE   C1A 2659  10.405   3.487   9.070 -0.2556  0.0404 -0.0826
  211YOPE   D2A 2660  10.330   3.627   8.671 -0.0373  0.0989  0.0336
  211YOPE   C3A 2661  10.466   3.587   8.190  0.2021 -0.1554  0.0538
  211YOPE   C4A 2662  10.583   3.464   7.780 -0.3905  0.1324  0.2879
  211YOPE   C1B 2663  10.897   3.936   8.985  0.0507  0.1227  0.1199
  211YOPE   C2B 2664  10.997   4.044   8.529  0.1133  0.1115 -0.1344
  211YOPE   D3B 2665  11.266   4.074   8.123  0.0927 -0.0452  0.0943
  211YOPE   C4B 2666  11.583   3.972   7.812 -0.1298 -0.3715 -0.4780
  212YOPE   NH3 2667   7.786   9.221   9.900 -0.0952  0.0729 -0.2165
  212YOPE   PO4 2668   7.602   8.817  10.000  0.1207  0.2593  0.0050
  212YOPE   GL1 2669   7.471   8.950   9.554 -0.0625  0.2152 -0.3149
  212YOPE   GL2 2670   7.583   8.927   9.311 -0.1383 -0.0133 -0.0531
  212YOPE   C1A 2671   7.452   9.386   9.305  0.0404 -0.1031  0.0741
  212YOPE   D2A 2672   7.099   9.581   9.025  0.3972 -0.1866 -0.2933
  212YOPE   C3A 2673   7.112   9.610   8.608 -0.1801 -0.2971  0.1271
  212YOPE   C4A 2674   6.995   9.936   8.390  0.2031  0.0964 -0.3384
  212YOPE   C1B 2675   7.762   8.696   9.011 -0.1176  0.1102  0.3124
  212YOPE   C2B 2676   7.931   8.437   8.713  0.0602  0.2297 -0.4749
  212YOPE   D3B 2677   8.143   8.653   8.334  0.1098  0.2046 -0.3489
  212YOPE   C4B 2678   8.210   9.066   8.159  0.0708  0.3014  0.0233
  213YOPE   NH3 2679  10.681   7.163  10.594  0.4385 -0.0005 -0.2159
  213YOPE   PO4 2680  11.017   7.199  10.536  0.0243  0.0146 -0.1226
  213YOPE   GL1 2681  10.960   7.086  10.107  0.0541  0.0627 -0.0998
  213YOPE   GL2 2682  10.833   6.766  10.148  0.1148  0.1037 -0.4522
  213YOPE   C1A 2683  11.086   6.955   9.667  0.0071 -0.1484  0.3964
  213YOPE   D2A 2684  10.933   6.961   9.191  0.0024  0.1644  0.2464
  213YOPE   C3A 2685  10.511   6.864   9.181 -0.0935 -0.2885 -0.0577
  213YOPE   C4A 2686  10.113   6.894   9.034 -0.1150  0.0061 -0.0543
  213YOPE   C1B 2687  11.041   6.466   9.845 -0.1511 -0.2640  0.3986
  213YOPE   C2B 2688  11.177   6.116   9.612  0.3962 -0.0196 -0.1354
  213YOPE   D3B 2689  11.211   6.135   9.201 -0.1249  0.2266  0.3507
  213YOPE   C4B 2690  11.340   6.232   8.762  0.0497 -0.0460 -0.0519
  214YOPE   NH3 2691   3.670  13.284   9.863  0.0967  0.2664  0.0854
  214YOPE   PO4 2692   3.250  13.612   9.842 -0.0622  0.4215  0.1199
  214YOPE   GL1 2693   3.137  13.507   9.452  0.2941 -0.2345 -0.0787
  214YOPE   GL2 2694   2.824  13.425   9.317 -0.1485 -0.1163 -0.3003
  214YOPE   C1A 2695   3.294  13.476   9.052 -0.3438 -0.1911 -0.0020
  214YOPE   D2A 2696   3.479  13.537   8.680  0.4165  0.2941 -0.0113
  214YOPE   C3A 2697   3.359  13.450   8.234  0.1596  0.1712  0.1294
  214YOPE   C4A 2698   3.250  13.340   7.766 -0.1414  0.0369 -0.1910
  214YOPE   C1B 2699   2.891  13.379   8.841  0.1169  0.0783 -0.0803
  214YOPE   C2B 2700   2.862  13.410   8.447  0.0687 -0.2145  0.0540
  214YOPE   D3B 2701   2.878  13.212   8.113 -0.1988 -0.1787  0.0194
  214YOPE   C4B 2702   3.034  12.879   7.944 -0.1862 -0.1359 -0.1869
  215YOPE   NH3 2703   1.393  18.338  10.337 -0.0195  0.1880 -0.1843
  215YOPE   PO4 2704   1.005  18.499  10.460  0.0914  0.0205  0.0327
  215YOPE   GL1 2705   1.083  18.517   9.999  0.0921  0.1894 -0.0407
  215YOPE   GL2 2706   1.409  18.629   9.819  0.2791  0.3285  0.0782
  215YOPE   C1A 2707   0.999  18.320   9.648 -0.1393  0.0559 -0.0564
  215YOPE   D2A 2708   1.137  18.094   9.328  0.0472  0.3257  0.1171
  215YOPE   C3A 2709   0.949  18.047   8.872  0.3884  0.2266 -0.0408
  215YOPE   C4A 2710   1.293  17.840   8.867 -0.0366  0.2052  0.3948
  215YOPE   C1B 2711   1.221  18.627   9.355  0.0192  0.2374 -0.2808
  215YOPE   C2B 2712   1.105  18.520   8.970 -0.2738  0.2632 -0.0153
  215YOPE   D3B 2713   1.341  18.529   8.533 -0.2403  0.1857 -0.3965
  215YOPE   C4B 2714   1.725  18.649   8.342  0.1573 -0.0293 -0.2828
  216YOPE   NH3 2715  12.765   8.559  10.835 -0.2363  0.0858 -0.0772
  216YOPE   PO4 2716  13.086   8.609  10.505  0.2508 -0.1514  0.3642
  216YOPE   GL1 2717  13.213   8.308  10.215 -0.0677 -0.0614  0.0878
  216YOPE   GL2 2718  13.390   8.520  10.079 -0.0686 -0.3164 -0.1785
  216YOPE   C1A 2719  13.133   8.026   9.862 -0.3651  0.1461  0.1312
  216YOPE   D2A 2720  12.878   7.999   9.501 -0.0027 -0.0923 -0.3076
  216YOPE   C3A 2721  13.132   7.830   9.096 -0.0444  0.2712  0.1046
  216YOPE   C4A 2722  13.143   7.896   8.607 -0.0701 -0.1289 -0.0851
  216YOPE   C1B 2723  13.280   8.610   9.712  0.1549 -0.1754  0.2813
  216YOPE   C2B 2724  13.492   8.973   9.529  0.5241  0.0545  0.0475
  216YOPE   D3B 2725  13.450   9.109   9.191 -0.2295 -0.0620 -0.2659
  216YOPE   C4B 2726  13.427   9.036   8.748 -0.1863  0.0881  0.1183
  217YOPE   NH3 2727  14.444   7.641  10.910 -0.1782  0.0914  0.1462
  217YOPE   PO4 2728  14.262   8.044  10.942 -0.0258  0.0532 -0.1391
  217YOPE   GL1 2729  14.389   8.034  10.486  0.4467 -0.1625  0.0564
  217YOPE   GL2 2730  14.609   8.279  10.396  0.0466 -0.0293 -0.0197
  217YOPE   C1A 2731  14.441   7.799   9.986 -0.1333  0.2107  0.1899
  217YOPE   D2A 2732  14.146   7.579   9.761 -0.0025 -0.1111  0.4214
  217YOPE   C3A 2733  14.151   7.482   9.305  0.2879 -0.3384 -0.1100
  217YOPE   C4A 2734  13.918   7.295   8.995  0.2349  0.1017  0.0035
  217YOPE   C1B 2735  14.605   8.259   9.952 -0.0449  0.1025 -0.0584
  217YOPE   C2B 2736  14.496   8.048   9.522 -0.1152 -0.3564  0.3339
  217YOPE   D3B 2737  14.456   7.966   9.062 -0.1688 -0.0036 -0.0496
  217YOPE   C4B 2738  14.206   8.222   8.782 -0.1961  0.0073 -0.2294
  218YOPE   NH3 2739   9.858  15.684   9.662  0.0355  0.0519 -0.0941
  218YOPE   PO4 2740   9.665  15.281   9.918 -0.1948  0.3090 -0.0049
  218YOPE   GL1 2741   9.632  15.227   9.579 -0.0135 -0.2880  0.0537
  218YOPE   GL2 2742   9.460  14.919   9.487 -0.2272 -0.0289  0.0590
  218YOPE   C1A 2743   9.844  15.041   9.252 -0.0538 -0.0570 -0.2443
  218YOPE   D2A 2744   9.782  14.858   8.842  0.1372  0.3623 -0.0577
  218YOPE   C3A 2745  10.024  15.023   8.516  0.1200  0.3159  0.0074
  218YOPE   C4A 2746  10.215  15.084   8.232 -0.0142  0.0378  0.1055
  218YOPE   C1B 2747   9.319  14.770   9.049  0.0072 -0.0850 -0.3491
  218YOPE   C2B 2748   9.336  14.594   8.653  0.1515 -0.1337 -0.2119
  218YOPE   D3B 2749   9.655  14.720   8.266  0.2968  0.4098  0.2813
  218YOPE   C4B 2750   9.734  14.978   7.941 -0.1355  0.3115 -0.1827
  219YOPE   NH3 2751   1.750   5.188  10.218 -0.0737  0.0771 -0.1624
  219YOPE   PO4 2752   1.547   5.507  10.394  0.3496  0.0680 -0.3060
  219YOPE   GL1 2753   1.364   5.569  10.057 -0.1045 -0.1434  0.3780
  219YOPE   GL2 2754   1.276   5.870  10.149  0.0471 -0.2850  0.1412
  219YOPE   C1A 2755   1.565   5.537   9.725  0.0572 -0.0555 -0.0350
  219YOPE   D2A 2756   1.466   5.593   9.319 -0.0473 -0.1765 -0.4157
  219YOPE   C3A 2757   1.032   5.689   9.161  0.0291  0.2776  0.0606
  219YOPE   C4A 2758   0.739   5.919   9.335  0.0076  0.2192  0.0955
  219YOPE   C1B 2759   1.433   5.992   9.688 -0.1093 -0.5535  0.5067
  219YOPE   C2B 2760   1.332   6.125   9.178 -0.0775  0.0071 -0.0413
  219YOPE   D3B 2761   1.027   6.116   8.962  0.2797 -0.0903  0.0452
  219YOPE   C4B 2762   0.570   6.252   8.942 -0.1062  0.0953  0.1228
  220YOPE   NH3 2763   7.261  12.148   9.918 -0.3058  0.1710  0.2494
  220YOPE   PO4 2764   7.343  11.885  10.311 -0.0496 -0.2759 -0.0122
  220YOPE   GL1 2765   7.242  11.633  10.004 -0.0578  0.1579  0.1495
  220YOPE   GL2 2766   7.427  11.694   9.622  0.0792  0.2964  0.0003
  220YOPE   C1A 2767   6.951  11.565   9.744  0.0319 -0.1426 -0.1366
  220YOPE   D2A 2768   7.073  11.604   9.270 -0.0458  0.0872  0.3960
  220YOPE   C3A 2769   6.945  11.462   8.884 -0.0861 -0.2179 -0.0017
  220YOPE   C4A 2770   7.089  11.414   8.439  0.0139 -0.1520  0.0686
  220YOPE   C1B 2771   7.465  11.356   9.366  0.1188  0.0845  0.4441
  220YOPE   C2B 2772   7.274  11.136   8.979 -0.0452 -0.0705 -0.1062
  220YOPE   D3B 2773   7.251  10.985   8.675 -0.2457  0.1341  0.0323
  220YOPE   C4B 2774   6.938  10.901   8.388  0.2544  0.2644  0.4114
  221YOPE   NH3 2775   6.131   4.497   9.984  0.0887 -0.0465  0.2627
  221YOPE   PO4 2776   5.637   4.555  10.073  0.0527 -0.2260  0.0735
  221YOPE   GL1 2777   5.738   4.608   9.624 -0.3138  0.1395  0.0162
  221YOPE   GL2 2778   5.979   4.648   9.397  0.2403  0.0450 -0.0841
  221YOPE   C1A 2779   5.542   4.588   9.181  0.2915 -0.0315 -0.1416
  221YOPE   D2A 2780   5.681   4.462   8.808  0.1683  0.0695  0.3239
  221YOPE   C3A 2781   5.652   4.374   8.442  0.2061  0.0732 -0.0315
  221YOPE   C4A 2782   5.693   4.521   8.025 -0.0832  0.0640 -0.0063
  221YOPE   C1B 2783   5.979   4.816   8.933  0.0510 -0.2335  0.0191
  221YOPE   C2B 2784   5.938   4.781   8.500  0.3020  0.2866 -0.3799
  221YOPE   D3B 2785   5.993   4.881   8.105  0.0094 -0.2078 -0.1203
  221YOPE   C4B 2786   5.718   5.116   7.879  0.0086 -0.1967 -0.0171
  222YOPE   NH3 2787   9.418   4.136  10.035  0.1382  0.2160 -0.0530
  222YOPE   PO4 2788   9.598   4.360   9.921  0.1135 -0.3145  0.0217
  222YOPE   GL1 2789  10.033   4.376   9.679  0.1497  0.1309  0.2418
  222YOPE   GL2 2790  10.254   4.087   9.574  0.0963 -0.0146  0.0848
  222YOPE   C1A 2791  10.253   4.576   9.372  0.0239 -0.0992  0.2039
  222YOPE   D2A 2792  10.211   4.673   8.893 -0.2172  0.1792  0.0510
  222YOPE   C3A 2793  10.287   4.695   8.479 -0.2847  0.2939 -0.1273
  222YOPE   C4A 2794  10.341   5.122   8.409 -0.0767  0.0818  0.1187
  222YOPE   C1B 2795  10.084   3.889   9.188  0.0067  0.0490 -0.0452
  222YOPE   C2B 2796   9.888   3.818   8.812  0.0953  0.1833 -0.0074
  222YOPE   D3B 2797   9.802   3.692   8.389 -0.1212 -0.1284  0.0383
  222YOPE   C4B 2798  10.020   3.721   8.044 -0.0496  0.0187 -0.1504
  223YOPE   NH3 2799  16.643   6.322  10.220  0.2088  0.1133 -0.0974
  223YOPE   PO4 2800  17.013   6.261  10.564  0.1355 -0.1607 -0.4027
  223YOPE   GL1 2801  17.258   6.418  10.158 -0.0708  0.1318  0.1034
  223YOPE   GL2 2802  17.470   6.194  10.043 -0.1018  0.0447 -0.5155
  223YOPE   C1A 2803  17.145   6.687   9.793 -0.0328  0.1436  0.0191
  223YOPE   D2A 2804  17.019   6.602   9.376 -0.1498  0.0557  0.3112
  223YOPE   C3A 2805  17.174   6.765   8.946 -0.3463 -0.1124  0.1218
  223YOPE   C4A 2806  17.435   7.057   8.713 -0.1203 -0.5760 -0.0278
  223YOPE   C1B 2807  17.433   6.165   9.646  0.1166  0.0382 -0.3715
  223YOPE   C2B 2808  17.565   6.009   9.268 -0.3690 -0.0804 -0.4567
  223YOPE   D3B 2809  17.524   6.051   8.814  0.0455  0.0204  0.1061
  223YOPE   C4B 2810  17.449   6.252   8.511 -0.2549 -0.0111 -0.0065
  224YOPE   NH3 2811  18.112  14.956  10.023  0.1399 -0.1043 -0.0004
  224YOPE   PO4 2812  18.241  15.356  10.170 -0.1076  0.1337 -0.1088
  224YOPE   GL1 2813  18.399  15.277   9.778 -0.1404 -0.1231  0.1807
  224YOPE   GL2 2814  18.009  15.348   9.694 -0.0734  0.2396 -0.0283
  224YOPE   C1A 2815  18.728  15.395   9.450  0.1719 -0.3445  0.3916
  224YOPE   D2A 2816  18.757  15.669   9.149 -0.2439  0.0467  0.1254
  224YOPE   C3A 2817  18.800  15.537   8.648  0.1027  0.1002 -0.1193
  224YOPE   C4A 2818  18.776  15.687   8.177  0.0704 -0.1379 -0.1046
  224YOPE   C1B 2819  18.239  15.302   9.306 -0.4156  0.1182  0.0286
  224YOPE   C2B 2820  18.273  15.383   8.948 -0.2649  0.3324  0.0014
  224YOPE   D3B 2821  18.206  15.574   8.563  0.0864 -0.1547 -0.3267
  224YOPE   C4B 2822  18.183  15.883   8.286  0.0823 -0.0405 -0.1898
  225YOPE   NH3 2823   4.807   1.058  10.191 -0.0656 -0.0544 -0.1695
  225YOPE   PO4 2824   4.998   1.594  10.129 -0.2441 -0.0132  0.1567
  225YOPE   GL1 2825   5.152   1.340   9.805 -0.1734 -0.4309 -0.0447
  225YOPE   GL2 2826   5.343   1.511   9.708 -0.1284  0.0151  0.0006
  225YOPE   C1A 2827   4.977   1.059   9.535 -0.1069 -0.0489  0.3608
  225YOPE   D2A 2828   4.679   1.072   9.293  0.1559  0.1483  0.1579
  225YOPE   C3A 2829   4.531   1.100   8.877  0.0649 -0.0024  0.0016
  225YOPE   C4A 2830   4.507   1.059   8.435 -0.0947 -0.1348 -0.0932
  225YOPE   C1B 2831   5.377   1.383   9.324  0.1051  0.0606 -0.2426
  225YOPE   C2B 2832   5.004   1.324   8.987 -0.0468  0.0501  0.2812
  225YOPE   D3B 2833   4.941   1.316   8.482 -0.3621 -0.0574  0.0861
  225YOPE   C4B 2834   4.964   1.622   8.212  0.0013  0.0024  0.2524
  226YOPE   NH3 2835   3.226   9.763  10.145  0.3042 -0.2007  0.0472
  226YOPE   PO4 2836   3.671   9.904   9.948  0.1302 -0.0866 -0.2454
  226YOPE   GL1 2837   3.500   9.958   9.538 -0.0837 -0.0939  0.1160
  226YOPE   GL2 2838   3.721   9.953   9.486  0.0735 -0.0470  0.3534
  226YOPE   C1A 2839   3.145  10.101   9.365  0.1161  0.3016  0.0346
  226YOPE   D2A 2840   2.788  10.296   9.086  0.0413  0.3934  0.0486
  226YOPE   C3A 2841   2.451  10.150   8.956  0.0634 -0.1798 -0.0077
  226YOPE   C4A 2842   2.301  10.128   8.706 -0.2635  0.2018  0.0165
  226YOPE   C1B 2843   3.645  10.110   9.076 -0.2735 -0.0758 -0.0707
  226YOPE   C2B 2844   3.688  10.134   8.617 -0.3232  0.1469  0.2761
  226YOPE   D3B 2845   3.759  10.063   8.187  0.2052  0.3321  0.2391
  226YOPE   C4B 2846   3.882  10.119   7.769 -0.0179  0.3167  0.0687
  227YOPE   NH3 2847  10.523  13.262   9.716  0.2037  0.2742  0.0936
  227YOPE   PO4 2848  10.279  12.991   9.848  0.1933 -0.0148  0.1028
  227YOPE   GL1 2849  10.385  12.796   9.449 -0.1628 -0.1300 -0.2563
  227YOPE   GL2 2850  10.682  12.835   9.416  0.1868 -0.0858  0.2171
  227YOPE   C1A 2851  10.503  12.360   9.397 -0.0676  0.3228 -0.2018
  227YOPE   D2A 2852  10.624  12.139   9.014 -0.1779  0.0520  0.3628
  227YOPE   C3A 2853  10.470  11.766   8.775 -0.3497 -0.2799 -0.0470
  227YOPE   C4A 2854  10.799  11.461   8.586  0.0503  0.0509 -0.1697
  227YOPE   C1B 2855  10.726  12.703   8.989  0.0609 -0.0319 -0.1265
  227YOPE   C2B 2856  10.582  12.569   8.663  0.1763 -0.1838 -0.2671
  227YOPE   D3B 2857  10.837  12.572   8.328  0.0687  0.0107 -0.1477
  227YOPE   C4B 2858  10.920  12.823   8.032  0.1625  0.1357 -0.0438
  228YOPE   NH3 2859   2.818   7.147  10.425 -0.0065 -0.1397  0.0101
  228YOPE   PO4 2860   2.719   6.889  10.178  0.0152 -0.3237  0.0162
  228YOPE   GL1 2861   2.974   7.107   9.927  0.3388 -0.1929  0.1745
  228YOPE   GL2 2862   3.117   6.877   9.784  0.1784 -0.0189  0.1001
  228YOPE   C1A 2863   2.954   7.573   9.890  0.1838  0.0426  0.0598
  228YOPE   D2A 2864   3.097   8.062   9.634  0.3297  0.1962 -0.0812
  228YOPE   C3A 2865   3.014   8.110   9.300  0.0094  0.1761 -0.0302
  228YOPE   C4A 2866   3.022   7.976   8.941 -0.1788 -0.0285 -0.0103
  228YOPE   C1B 2867   2.929   6.809   9.341 -0.0009  0.2448  0.1576
  228YOPE   C2B 2868   2.852   6.877   9.029  0.0756  0.3025  0.3765
  228YOPE   D3B 2869   2.571   6.788   8.688  0.0955 -0.2631 -0.2386
  228YOPE   C4B 2870   2.453   6.775   8.294  0.2202 -0.0669 -0.1537
  229YOPE   NH3 2871   6.900  16.919  10.159 -0.0671  0.2143 -0.2767
  229YOPE   PO4 2872   6.862  17.432  10.205  0.3207 -0.0114  0.2663
  229YOPE   GL1 2873   6.847  17.529   9.753 -0.1136 -0.1156 -0.1340
  229YOPE   GL2 2874   6.692  17.175   9.781  0.0023  0.1699 -0.2581
  229YOPE   C1A 2875   7.111  17.317   9.426 -0.1946 -0.0967  0.0206
  229YOPE   D2A 2876   7.373  17.343   9.084 -0.0895  0.0140  0.1495
  229YOPE   C3A 2877   7.166  17.671   8.770 -0.4445  0.1098  0.0014
  229YOPE   C4A 2878   7.066  18.026   8.599  0.1495  0.2198 -0.2627
  229YOPE   C1B 2879   6.504  16.821   9.421 -0.1916  0.0120  0.1253
  229YOPE   C2B 2880   6.451  16.793   8.912  0.0085 -0.0851 -0.3112
  229YOPE   D3B 2881   6.593  16.878   8.480  0.1020 -0.0352 -0.0989
  229YOPE   C4B 2882   6.805  17.246   8.359 -0.1408  0.0728  0.0773
  230YOPE   NH3 2883  16.771  10.065  10.164 -0.0758 -0.0488  0.2402
  230YOPE   PO4 2884  17.164  10.035  10.284 -0.1283  0.0694  0.0376
  230YOPE   GL1 2885  17.253  10.422   9.928 -0.0886 -0.2955  0.4544
  230YOPE   GL2 2886  16.999  10.570   9.873  0.0830 -0.1074  0.1052
  230YOPE   C1A 2887  17.412  10.467   9.581 -0.1376 -0.2216  0.3690
  230YOPE   D2A 2888  17.510  10.175   9.205  0.2846  0.2176 -0.0532
  230YOPE   C3A 2889  17.905   9.963   9.295  0.0882 -0.0311 -0.1936
  230YOPE   C4A 2890  18.047   9.640   9.545 -0.0084 -0.0650 -0.0850
  230YOPE   C1B 2891  16.998  10.324   9.436 -0.1994  0.3182  0.2848
  230YOPE   C2B 2892  16.979  10.256   8.956  0.2128  0.0382 -0.0085
  230YOPE   D3B 2893  17.216  10.104   8.712 -0.0962 -0.0926 -0.2470
  230YOPE   C4B 2894  16.913   9.846   8.487  0.2240  0.1438  0.1664
  231YOPE   NH3 2895   9.195   8.355  10.580 -0.2221  0.0380 -0.0266
  231YOPE   PO4 2896   8.866   8.630  10.429  0.0491  0.2079 -0.0950
  231YOPE   GL1 2897   8.877   8.515  10.027  0.0443 -0.0449 -0.1525
  231YOPE   GL2 2898   8.570   8.541   9.819  0.2770  0.1355 -0.1076
  231YOPE   C1A 2899   9.013   8.490   9.614 -0.0572  0.0142 -0.2807
  231YOPE   D2A 2900   9.196   8.597   9.244  0.0730 -0.3050 -0.2808
  231YOPE   C3A 2901   9.534   8.400   8.958  0.1726  0.0907 -0.5229
  231YOPE   C4A 2902   9.536   8.277   8.653  0.2516  0.0588 -0.0974
  231YOPE   C1B 2903   8.580   8.709   9.447  0.1119 -0.2192 -0.0704
  231YOPE   C2B 2904   8.765   8.741   9.133  0.0757 -0.0511  0.1908
  231YOPE   D3B 2905   9.029   8.638   8.749  0.2360 -0.1892 -0.2679
  231YOPE   C4B 2906   9.127   8.951   8.430 -0.2678  0.1593  0.0328
  232YOPE   NH3 2907   8.731   1.980   9.628 -0.1960 -0.1154 -0.1976
  232YOPE   PO4 2908   8.792   2.402   9.892 -0.0295  0.2773 -0.1199
  232YOPE   GL1 2909   8.965   2.408   9.510  0.3028  0.2030 -0.2376
  232YOPE   GL2 2910   9.175   2.185   9.398 -0.0443 -0.2971  0.2165
  232YOPE   C1A 2911   8.840   2.303   9.059 -0.4361  0.0675 -0.0745
  232YOPE   D2A 2912   8.990   2.365   8.678  0.2423  0.1840 -0.0076
  232YOPE   C3A 2913   9.147   2.125   8.252  0.1565 -0.2852  0.0780
  232YOPE   C4A 2914   9.395   2.233   7.958  0.0952 -0.1433  0.0247
  232YOPE   C1B 2915   9.488   2.217   9.098  0.3156  0.0774  0.1477
  232YOPE   C2B 2916   9.433   2.211   8.759 -0.1850  0.1253 -0.0821
  232YOPE   D3B 2917   9.396   2.551   8.448 -0.1087 -0.3256 -0.0913
  232YOPE   C4B 2918   9.113   2.674   8.169 -0.0802  0.1557 -0.1272
  233YOPE   NH3 2919   0.936  11.415  10.280 -0.2296  0.1511 -0.1683
  233YOPE   PO4 2920   0.754  11.069  10.459  0.2614 -0.0868 -0.2811
  233YOPE   GL1 2921   0.638  11.147  10.006  0.2130  0.2346  0.1177
  233YOPE   GL2 2922   0.496  11.383   9.937  0.1296 -0.0458 -0.0953
  233YOPE   C1A 2923   0.739  10.989   9.663  0.1606 -0.2522  0.0180
  233YOPE   D2A 2924   0.985  11.177   9.484  0.1147 -0.0989 -0.0154
  233YOPE   C3A 2925   0.756  11.235   8.962  0.2164  0.4299 -0.1001
  233YOPE   C4A 2926   0.765  11.201   8.429  0.0730 -0.0764  0.0460
  233YOPE   C1B 2927   0.595  11.480   9.481 -0.0418  0.0641  0.1845
  233YOPE   C2B 2928   0.413  11.675   9.116 -0.3075  0.0549  0.0051
  233YOPE   D3B 2929   0.608  11.800   8.677 -0.1714  0.0259  0.1745
  233YOPE   C4B 2930   0.734  11.811   8.258  0.2702  0.1999 -0.1292
  234YOPE   NH3 2931  16.710  16.995   9.952 -0.0014 -0.1835 -0.1594
  234YOPE   PO4 2932  16.638  16.517   9.903  0.0772  0.1239  0.2503
  234YOPE   GL1 2933  16.584  16.297   9.434  0.2052  0.0198 -0.2602
  234YOPE   GL2 2934  16.279  16.116   9.589  0.0936  0.0294 -0.0289
  234YOPE   C1A 2935  16.546  16.367   8.968  0.0447 -0.2030 -0.3579
  234YOPE   D2A 2936  16.470  16.287   8.503 -0.0139  0.2568 -0.0603
  234YOPE   C3A 2937  16.413  16.473   8.132 -0.0189 -0.0861 -0.1284
  234YOPE   C4A 2938  16.126  16.708   7.883  0.0514 -0.0599  0.0832
  234YOPE   C1B 2939  16.047  16.145   9.200  0.0038  0.1959  0.0675
  234YOPE   C2B 2940  15.959  16.133   8.749 -0.2296  0.3006  0.1314
  234YOPE   D3B 2941  16.016  16.250   8.288  0.0363 -0.2129  0.2115
  234YOPE   C4B 2942  15.704  16.457   8.170 -0.2291  0.0179 -0.3592
  235YOPE   NH3 2943   9.131   4.549   9.908 -0.5396 -0.0387 -0.0009
  235YOPE   PO4 2944   8.789   4.808   9.905 -0.1833  0.0929 -0.3606
  235YOPE   GL1 2945   8.972   4.911   9.554  0.2003  0.3258  0.0972
  235YOPE   GL2 2946   8.795   4.582   9.390  0.0810  0.3825 -0.1007
  235YOPE   C1A 2947   9.207   5.042   9.248 -0.2047  0.0123 -0.1268
  235YOPE   D2A 2948   9.341   5.356   8.883  0.0506  0.1467 -0.0138
  235YOPE   C3A 2949   9.553   5.402   8.642  0.2051  0.0515 -0.0526
  235YOPE   C4A 2950   9.870   5.195   8.335 -0.1410  0.2506 -0.0407
  235YOPE   C1B 2951   8.901   4.768   8.967  0.1132  0.0736  0.1102
  235YOPE   C2B 2952   8.884   5.049   8.707  0.1316 -0.0450 -0.1825
  235YOPE   D3B 2953   9.073   5.309   8.429  0.2061  0.0618 -0.0944
  235YOPE   C4B 2954   8.988   5.537   8.077  0.2152  0.1026 -0.1088
  236YOPE   NH3 2955   9.053  13.418  10.084  0.0240 -0.0521 -0.0529
  236YOPE   PO4 2956   9.148  13.871  10.008  0.2792 -0.0415 -0.0772
  236YOPE   GL1 2957   9.126  13.713   9.594 -0.1126 -0.0832 -0.2886
  236YOPE   GL2 2958   8.937  13.510   9.487  0.0577  0.1661 -0.1043
  236YOPE   C1A 2959   9.309  13.726   9.187 -0.0544 -0.0088  0.0236
  236YOPE   D2A 2960   9.553  13.868   8.961  0.0598  0.2590 -0.0381
  236YOPE   C3A 2961   9.486  13.708   8.564 -0.0006 -0.1877  0.2662
  236YOPE   C4A 2962   9.697  13.721   8.281 -0.0481 -0.0992 -0.2869
  236YOPE   C1B 2963   8.897  13.219   9.162  0.0656 -0.1826  0.0516
  236YOPE   C2B 2964   8.820  13.208   8.759  0.0816 -0.1626  0.2217
  236YOPE   D3B 2965   8.631  13.107   8.274 -0.1487  0.1134 -0.0043
  236YOPE   C4B 2966   8.433  12.710   8.255  0.1485  0.2178  0.3712
  237YOPE   NH3 2967  11.083   9.976  10.037 -0.1380  0.0119  0.0114
  237YOPE   PO4 2968  11.441  10.064  10.296 -0.0179 -0.0234  0.2505
  237YOPE   GL1 2969  11.667  10.189   9.883 -0.2377 -0.0780  0.1682
  237YOPE   GL2 2970  11.554   9.964   9.707 -0.0046  0.1306 -0.1980
  237YOPE   C1A 2971  12.000  10.213   9.568 -0.0036 -0.0385 -0.1886
  237YOPE   D2A 2972  12.194   9.995   9.257  0.1076 -0.0895  0.1392
  237YOPE   C3A 2973  12.171  10.347   8.980 -0.2396  0.2330  0.0650
  237YOPE   C4A 2974  12.483  10.576   8.786 -0.1656 -0.2752 -0.2069
  237YOPE   C1B 2975  11.710   9.910   9.272  0.1334  0.2520  0.0803
  237YOPE   C2B 2976  11.929   9.620   8.891 -0.0201  0.0416  0.1346
  237YOPE   D3B 2977  12.143   9.246   8.632 -0.0202 -0.1027  0.2560
  237YOPE   C4B 2978  12.430   8.914   8.571 -0.0010  0.0654 -0.1832
  238YOPE   NH3 2979  11.717  10.760  10.359  0.1679  0.0690 -0.3622
  238YOPE   PO4 2980  11.797  10.323  10.389  0.0148  0.0083  0.2136
  238YOPE   GL1 2981  12.046  10.524  10.052 -0.1729 -0.0611 -0.1266
  238YOPE   GL2 2982  12.308  10.677  10.100 -0.1266  0.0674 -0.0353
  238YOPE   C1A 2983  12.151  10.686   9.624 -0.2038  0.2097  0.0520
  238YOPE   D2A 2984  12.180  10.767   9.215 -0.0530 -0.2769 -0.2362
  238YOPE   C3A 2985  11.988  10.779   8.744 -0.1834  0.0959 -0.0871
  238YOPE   C4A 2986  11.867  10.586   8.423  0.0461 -0.0957 -0.0031
  238YOPE   C1B 2987  12.462  10.309   9.842  0.1797 -0.1595  0.0210
  238YOPE   C2B 2988  12.508  10.350   9.391  0.3616 -0.2723 -0.1530
  238YOPE   D3B 2989  12.665  10.134   9.060 -0.1181  0.1517 -0.1348
  238YOPE   C4B 2990  12.885  10.073   8.639 -0.4110 -0.2628  0.1747
  239YOPE   NH3 2991  13.764   5.801  10.816 -0.0120  0.0542 -0.0249
  239YOPE   PO4 2992  14.074   5.398  10.765  0.1625  0.0776  0.1030
  239YOPE   GL1 2993  14.288   5.652  10.323  0.3036  0.0101  0.0864
  239YOPE   GL2 2994  14.007   5.817  10.344  0.0153  0.2359 -0.1230
  239YOPE   C1A 2995  14.445   6.023  10.077  0.1482 -0.1526  0.1065
  239YOPE   D2A 2996  14.490   6.343   9.801  0.0166  0.0542  0.0870
  239YOPE   C3A 2997  14.617   6.397   9.381  0.0634  0.4566 -0.3036
  239YOPE   C4A 2998  14.887   6.305   9.099 -0.1962  0.2671 -0.1196
  239YOPE   C1B 2999  13.912   6.078   9.979 -0.1387  0.0172 -0.0859
  239YOPE   C2B 3000  13.787   6.095   9.521 -0.0280 -0.4508 -0.0882
  239YOPE   D3B 3001  13.505   5.978   9.237 -0.1023 -0.0007  0.1251
  239YOPE   C4B 3002  13.172   6.157   9.013 -0.2004 -0.0096 -0.1473
  240YOPE   NH3 3003   9.170   5.869  10.206  0.1990  0.0584 -0.2724
  240YOPE   PO4 3004   9.345   5.569   9.911 -0.1876 -0.0084  0.2424
  240YOPE   GL1 3005   9.196   5.964   9.697 -0.2229  0.3091 -0.1932
  240YOPE   GL2 3006   8.948   5.889   9.751  0.0561  0.1303  0.1273
  240YOPE   C1A 3007   9.003   6.206   9.363  0.2072  0.3535  0.3601
  240YOPE   D2A 3008   9.080   6.422   9.017 -0.0172  0.1107  0.1169
  240YOPE   C3A 3009   9.195   6.246   8.703  0.2152  0.1703 -0.0016
  240YOPE   C4A 3010   9.406   6.243   8.390 -0.0080 -0.1212  0.2367
  240YOPE   C1B 3011   8.541   6.109   9.698 -0.3391 -0.0866  0.2662
  240YOPE   C2B 3012   8.280   6.363   9.542 -0.2901  0.0588  0.2083
  240YOPE   D3B 3013   8.047   6.389   9.307 -0.4678  0.0222 -0.0516
  240YOPE   C4B 3014   8.050   6.553   8.971 -0.3091 -0.0152  0.1938
  241YOPE   NH3 3015  14.245   1.004  10.480 -0.1777 -0.1257 -0.1797
  241YOPE   PO4 3016  14.057   1.220  10.134  0.2022 -0.1739 -0.0600
  241YOPE   GL1 3017  14.295   1.287   9.813 -0.2462 -0.2914 -0.2999
  241YOPE   GL2 3018  14.650   1.239   9.644 -0.1252 -0.1333 -0.1932
  241YOPE   C1A 3019  14.310   1.397   9.287 -0.0558 -0.3472 -0.1961
  241YOPE   D2A 3020  14.364   1.467   8.852 -0.2393 -0.2617 -0.6679
  241YOPE   C3A 3021  13.951   1.605   8.675  0.1251 -0.0860  0.0474
  241YOPE   C4A 3022  13.543   1.734   8.346  0.1257  0.3163  0.1147
  241YOPE   C1B 3023  14.748   1.252   9.144 -0.2637 -0.0204  0.0522
  241YOPE   C2B 3024  14.779   1.094   8.742 -0.1034  0.2144 -0.4068
  241YOPE   D3B 3025  15.143   1.146   8.480 -0.0265  0.3318  0.0511
  241YOPE   C4B 3026  15.363   1.376   8.066  0.2513 -0.3610  0.1046
  242YOPE   NH3 3027  10.867  15.680   9.790  0.0075  0.2986  0.2105
  242YOPE   PO4 3028  10.590  15.214   9.806 -0.0008 -0.1304 -0.3556
  242YOPE   GL1 3029  10.557  15.391   9.522 -0.0386 -0.2014  0.1832
  242YOPE   GL2 3030  10.283  15.420   9.459  0.5426 -0.0391  0.0807
  242YOPE   C1A 3031  10.697  15.588   9.099 -0.0230 -0.0386  0.1011
  242YOPE   D2A 3032  10.847  15.744   8.708  0.1459 -0.1658 -0.2915
  242YOPE   C3A 3033  10.970  15.453   8.275  0.1292  0.0491 -0.2727
  242YOPE   C4A 3034  10.783  15.153   8.014  0.0759  0.2175  0.4743
  242YOPE   C1B 3035  10.337  15.278   9.054 -0.1232 -0.1393  0.2497
  242YOPE   C2B 3036  10.498  15.367   8.531  0.1337  0.3813 -0.1185
  242YOPE   D3B 3037  10.495  15.581   8.081 -0.1313 -0.0659  0.0195
  242YOPE   C4B 3038  10.362  15.881   7.687  0.2334 -0.0791 -0.2038
  243YOPE   NH3 3039  12.468   7.810  10.559  0.1922 -0.3394 -0.0759
  243YOPE   PO4 3040  12.238   7.348  10.727 -0.0949 -0.0812  0.0735
  243YOPE   GL1 3041  12.305   7.419  10.251 -0.0136 -0.2867  0.1266
  243YOPE   GL2 3042  11.961   7.553  10.292 -0.2683 -0.0720  0.0163
  243YOPE   C1A 3043  12.264   7.074   9.920  0.2293  0.0371  0.0496
  243YOPE   D2A 3044  12.179   7.161   9.418 -0.1779  0.1719  0.1999
  243YOPE   C3A 3045  12.115   7.056   8.989 -0.4446 -0.2453 -0.2603
  243YOPE   C4A 3046  11.968   6.866   8.657  0.1856  0.0365  0.2137
  243YOPE   C1B 3047  11.999   7.668   9.863 -0.0041 -0.1859 -0.2892
  243YOPE   C2B 3048  12.047   7.637   9.460 -0.2111 -0.1570  0.0716
  243YOPE   D3B 3049  12.143   7.605   9.067  0.0340  0.2351  0.0501
  243YOPE   C4B 3050  12.241   7.611   8.620 -0.2775 -0.2628 -0.2067
  244YOPE   NH3 3051   5.156   8.190   9.984  0.1322  0.0651  0.2256
  244YOPE   PO4 3052   4.968   8.585   9.942  0.1400  0.1185 -0.0979
  244YOPE   GL1 3053   4.740   8.767   9.622 -0.1617 -0.1238  0.1269
  244YOPE   GL2 3054   4.802   9.055   9.477  0.0445 -0.1905 -0.2046
  244YOPE   C1A 3055   4.476   8.729   9.212 -0.0410 -0.2020 -0.1932
  244YOPE   D2A 3056   4.481   8.774   8.850  0.1382 -0.0170 -0.1960
  244YOPE   C3A 3057   4.504   8.890   8.468  0.3049  0.1555 -0.0733
  244YOPE   C4A 3058   4.459   8.998   8.101  0.1368 -0.1202 -0.0525
  244YOPE   C1B 3059   4.885   8.906   9.091 -0.1169  0.2156 -0.2400
  244YOPE   C2B 3060   4.826   9.157   8.757 -0.2374  0.1112 -0.0247
  244YOPE   D3B 3061   4.849   9.278   8.376 -0.0099 -0.3775 -0.1677
  244YOPE   C4B 3062   5.173   9.203   8.089  0.0822 -0.0364  0.0367
  245YOPE   NH3 3063   6.555  13.622  10.049 -0.0221  0.1366 -0.1459
  245YOPE   PO4 3064   6.073  13.704   9.848 -0.0512 -0.0506  0.0817
  245YOPE   GL1 3065   6.361  13.884   9.552 -0.0678 -0.2636 -0.2526
  245YOPE   GL2 3066   6.682  13.837   9.596 -0.0248  0.0387 -0.3012
  245YOPE   C1A 3067   6.510  14.025   9.137  0.1245  0.2950 -0.1843
  245YOPE   D2A 3068   6.473  14.103   8.664  0.0837 -0.0679 -0.2777
  245YOPE   C3A 3069   6.369  14.162   8.217 -0.1176 -0.1717 -0.3119
  245YOPE   C4A 3070   6.635  14.329   7.882 -0.1588  0.1401 -0.0032
  245YOPE   C1B 3071   6.630  13.523   9.243 -0.3944 -0.0962  0.0377
  245YOPE   C2B 3072   6.622  13.538   8.792  0.3619  0.1099 -0.0084
  245YOPE   D3B 3073   6.613  13.288   8.477  0.3795 -0.1978  0.0639
  245YOPE   C4B 3074   6.498  13.266   8.070 -0.1199  0.0547  0.0442
  246YOPE   NH3 3075   2.799  13.271   9.804 -0.3293 -0.0945 -0.0563
  246YOPE   PO4 3076   2.442  13.362   9.674  0.3162 -0.1867 -0.3387
  246YOPE   GL1 3077   2.152  13.292   9.250 -0.2005 -0.1256 -0.1352
  246YOPE   GL2 3078   1.935  13.478   9.439  0.1852 -0.1231  0.2645
  246YOPE   C1A 3079   2.264  13.365   8.832 -0.0165 -0.0886  0.1681
  246YOPE   D2A 3080   1.885  13.361   8.454  0.3258  0.0331 -0.0843
  246YOPE   C3A 3081   1.934  13.228   8.025 -0.0633 -0.1942 -0.0288
  246YOPE   C4A 3082   1.916  13.179   7.564  0.3069  0.3791 -0.0081
  246YOPE   C1B 3083   1.952  13.680   9.057  0.1792 -0.0386  0.1572
  246YOPE   C2B 3084   2.057  13.790   8.559 -0.0110 -0.4075 -0.1541
  246YOPE   D3B 3085   2.218  13.823   8.159 -0.2228  0.2414 -0.3452
  246YOPE   C4B 3086   2.005  13.675   7.762  0.2256 -0.1257  0.2700
  247YOPE   NH3 3087   0.132   9.712  10.568  0.0044 -0.0641  0.0693
  247YOPE   PO4 3088   0.370  10.079  10.593 -0.2281  0.0304 -0.0835
  247YOPE   GL1 3089   0.560   9.999  10.201 -0.2000 -0.0176 -0.1502
  247YOPE   GL2 3090   0.441  10.094   9.959 -0.1567 -0.0284  0.2665
  247YOPE   C1A 3091   0.810   9.762   9.943  0.0951  0.0215  0.0995
  247YOPE   D2A 3092   0.902   9.593   9.546  0.0810 -0.1785  0.1103
  247YOPE   C3A 3093   0.935   9.814   9.218 -0.1854 -0.0300  0.1214
  247YOPE   C4A 3094   1.169   9.739   8.740  0.4281 -0.2300 -0.2502
  247YOPE   C1B 3095   0.558  10.104   9.574 -0.2370 -0.0652  0.1317
  247YOPE   C2B 3096   0.588  10.193   9.177 -0.2199  0.0025 -0.0236
  247YOPE   D3B 3097   0.585  10.303   8.670 -0.1973 -0.0722 -0.0447
  247YOPE   C4B 3098   0.624  10.202   8.320 -0.0011  0.0071  0.1562
  248YOPE   NH3 3099   8.755  11.117  10.068 -0.0913 -0.3117 -0.1678
  248YOPE   PO4 3100   8.355  11.366   9.926 -0.2235  0.0454 -0.1437
  248YOPE   GL1 3101   8.479  11.283   9.537  0.2236  0.1922  0.0908
  248YOPE   GL2 3102   8.455  11.568   9.460 -0.0463  0.0822  0.1553
  248YOPE   C1A 3103   8.407  11.027   9.196  0.4326  0.1545 -0.0977
  248YOPE   D2A 3104   8.460  10.807   8.745  0.0294 -0.1269  0.0350
  248YOPE   C3A 3105   8.266  10.989   8.354 -0.3881  0.1127 -0.5284
  248YOPE   C4A 3106   7.900  10.837   8.012  0.2318  0.0210 -0.0233
  248YOPE   C1B 3107   8.396  11.675   9.059  0.2037  0.0909  0.1965
  248YOPE   C2B 3108   8.239  11.446   8.711 -0.1317 -0.1625 -0.1911
  248YOPE   D3B 3109   8.425  11.491   8.313  0.3142  0.1532  0.1328
  248YOPE   C4B 3110   8.674  11.655   7.994  0.0252 -0.1940  0.1993
  249YOPE   NH3 3111  13.229   4.631  10.420 -0.3305  0.0806 -0.2502
  249YOPE   PO4 3112  13.493   4.788  10.691 -0.3707  0.1368 -0.3288
  249YOPE   GL1 3113  13.579   4.959  10.247 -0.0051 -0.0631 -0.0794
  249YOPE   GL2 3114  13.685   5.235  10.331  0.5315 -0.1295 -0.1117
  249YOPE   C1A 3115  13.647   4.982   9.821 -0.0674  0.0129  0.2369
  249YOPE   D2A 3116  13.411   5.247   9.528  0.1235  0.1035 -0.3284
  249YOPE   C3A 3117  13.275   5.137   9.174 -0.1791  0.2651 -0.1662
  249YOPE   C4A 3118  13.364   5.189   8.778  0.1144  0.0610 -0.0804
  249YOPE   C1B 3119  13.536   5.453  10.114  0.1287  0.0877  0.0608
  249YOPE   C2B 3120  13.476   5.741   9.804 -0.0100  0.2975  0.2660
  249YOPE   D3B 3121  13.169   5.685   9.546 -0.3611 -0.1355  0.1383
  249YOPE   C4B 3122  13.133   5.616   9.019  0.3318 -0.1250 -0.1222
  250YOPE   NH3 3123  14.544  16.696   9.879  0.0554  0.1034  0.0072
  250YOPE   PO4 3124  14.135  17.055   9.769 -0.3003 -0.1044 -0.1045
  250YOPE   GL1 3125  13.976  16.825   9.444 -0.0955  0.1989  0.0573
  250YOPE   GL2 3126  14.215  16.656   9.467  0.1301  0.0226  0.1233
  250YOPE   C1A 3127  14.078  16.802   8.976 -0.0693 -0.2655 -0.0812
  250YOPE   D2A 3128  14.287  16.985   8.543  0.1321 -0.4475  0.2878
  250YOPE   C3A 3129  14.247  16.940   8.174  0.0785 -0.0112  0.0534
  250YOPE   C4A 3130  14.232  16.406   8.104  0.0552 -0.0507  0.0096
  250YOPE   C1B 3131  14.479  16.596   9.178 -0.2487 -0.0903  0.3144
  250YOPE   C2B 3132  14.523  16.559   8.751 -0.0966 -0.1152 -0.2395
  250YOPE   D3B 3133  14.656  16.584   8.307  0.0989  0.0564  0.1714
  250YOPE   C4B 3134  14.702  16.630   7.832  0.0294  0.2520 -0.1564
  251YOPE   NH3 3135   9.340   0.446  10.105 -0.0833  0.3255  0.0941
  251YOPE   PO4 3136   9.642   0.122   9.891  0.3016 -0.0504  0.0310
  251YOPE   GL1 3137   9.624   0.242   9.526  0.0752 -0.1206 -0.1497
  251YOPE   GL2 3138   9.547   0.017   9.336  0.1935  0.4060 -0.1877
  251YOPE   C1A 3139   9.900   0.295   9.179  0.2644  0.2177  0.3000
  251YOPE   D2A 3140   9.931   0.251   8.706 -0.1808  0.1343  0.0590
  251YOPE   C3A 3141   9.541   0.187   8.467  0.0368  0.0947 -0.1478
  251YOPE   C4A 3142   9.321  -0.029   8.089  0.1642  0.2927 -0.0778
  251YOPE   C1B 3143   9.468  -0.140   8.944 -0.1949 -0.0642 -0.2408
  251YOPE   C2B 3144   9.316  -0.330   8.545  0.0818 -0.2453  0.0193
  251YOPE   D3B 3145   9.132  -0.543   8.239  0.1332  0.0833  0.3083
  251YOPE   C4B 3146   8.992  -0.981   7.986  0.2916  0.1053 -0.1041
  252YOPE   NH3 3147   6.032   3.765   9.924 -0.0647  0.3245 -0.1420
  252YOPE   PO4 3148   6.074   4.148   9.644  0.1238 -0.2046  0.0178
  252YOPE   GL1 3149   6.178   3.812   9.418  0.4807 -0.1796 -0.0751
  252YOPE   GL2 3150   6.451   3.647   9.625 -0.1500  0.0099  0.1949
  252YOPE   C1A 3151   6.322   3.808   9.097 -0.0389 -0.1343  0.1137
  252YOPE   D2A 3152   6.364   3.812   8.629  0.1360 -0.2428  0.0594
  252YOPE   C3A 3153   6.340   3.559   8.216  0.0026 -0.2899 -0.0068
  252YOPE   C4A 3154   6.029   3.614   7.823 -0.3936 -0.0893 -0.2270
  252YOPE   C1B 3155   6.717   4.003   9.484 -0.0996  0.2180  0.2862
  252YOPE   C2B 3156   6.927   4.030   9.127  0.5492 -0.0955  0.3547
  252YOPE   D3B 3157   6.903   4.232   8.644 -0.2126 -0.0675 -0.2347
  252YOPE   C4B 3158   6.767   4.366   8.150  0.0560 -0.0493 -0.2483
  253YOPE   NH3 3159   0.556  15.832  10.287 -0.0570  0.1461  0.0642
  253YOPE   PO4 3160   0.785  15.470  10.352  0.0033  0.0857  0.1151
  253YOPE   GL1 3161   1.050  15.501   9.987  0.3052  0.0563  0.2553
  253YOPE   GL2 3162   1.058  15.820  10.150 -0.1103  0.0586  0.2469
  253YOPE   C1A 3163   1.298  15.777   9.699  0.0346 -0.0651 -0.0783
  253YOPE   D2A 3164   1.478  15.649   9.290  0.0213  0.0598 -0.1490
  253YOPE   C3A 3165   1.258  15.563   8.903 -0.2094  0.2064  0.0310
  253YOPE   C4A 3166   1.337  15.414   8.470 -0.2390  0.0912 -0.1418
  253YOPE   C1B 3167   0.839  16.015   9.742  0.2163  0.0006 -0.0629
  253YOPE   C2B 3168   0.519  16.021   9.442 -0.0039  0.0887  0.0088
  253YOPE   D3B 3169   0.429  16.138   9.066  0.2883  0.0858  0.1292
  253YOPE   C4B 3170   0.441  16.102   8.599 -0.2182  0.0611  0.0981
  254YOPE   NH3 3171  16.222   0.118  10.339  0.1291  0.1416 -0.2790
  254YOPE   PO4 3172  16.424   0.461  10.498 -0.1276  0.0499  0.0967
  254YOPE   GL1 3173  16.448   0.612  10.112 -0.2237 -0.0212  0.1905
  254YOPE   GL2 3174  16.748   0.364  10.033  0.2172 -0.3143  0.2148
  254YOPE   C1A 3175  16.586   0.632   9.646  0.0874  0.0050  0.0000
  254YOPE   D2A 3176  16.736   0.658   9.154  0.0448  0.3235 -0.0851
  254YOPE   C3A 3177  17.124   0.869   9.011  0.3863  0.2610 -0.0542
  254YOPE   C4A 3178  17.357   0.923   9.340 -0.0295 -0.0129  0.0825
  254YOPE   C1B 3179  16.897   0.244   9.691 -0.2568  0.2639  0.0247
  254YOPE   C2B 3180  16.819  -0.091   9.324  0.3637 -0.2596  0.1718
  254YOPE   D3B 3181  16.769  -0.455   9.082 -0.1541  0.1265  0.6010
  254YOPE   C4B 3182  16.783  -0.700   8.697  0.0478 -0.2138 -0.3446
  255YOPE   NH3 3183   9.424   9.615  10.056  0.1603 -0.1435  0.2484
  255YOPE   PO4 3184   9.631  10.003   9.936 -0.1251  0.1370 -0.1636
  255YOPE   GL1 3185   9.695   9.782   9.527 -0.4448  0.1258 -0.1364
  255YOPE   GL2 3186   9.832   9.492   9.538  0.0475 -0.1743  0.2730
  255YOPE   C1A 3187   9.690   9.545   9.061  0.1310  0.1440 -0.0263
  255YOPE   D2A 3188   9.471   9.407   8.678  0.0808  0.0565 -0.0981
  255YOPE   C3A 3189   9.241   9.611   8.378 -0.3845  0.2817  0.0825
  255YOPE   C4A 3190   8.927   9.938   8.020  0.0051  0.2285  0.1169
  255YOPE   C1B 3191   9.579   9.238   9.420  0.2949  0.0961  0.0038
  255YOPE   C2B 3192   9.645   8.923   9.024 -0.0070  0.0085  0.2065
  255YOPE   D3B 3193   9.680   8.764   8.604  0.2852 -0.1040  0.3332
  255YOPE   C4B 3194   9.895   8.454   8.340  0.0601  0.2922 -0.1749
  256YOPE   NH3 3195   5.063   5.256   9.914 -0.1251 -0.1490 -0.1079
  256YOPE   PO4 3196   5.371   4.917   9.787  0.1692 -0.3672 -0.0783
  256YOPE   GL1 3197   5.146   4.872   9.486  0.0788  0.0859  0.1302
  256YOPE   GL2 3198   4.791   4.910   9.606 -0.0580  0.1658  0.0086
  256YOPE   C1A 3199   5.055   4.852   9.095 -0.1214  0.1804  0.3744
  256YOPE   D2A 3200   5.138   4.510   8.854  0.0096 -0.2366 -0.1399
  256YOPE   C3A 3201   4.844   4.422   8.422 -0.2501  0.0611 -0.0389
  256YOPE   C4A 3202   4.480   4.288   8.134 -0.0582  0.1413  0.1682
  256YOPE   C1B 3203   4.598   4.760   9.235 -0.0609 -0.4141  0.1616
  256YOPE   C2B 3204   4.395   4.480   8.932  0.2795  0.0173  0.0835
  256YOPE   D3B 3205   4.186   4.516   8.498  0.1030  0.1488 -0.0679
  256YOPE   C4B 3206   3.992   4.147   8.326  0.1299 -0.0572 -0.0137
  257YOPE   NH3 3207  17.861   5.072  10.709  0.1984  0.2829 -0.0953
  257YOPE   PO4 3208  17.568   4.729  10.582 -0.1258 -0.3334  0.1670
  257YOPE   GL1 3209  17.442   4.739  10.171  0.0941  0.0380  0.1501
  257YOPE   GL2 3210  17.661   5.138  10.190 -0.0962  0.0164  0.0273
  257YOPE   C1A 3211  17.195   4.897   9.821  0.1194 -0.0346  0.3827
  257YOPE   D2A 3212  17.023   4.945   9.387 -0.1256 -0.1553  0.1842
  257YOPE   C3A 3213  16.802   4.728   9.052  0.2218  0.1126  0.3189
  257YOPE   C4A 3214  16.864   4.613   8.592  0.1823 -0.1034  0.0687
  257YOPE   C1B 3215  17.618   5.088   9.758  0.0698  0.1965 -0.2527
  257YOPE   C2B 3216  17.504   5.058   9.381  0.0784 -0.2486  0.0257
  257YOPE   D3B 3217  17.543   5.047   8.919 -0.3034 -0.1750 -0.1207
  257YOPE   C4B 3218  17.879   5.210   8.600  0.0650 -0.0202  0.0768
  258YOPE   NH3 3219   5.783  17.003  10.287  0.0442  0.0775 -0.2220
  258YOPE   PO4 3220   6.248  16.995  10.211 -0.1095  0.1445 -0.4445
  258YOPE   GL1 3221   6.204  17.026   9.832 -0.1455 -0.3523  0.0807
  258YOPE   GL2 3222   6.040  16.819   9.672 -0.4117 -0.1428 -0.0850
  258YOPE   C1A 3223   6.246  17.257   9.493 -0.0001  0.0506 -0.2095
  258YOPE   D2A 3224   6.257  17.300   9.057  0.0591 -0.0772  0.0980
  258YOPE   C3A 3225   6.108  17.130   8.664 -0.0673 -0.3364  0.0632
  258YOPE   C4A 3226   5.839  17.018   8.401 -0.2766 -0.1207 -0.2118
  258YOPE   C1B 3227   6.029  16.898   9.258  0.2442 -0.0938  0.0156
  258YOPE   C2B 3228   5.717  16.792   8.892 -0.0092  0.1725 -0.2959
  258YOPE   D3B 3229   5.419  16.758   8.556 -0.2035 -0.1623  0.1573
  258YOPE   C4B 3230   5.176  16.646   8.282  0.0802  0.1975 -0.2884
  259YOPE   NH3 3231  17.095  18.445  10.190  0.0462 -0.1656  0.4046
  259YOPE   PO4 3232  17.425  18.599  10.502  0.2362 -0.1151 -0.0805
  259YOPE   GL1 3233  17.692  18.528  10.210  0.0846 -0.0822  0.1620
  259YOPE   GL2 3234  17.444  18.771   9.999 -0.1873  0.0106  0.0718
  259YOPE   C1A 3235  17.835  18.401   9.863  0.3911  0.3221  0.1843
  259YOPE   D2A 3236  18.076  17.993   9.651  0.3319 -0.1705 -0.0762
  259YOPE   C3A 3237  18.218  18.079   9.174  0.1860  0.0473 -0.5467
  259YOPE   C4A 3238  18.543  17.959   8.839  0.0944  0.2429 -0.0922
  259YOPE   C1B 3239  17.598  18.772   9.534  0.1160  0.2661 -0.1993
  259YOPE   C2B 3240  17.812  18.886   9.149 -0.1378 -0.0427  0.2987
  259YOPE   D3B 3241  17.709  18.636   8.829  0.4036  0.0879  0.1451
  259YOPE   C4B 3242  17.566  18.338   8.537  0.2558 -0.0890 -0.0327
  260YOPE   NH3 3243   3.328  11.352  10.427  0.2160 -0.2367 -0.2068
  260YOPE   PO4 3244   3.378  10.952  10.132  0.1150 -0.0645 -0.3087
  260YOPE   GL1 3245   3.688  10.685   9.837 -0.4306  0.3197  0.4641
  260YOPE   GL2 3246   3.728  10.382   9.737 -0.0843  0.1953  0.0781
  260YOPE   C1A 3247   3.813  10.936   9.536 -0.4708  0.3355  0.0542
  260YOPE   D2A 3248   3.881  11.212   9.323  0.2526  0.1257  0.2159
  260YOPE   C3A 3249   4.078  11.229   8.937  0.0249 -0.0629 -0.3032
  260YOPE   C4A 3250   4.546  11.209   8.976 -0.0700  0.1915  0.2396
  260YOPE   C1B 3251   3.564  10.495   9.362  0.3536 -0.2649 -0.3114
  260YOPE   C2B 3252   3.219  10.550   9.134 -0.2038  0.0460  0.2153
  260YOPE   D3B 3253   3.129  10.585   8.699 -0.1309 -0.1989  0.2666
  260YOPE   C4B 3254   2.919  10.680   8.308  0.0990 -0.1155  0.4556
  261YOPE   NH3 3255  16.365   8.472  10.588  0.2286  0.1629  0.1872
  261YOPE   PO4 3256  16.835   8.475  10.734  0.3171 -0.1038  0.1311
  261YOPE   GL1 3257  16.886   8.384  10.328  0.0638 -0.2138 -0.1273
  261YOPE   GL2 3258  17.130   8.555  10.166 -0.3097  0.0625 -0.1274
  261YOPE   C1A 3259  17.056   8.016  10.068 -0.0288 -0.1763 -0.1994
  261YOPE   D2A 3260  17.048   7.977   9.640 -0.1316 -0.0308  0.3229
  261YOPE   C3A 3261  16.861   8.291   9.299 -0.2497 -0.1029  0.1039
  261YOPE   C4A 3262  16.439   8.493   9.342  0.0719 -0.1043  0.0707
  261YOPE   C1B 3263  16.780   8.454   9.802 -0.0131  0.0248 -0.0474
  261YOPE   C2B 3264  16.336   8.598   9.777 -0.1947  0.3879 -0.0310
  261YOPE   D3B 3265  16.017   8.661   9.471  0.3598 -0.0179  0.0902
  261YOPE   C4B 3266  15.606   8.610   9.572  0.1796 -0.1320  0.3263
  262YOPE   NH3 3267   3.596   6.100  10.275 -0.1064 -0.1206 -0.2514
  262YOPE   PO4 3268   3.436   6.384   9.991  0.1830 -0.3827 -0.1646
  262YOPE   GL1 3269   3.314   6.456   9.595  0.2411 -0.1825  0.1192
  262YOPE   GL2 3270   2.991   6.280   9.596  0.1676 -0.1000  0.1349
  262YOPE   C1A 3271   3.357   6.593   9.175 -0.0994 -0.0924 -0.0835
  262YOPE   D2A 3272   3.351   6.926   8.827 -0.0614  0.0811  0.2252
  262YOPE   C3A 3273   3.462   6.831   8.390 -0.0567 -0.0978  0.0565
  262YOPE   C4A 3274   3.292   6.694   8.029  0.0802 -0.2454 -0.0510
  262YOPE   C1B 3275   2.990   6.290   9.138  0.2321  0.3939  0.3105
  262YOPE   C2B 3276   3.106   6.524   8.746 -0.0670 -0.0097 -0.1045
  262YOPE   D3B 3277   2.907   6.544   8.429  0.4664 -0.0304  0.1216
  262YOPE   C4B 3278   2.699   6.093   8.376 -0.1958  0.0688 -0.2143
  263YOPE   NH3 3279  13.276  11.356  10.278 -0.3663  0.2615  0.1986
  263YOPE   PO4 3280  13.695  11.411  10.283 -0.1020  0.0418 -0.1734
  263YOPE   GL1 3281  13.576  11.209   9.862  0.2022  0.4599  0.0860
  263YOPE   GL2 3282  13.165  11.143   9.813 -0.0335 -0.1122  0.2604
  263YOPE   C1A 3283  13.777  11.115   9.372 -0.2639 -0.0196  0.1326
  263YOPE   D2A 3284  13.794  11.352   9.008 -0.0221  0.0872 -0.0782
  263YOPE   C3A 3285  13.968  11.591   8.708 -0.0093 -0.3467  0.0556
  263YOPE   C4A 3286  14.325  11.709   8.374 -0.1045  0.1951 -0.1370
  263YOPE   C1B 3287  13.269  11.301   9.402  0.0213  0.2318 -0.3050
  263YOPE   C2B 3288  13.305  11.314   8.944 -0.3174  0.1319 -0.0994
  263YOPE   D3B 3289  13.437  11.556   8.685 -0.1012 -0.1878 -0.1065
  263YOPE   C4B 3290  13.241  11.769   8.376 -0.0049 -0.0910 -0.1025
  264YOPE   NH3 3291   5.247  12.667   9.721 -0.0228 -0.1820  0.1155
  264YOPE   PO4 3292   5.761  12.492   9.912  0.0939 -0.1875  0.1887
  264YOPE   GL1 3293   5.992  12.678   9.618 -0.2847 -0.2241  0.1785
  264YOPE   GL2 3294   6.013  13.011   9.684  0.2140  0.0488 -0.1440
  264YOPE   C1A 3295   6.131  12.628   9.206  0.0533 -0.1766 -0.4430
  264YOPE   D2A 3296   5.978  12.699   8.797 -0.2941 -0.2076  0.1780
  264YOPE   C3A 3297   5.835  12.370   8.530  0.2426 -0.3967  0.0865
  264YOPE   C4A 3298   5.930  12.191   8.124  0.2395  0.1078  0.1783
  264YOPE   C1B 3299   6.191  13.230   9.250  0.3779  0.0041  0.2562
  264YOPE   C2B 3300   6.162  13.234   8.801 -0.1221 -0.0747  0.1220
  264YOPE   D3B 3301   6.094  13.028   8.381 -0.0222  0.0300  0.0376
  264YOPE   C4B 3302   5.717  12.744   8.175 -0.1685 -0.0061  0.0742
  265YOPE   NH3 3303  15.715   3.141  10.778  0.1295 -0.0603 -0.1207
  265YOPE   PO4 3304  15.394   2.963  10.565  0.5309  0.1795 -0.3043
  265YOPE   GL1 3305  15.553   2.839  10.197 -0.1821 -0.0950 -0.0742
  265YOPE   GL2 3306  15.889   2.811  10.171 -0.0185  0.1289 -0.2120
  265YOPE   C1A 3307  15.601   2.539   9.854 -0.0378 -0.0970  0.4124
  265YOPE   D2A 3308  15.368   2.402   9.633 -0.2350 -0.0363 -0.0385
  265YOPE   C3A 3309  15.325   2.258   9.206  0.0583 -0.0789 -0.0774
  265YOPE   C4A 3310  15.429   2.184   8.833 -0.2621  0.0345 -0.2182
  265YOPE   C1B 3311  16.112   2.739   9.778 -0.1440  0.3678  0.1600
  265YOPE   C2B 3312  16.196   2.589   9.387  0.1168 -0.0601 -0.0943
  265YOPE   D3B 3313  16.324   2.509   9.038 -0.2016 -0.0822 -0.1181
  265YOPE   C4B 3314  16.267   2.350   8.691  0.0555  0.3268 -0.1182
  266YOPE   NH3 3315  10.645   4.980  10.269 -0.0980  0.2392  0.2462
  266YOPE   PO4 3316  10.233   4.898  10.037  0.1899 -0.0742  0.4870
  266YOPE   GL1 3317  10.417   5.162   9.759 -0.1813  0.1026 -0.0773
  266YOPE   GL2 3318  10.580   4.928   9.666 -0.2240 -0.3090  0.1945
  266YOPE   C1A 3319  10.432   5.383   9.332 -0.1729 -0.3070  0.4109
  266YOPE   D2A 3320  10.441   5.460   8.953  0.0684 -0.0414  0.3507
  266YOPE   C3A 3321  10.697   5.607   8.596 -0.0963 -0.2516 -0.3193
  266YOPE   C4A 3322  10.538   5.802   8.197 -0.1129 -0.1191  0.2607
  266YOPE   C1B 3323  10.555   4.957   9.211 -0.2089 -0.0410  0.0547
  266YOPE   C2B 3324  10.692   5.063   8.797  0.1023 -0.1038  0.1707
  266YOPE   D3B 3325  10.822   4.906   8.350 -0.0097 -0.3407 -0.0526
  266YOPE   C4B 3326  10.780   4.973   7.986 -0.0111  0.3452  0.2986
  267YOPE   NH3 3327  17.131   5.645  10.690  0.0515 -0.1629 -0.1665
  267YOPE   PO4 3328  16.775   5.286  10.662 -0.1500 -0.0546  0.1344
  267YOPE   GL1 3329  16.691   5.173  10.275  0.1078  0.0901  0.0184
  267YOPE   GL2 3330  16.348   5.068  10.279  0.5391 -0.1898 -0.1025
  267YOPE   C1A 3331  16.751   5.122   9.796  0.0805 -0.1833 -0.0210
  267YOPE   D2A 3332  16.511   5.177   9.386 -0.0817 -0.3547 -0.0544
  267YOPE   C3A 3333  16.778   5.285   9.036 -0.0085 -0.1060  0.3279
  267YOPE   C4A 3334  17.075   5.122   8.760 -0.4921  0.1401 -0.1784
  267YOPE   C1B 3335  16.188   5.010   9.814  0.1002 -0.1131 -0.0476
  267YOPE   C2B 3336  16.017   5.108   9.387  0.0907  0.4385 -0.2709
  267YOPE   D3B 3337  16.192   5.371   9.038 -0.1556 -0.0222  0.0637
  267YOPE   C4B 3338  15.891   5.648   8.733  0.3025  0.0019  0.1519
  268POPC   NC3 3339   7.804   1.719   9.657 -0.1524  0.0437 -0.0191
  268POPC   PO4 3340   8.223   1.709   9.720 -0.0218 -0.0964 -0.0007
  268POPC   GL1 3341   8.185   1.756   9.221  0.1636 -0.0134 -0.0990
  268POPC   GL2 3342   8.264   1.999   9.262  0.1483 -0.1703 -0.0155
  268POPC   C1A 3343   8.287   1.561   8.846 -0.2032 -0.1399  0.2287
  268POPC   D2A 3344   8.332   1.634   8.415 -0.1754 -0.1175 -0.0414
  268POPC   C3A 3345   8.606   1.387   8.042 -0.2231 -0.0916  0.0191
  268POPC   C4A 3346   8.964   1.214   8.094 -0.4684 -0.0799 -0.0059
  268POPC   C1B 3347   8.117   2.383   9.142  0.1389 -0.5002  0.0374
  268POPC   C2B 3348   8.095   2.545   8.767  0.0858 -0.2868 -0.1932
  268POPC   C3B 3349   7.949   2.576   8.372 -0.0865 -0.4055  0.1163
  268POPC   C4B 3350   7.905   2.416   7.947  0.1409 -0.0749  0.2024
  269POPC   NC3 3351   7.351  10.368  10.011 -0.3654  0.1047  0.5012
  269POPC   PO4 3352   7.220  10.677  10.105  0.1793  0.2566 -0.0151
  269POPC   GL1 3353   7.174  10.755   9.705  0.2943 -0.1745  0.0259
  269POPC   GL2 3354   7.447  10.837   9.442  0.3688  0.3364  0.0463
  269POPC   C1A 3355   6.953  11.058   9.415  0.0288  0.0201 -0.1714
  269POPC   D2A 3356   6.581  11.248   9.290 -0.0466  0.0533 -0.1523
  269POPC   C3A 3357   6.505  11.359   8.858 -0.0456 -0.0129  0.0019
  269POPC   C4A 3358   6.637  11.318   8.501 -0.3161 -0.1115 -0.2376
  269POPC   C1B 3359   7.531  10.706   8.994 -0.0662 -0.0838 -0.2548
  269POPC   C2B 3360   7.630  10.291   8.766  0.1468  0.1371 -0.2164
  269POPC   C3B 3361   7.547   9.942   8.430 -0.0231 -0.1285 -0.1556
  269POPC   C4B 3362   7.359   9.696   8.179 -0.0559 -0.0391  0.1175
  270POPC   NC3 3363  16.248  10.486  10.670 -0.1534  0.0805  0.1595
  270POPC   PO4 3364  16.364  10.426  10.223 -0.1382  0.1370  0.1122
  270POPC   GL1 3365  16.206  10.241   9.902  0.0013 -0.4198 -0.0542
  270POPC   GL2 3366  16.481  10.211   9.775  0.3009  0.0261 -0.2445
  270POPC   C1A 3367  16.106  10.321   9.466 -0.0994 -0.0718 -0.0843
  270POPC   D2A 3368  15.952  10.316   9.135 -0.0724  0.0524 -0.1371
  270POPC   C3A 3369  16.189  10.512   8.730  0.6268 -0.0007  0.0355
  270POPC   C4A 3370  16.287  10.636   8.378 -0.2420 -0.2289  0.0830
  270POPC   C1B 3371  16.579  10.076   9.418  0.2566  0.0750 -0.3025
  270POPC   C2B 3372  16.473  10.071   9.046 -0.4706 -0.1765  0.0452
  270POPC   C3B 3373  16.543  10.128   8.668 -0.0497  0.0887  0.1055
  270POPC   C4B 3374  16.632  10.172   8.241 -0.0217  0.0037  0.0078
  271POPC   NC3 3375   7.811  16.016   9.928  0.0596  0.0814  0.2455
  271POPC   PO4 3376   7.864  15.669   9.635  0.1135  0.1926  0.0836
  271POPC   GL1 3377   8.139  15.617   9.303 -0.1267  0.0374 -0.1031
  271POPC   GL2 3378   8.424  15.663   9.371 -0.0713 -0.0003 -0.1255
  271POPC   C1A 3379   8.114  15.614   8.855 -0.0478 -0.0110 -0.0228
  271POPC   D2A 3380   8.147  15.594   8.397 -0.0846 -0.2357  0.2482
  271POPC   C3A 3381   7.887  15.549   8.042  0.2864  0.3890 -0.0129
  271POPC   C4A 3382   7.962  15.260   7.877 -0.1094  0.0626  0.0195
  271POPC   C1B 3383   8.447  15.328   9.112  0.2532 -0.3502  0.1059
  271POPC   C2B 3384   8.477  15.323   8.712 -0.2968  0.1002  0.0431
  271POPC   C3B 3385   8.388  15.101   8.284 -0.1225  0.0948 -0.2064
  271POPC   C4B 3386   8.102  14.837   8.191  0.0100  0.4027  0.0331
  272POPC   NC3 3387  10.544  17.607  10.076  0.0633  0.2383 -0.1777
  272POPC   PO4 3388  10.610  17.240   9.858 -0.1080  0.1387  0.2247
  272POPC   GL1 3389  10.388  17.139   9.431 -0.1416  0.1297  0.2616
  272POPC   GL2 3390  10.146  17.303   9.388 -0.0919  0.0872  0.1164
  272POPC   C1A 3391  10.328  17.070   8.985 -0.3693 -0.1777  0.1175
  272POPC   D2A 3392  10.090  17.286   8.716 -0.1518 -0.0743  0.0581
  272POPC   C3A 3393  10.166  17.313   8.304 -0.0980 -0.0437  0.1231
  272POPC   C4A 3394  10.064  17.656   8.097  0.0439  0.3353  0.2523
  272POPC   C1B 3395   9.839  17.268   9.161 -0.1171  0.2203  0.0937
  272POPC   C2B 3396   9.477  17.337   8.980  0.0775  0.2473 -0.2750
  272POPC   C3B 3397   9.458  17.214   8.680  0.0919  0.1549 -0.1470
  272POPC   C4B 3398   9.166  17.200   8.342 -0.0470 -0.1520 -0.2891
  273POPC   NC3 3399  11.842  18.298  10.033  0.1918 -0.2101 -0.1183
  273POPC   PO4 3400  11.732  18.116   9.721  0.0122 -0.0482 -0.1190
  273POPC   GL1 3401  11.608  18.271   9.342 -0.2053  0.0173 -0.1399
  273POPC   GL2 3402  11.403  18.467   9.389 -0.0307  0.0680 -0.2406
  273POPC   C1A 3403  11.636  18.302   8.981 -0.1181 -0.2223 -0.4440
  273POPC   D2A 3404  11.870  18.376   8.619 -0.0425  0.0660  0.0662
  273POPC   C3A 3405  11.813  18.476   8.241  0.1241 -0.0139 -0.0836
  273POPC   C4A 3406  11.825  18.420   7.784  0.1187  0.0678 -0.1543
  273POPC   C1B 3407  11.342  18.745   9.176 -0.0848 -0.1491  0.0869
  273POPC   C2B 3408  11.340  18.859   8.682  0.2470 -0.0389  0.1638
  273POPC   C3B 3409  11.384  18.726   8.381 -0.0284  0.0248  0.2190
  273POPC   C4B 3410  11.341  18.411   7.996 -0.1071 -0.1158 -0.1424
  274POPC   NC3 3411   7.989  17.909  10.513 -0.1378 -0.2654  0.1017
  274POPC   PO4 3412   7.878  17.736   9.995 -0.0197 -0.1119  0.1809
  274POPC   GL1 3413   7.873  17.600   9.538  0.0730  0.1015 -0.3240
  274POPC   GL2 3414   7.612  17.351   9.496 -0.1715 -0.1970  0.5238
  274POPC   C1A 3415   7.822  17.584   9.073  0.0051 -0.3899  0.0520
  274POPC   D2A 3416   7.693  17.604   8.722  0.0738  0.0371  0.1613
  274POPC   C3A 3417   7.493  17.777   8.305 -0.0905 -0.0938 -0.2996
  274POPC   C4A 3418   7.080  17.721   8.223 -0.1058 -0.0683  0.1358
  274POPC   C1B 3419   7.548  16.911   9.462  0.0579 -0.0094  0.1520
  274POPC   C2B 3420   7.368  16.824   8.992  0.2964  0.1433 -0.2800
  274POPC   C3B 3421   7.453  16.766   8.582  0.0238 -0.2076 -0.0622
  274POPC   C4B 3422   7.527  16.915   8.138 -0.0967 -0.1168  0.0057
  275POPC   NC3 3423   6.150   1.750  10.248 -0.2062  0.1116  0.1439
  275POPC   PO4 3424   6.267   1.287  10.175  0.2353  0.1608  0.1775
  275POPC   GL1 3425   6.157   1.011   9.878 -0.1212 -0.0838 -0.0731
  275POPC   GL2 3426   6.346   0.715   9.702  0.2470  0.0960  0.3665
  275POPC   C1A 3427   5.884   1.125   9.533 -0.0893  0.0013 -0.1028
  275POPC   D2A 3428   5.667   0.985   9.128  0.1317  0.0153 -0.2616
  275POPC   C3A 3429   5.706   1.322   8.828  0.0208 -0.0081  0.2445
  275POPC   C4A 3430   5.880   1.797   8.560 -0.3370 -0.1246  0.0488
  275POPC   C1B 3431   6.498   0.605   9.275 -0.0562  0.0544 -0.2866
  275POPC   C2B 3432   6.590   0.449   8.853  0.1275 -0.0241  0.1668
  275POPC   C3B 3433   6.708   0.220   8.490  0.0815  0.2780  0.0201
  275POPC   C4B 3434   6.407   0.111   8.151  0.0427  0.0695  0.1244
  276POPC   NC3 3435  12.774   1.578  10.133 -0.0424 -0.1531  0.1254
  276POPC   PO4 3436  12.853   1.902   9.741 -0.1809  0.1453  0.0581
  276POPC   GL1 3437  12.943   2.119   9.402  0.0500 -0.4738 -0.0642
  276POPC   GL2 3438  13.262   2.310   9.369 -0.0999 -0.1272 -0.2186
  276POPC   C1A 3439  12.920   2.137   9.012 -0.0158  0.2079  0.1295
  276POPC   D2A 3440  12.756   2.267   8.670  0.0020 -0.0427  0.3266
  276POPC   C3A 3441  12.992   2.479   8.497 -0.1943  0.2097  0.1734
  276POPC   C4A 3442  13.355   2.833   8.514  0.0350 -0.0627 -0.2771
  276POPC   C1B 3443  13.333   2.762   9.212  0.0658 -0.2439 -0.0926
  276POPC   C2B 3444  13.410   3.077   8.941 -0.1461 -0.1764  0.1087
  276POPC   C3B 3445  13.681   3.329   8.727 -0.1088  0.1470  0.0515
  276POPC   C4B 3446  14.035   3.416   8.437 -0.1258 -0.1343 -0.0847
  277POPC   NC3 3447   0.343   1.873  10.802 -0.0938  0.0890 -0.2310
  277POPC   PO4 3448   0.203   1.618  10.496  0.2789  0.1074 -0.1076
  277POPC   GL1 3449  -0.026   1.631  10.123  0.2156  0.1854  0.0781
  277POPC   GL2 3450  -0.108   1.301  10.032  0.2190 -0.0996  0.2023
  277POPC   C1A 3451   0.196   1.731   9.721  0.1138  0.0463  0.1797
  277POPC   D2A 3452   0.211   1.906   9.316  0.0478  0.1195  0.0013
  277POPC   C3A 3453   0.135   1.683   8.976 -0.3097 -0.3782  0.2480
  277POPC   C4A 3454   0.095   1.472   8.500  0.0445  0.1517  0.3177
  277POPC   C1B 3455  -0.260   1.169   9.650 -0.0623  0.2498  0.0342
  277POPC   C2B 3456  -0.110   1.321   9.171  0.6016 -0.1478 -0.1768
  277POPC   C3B 3457   0.186   1.165   8.874 -0.4246 -0.0844 -0.2000
  277POPC   C4B 3458   0.346   0.827   8.656 -0.0536 -0.2227  0.0350
  278POPC   NC3 3459   4.735   6.593  10.248 -0.0000  0.0019 -0.2156
  278POPC   PO4 3460   5.046   6.900  10.018  0.0478 -0.1755 -0.2207
  278POPC   GL1 3461   5.178   6.882   9.584 -0.1057  0.0371 -0.1518
  278POPC   GL2 3462   5.456   7.009   9.484 -0.1319 -0.0432  0.2620
  278POPC   C1A 3463   5.104   6.887   9.180  0.0218  0.2838  0.0480
  278POPC   D2A 3464   5.154   6.909   8.783 -0.0381 -0.4108 -0.1521
  278POPC   C3A 3465   4.899   7.027   8.526 -0.2078 -0.1463 -0.1271
  278POPC   C4A 3466   4.529   7.245   8.287  0.1710 -0.1270  0.0442
  278POPC   C1B 3467   5.455   7.306   9.123  0.0708  0.0918 -0.1601
  278POPC   C2B 3468   5.425   7.407   8.674 -0.1436  0.0441  0.0633
  278POPC   C3B 3469   5.518   7.758   8.356 -0.1209 -0.0391 -0.2314
  278POPC   C4B 3470   5.398   8.034   8.108 -0.0227  0.2090 -0.2058
  279POPC   NC3 3471   6.703  10.690  10.251 -0.2101  0.0558  0.0978
  279POPC   PO4 3472   6.239  10.639  10.127  0.2042  0.1720 -0.2993
  279POPC   GL1 3473   6.151  10.609   9.691  0.2398 -0.0250 -0.2554
  279POPC   GL2 3474   6.308  10.257   9.517  0.1484  0.2499  0.0247
  279POPC   C1A 3475   5.944  10.646   9.260 -0.3724  0.2311  0.2694
  279POPC   D2A 3476   5.662  10.304   8.933  0.0200 -0.1210 -0.3042
  279POPC   C3A 3477   5.618  10.140   8.458 -0.2364 -0.1561 -0.1656
  279POPC   C4A 3478   5.568   9.937   8.068 -0.0531 -0.2268 -0.0929
  279POPC   C1B 3479   6.212  10.020   9.171 -0.1299 -0.0769 -0.1081
  279POPC   C2B 3480   6.069   9.958   8.798 -0.5065 -0.0527  0.1415
  279POPC   C3B 3481   6.026   9.874   8.285  0.2270  0.0426 -0.0018
  279POPC   C4B 3482   5.929   9.529   7.855  0.0420 -0.2389  0.0841
  280POPC   NC3 3483  17.068   3.001  10.650  0.3714 -0.0864  0.0468
  280POPC   PO4 3484  16.721   3.035  10.466  0.0998 -0.0407  0.0821
  280POPC   GL1 3485  16.891   2.654  10.254  0.1755 -0.0711  0.0163
  280POPC   GL2 3486  17.121   2.515  10.312 -0.1540  0.0206  0.3571
  280POPC   C1A 3487  16.827   2.563   9.768 -0.1482 -0.0764  0.0008
  280POPC   D2A 3488  16.906   2.541   9.217 -0.0581  0.0098  0.0918
  280POPC   C3A 3489  16.772   2.401   8.760 -0.0925 -0.3730  0.6252
  280POPC   C4A 3490  16.666   2.097   8.445  0.1980  0.1097  0.0537
  280POPC   C1B 3491  17.337   2.566   9.978 -0.1574  0.0368  0.3919
  280POPC   C2B 3492  17.333   2.347   9.517 -0.1178  0.0601 -0.0144
  280POPC   C3B 3493  17.598   2.319   9.235 -0.4792 -0.1103  0.1346
  280POPC   C4B 3494  17.476   2.258   8.831 -0.3732 -0.0970  0.0038
  281POPC   NC3 3495   9.701  18.139   9.684  0.0660 -0.0086  0.2204
  281POPC   PO4 3496  10.052  17.889   9.609 -0.1781  0.1051 -0.0887
  281POPC   GL1 3497  10.218  17.760   9.082  0.0813 -0.1482 -0.0478
  281POPC   GL2 3498  10.459  17.536   9.049  0.0475  0.2441 -0.0686
  281POPC   C1A 3499  10.555  18.008   8.899 -0.1708  0.0843 -0.0811
  281POPC   D2A 3500  10.704  18.111   8.527 -0.1229 -0.1058 -0.0910
  281POPC   C3A 3501  10.435  18.164   8.155 -0.0902 -0.0865  0.0417
  281POPC   C4A 3502  10.530  18.398   7.943  0.0526 -0.1925  0.0719
  281POPC   C1B 3503  10.376  17.697   8.582  0.0986 -0.1997  0.1428
  281POPC   C2B 3504  10.580  17.678   8.228  0.1868 -0.2165  0.0568
  281POPC   C3B 3505  10.495  17.525   7.836  0.2296 -0.1757  0.1726
  281POPC   C4B 3506  10.176  17.418   7.634 -0.0259 -0.1664 -0.4473
  282POPC   NC3 3507   9.410  15.663  10.014 -0.1506 -0.1955 -0.0178
  282POPC   PO4 3508   9.383  15.762   9.595 -0.1044  0.0279 -0.1171
  282POPC   GL1 3509   9.592  15.690   9.249  0.2269 -0.2723 -0.1895
  282POPC   GL2 3510   9.890  15.540   9.182  0.0146  0.3731  0.0837
  282POPC   C1A 3511   9.613  15.857   8.819 -0.3388  0.0581 -0.3660
  282POPC   D2A 3512   9.644  15.825   8.371 -0.0354  0.1950  0.0351
  282POPC   C3A 3513   9.384  16.002   8.007  0.1190  0.2567  0.0529
  282POPC   C4A 3514   9.286  16.379   7.973 -0.0921 -0.1923 -0.0170
  282POPC   C1B 3515   9.953  15.448   8.779  0.3238 -0.1435 -0.3021
  282POPC   C2B 3516  10.052  15.568   8.292  0.1604 -0.4727  0.1754
  282POPC   C3B 3517  10.055  15.492   7.872 -0.3905  0.0315  0.0628
  282POPC   C4B 3518   9.753  15.744   7.665 -0.0403 -0.2280 -0.0968
  283POPC   NC3 3519  15.999  17.247   9.966 -0.3019 -0.2016  0.0775
  283POPC   PO4 3520  16.259  16.831   9.864  0.1046  0.0318  0.1044
  283POPC   GL1 3521  16.101  17.072   9.503 -0.3406  0.3987  0.0396
  283POPC   GL2 3522  16.349  17.233   9.572 -0.0718 -0.0961  0.2825
  283POPC   C1A 3523  16.323  17.136   9.099  0.1323 -0.5000  0.4756
  283POPC   D2A 3524  16.618  17.264   8.695 -0.0045 -0.1884 -0.2420
  283POPC   C3A 3525  16.948  17.119   8.635 -0.2176  0.1290  0.0867
  283POPC   C4A 3526  17.244  17.073   8.850 -0.3788  0.0581 -0.0197
  283POPC   C1B 3527  16.561  17.544   9.333 -0.0295 -0.1881 -0.0972
  283POPC   C2B 3528  16.964  17.489   9.041  0.0013  0.1823 -0.1269
  283POPC   C3B 3529  17.241  17.649   8.634  0.3235 -0.1180  0.2789
  283POPC   C4B 3530  17.295  17.923   8.275  0.0917  0.0273 -0.2138
  284POPC   NC3 3531  12.602   9.504  10.616  0.2461 -0.0395  0.2298
  284POPC   PO4 3532  12.806   9.069  10.721 -0.3062 -0.0961  0.1118
  284POPC   GL1 3533  12.573   9.160  10.291  0.1714  0.0335 -0.2387
  284POPC   GL2 3534  12.254   9.018  10.069  0.0528 -0.1941  0.2156
  284POPC   C1A 3535  12.479   9.320   9.747  0.0652  0.0893 -0.2436
  284POPC   D2A 3536  12.278   9.061   9.320 -0.2786 -0.2313  0.0410
  284POPC   C3A 3537  12.506   9.235   9.001  0.3188 -0.0332 -0.2748
  284POPC   C4A 3538  12.692   9.331   8.593 -0.0230 -0.1108 -0.0419
  284POPC   C1B 3539  12.432   8.724   9.621 -0.2459 -0.1420 -0.0009
  284POPC   C2B 3540  12.357   8.570   9.293  0.1114 -0.1359  0.0349
  284POPC   C3B 3541  12.337   8.444   8.789  0.1163  0.0244 -0.3831
  284POPC   C4B 3542  12.092   8.362   8.425  0.1360 -0.0765  0.2220
  285POPC   NC3 3543  16.075   0.890  10.329  0.1295  0.1138 -0.0237
  285POPC   PO4 3544  16.516   1.116  10.293  0.3443 -0.2313 -0.1046
  285POPC   GL1 3545  16.403   1.132   9.859 -0.1290 -0.0866 -0.1282
  285POPC   GL2 3546  16.105   1.335  10.042  0.0237  0.1639 -0.0355
  285POPC   C1A 3547  16.280   1.002   9.418  0.3104 -0.2562 -0.0265
  285POPC   D2A 3548  15.965   0.983   8.996 -0.1872 -0.0952 -0.2342
  285POPC   C3A 3549  16.214   0.636   8.741  0.1342  0.0430  0.0714
  285POPC   C4A 3550  16.233   0.173   8.625  0.0558  0.0095  0.1495
  285POPC   C1B 3551  15.957   1.359   9.645 -0.2093 -0.1646 -0.3160
  285POPC   C2B 3552  15.641   1.314   9.254 -0.2034  0.1586 -0.3878
  285POPC   C3B 3553  15.495   1.357   8.879 -0.0245  0.1115  0.1123
  285POPC   C4B 3554  15.375   1.732   8.615  0.3073  0.2192  0.1057
  286POPC   NC3 3555   5.241   3.514  10.490 -0.3251  0.1273  0.4410
  286POPC   PO4 3556   5.643   3.506  10.148  0.1639 -0.0728  0.1116
  286POPC   GL1 3557   5.805   3.289   9.722  0.2970  0.1613 -0.0620
  286POPC   GL2 3558   6.144   3.319   9.731  0.1819 -0.0837 -0.1102
  286POPC   C1A 3559   5.618   3.114   9.384  0.1513  0.2037  0.0421
  286POPC   D2A 3560   5.520   2.801   9.151  0.2793  0.1837 -0.0649
  286POPC   C3A 3561   5.345   2.594   8.857  0.0878 -0.2818 -0.2239
  286POPC   C4A 3562   5.450   2.545   8.436  0.1030 -0.0002 -0.1193
  286POPC   C1B 3563   6.157   3.271   9.304 -0.1048  0.3687  0.4946
  286POPC   C2B 3564   5.839   3.096   8.893  0.0604  0.1778  0.0933
  286POPC   C3B 3565   5.621   3.005   8.581 -0.1302  0.0544 -0.3092
  286POPC   C4B 3566   5.371   3.074   8.144  0.1403 -0.1018 -0.0229
  287POPC   NC3 3567  10.677   9.070  10.312 -0.0844 -0.1744 -0.0037
  287POPC   PO4 3568  10.172   9.082  10.091 -0.1240  0.2025  0.2436
  287POPC   GL1 3569  10.235   8.899   9.720 -0.0533 -0.3045 -0.1909
  287POPC   GL2 3570  10.634   8.939   9.827  0.0587 -0.3496 -0.1726
  287POPC   C1A 3571  10.095   8.871   9.270  0.1229  0.2173  0.2258
  287POPC   D2A 3572  10.098   8.612   9.033  0.1273  0.0438  0.1343
  287POPC   C3A 3573  10.258   8.684   8.599  0.0151 -0.0364 -0.1103
  287POPC   C4A 3574  10.706   8.597   8.459  0.0940  0.1672 -0.2619
  287POPC   C1B 3575  10.602   8.893   9.385 -0.2701  0.0060 -0.2917
  287POPC   C2B 3576  10.593   8.885   8.933  0.0491 -0.0405  0.2645
  287POPC   C3B 3577  11.016   9.022   8.727 -0.2578  0.0789 -0.0238
  287POPC   C4B 3578  11.271   9.298   8.431 -0.1782  0.2423 -0.1019
  288POPC   NC3 3579   3.398   3.809  10.601 -0.0411  0.1888  0.2642
  288POPC   PO4 3580   3.274   3.755  10.128  0.0000 -0.0739  0.0766
  288POPC   GL1 3581   3.430   3.706   9.718  0.0807 -0.4087  0.2125
  288POPC   GL2 3582   3.622   3.972   9.679 -0.0692 -0.3232  0.2001
  288POPC   C1A 3583   3.386   3.615   9.227  0.1323  0.1495 -0.2709
  288POPC   D2A 3584   3.372   3.275   8.986 -0.0650  0.2595  0.1358
  288POPC   C3A 3585   3.091   3.271   8.716  0.1681 -0.1874 -0.1696
  288POPC   C4A 3586   2.631   3.305   8.582  0.3993 -0.0291  0.1852
  288POPC   C1B 3587   3.617   4.053   9.174 -0.1213  0.0635 -0.3886
  288POPC   C2B 3588   3.622   4.052   8.746  0.2531 -0.0922  0.0332
  288POPC   C3B 3589   3.550   3.980   8.419 -0.2135 -0.0875  0.0654
  288POPC   C4B 3590   3.227   4.132   8.189 -0.1788 -0.1995  0.2766
  289POPC   NC3 3591   1.709  14.409  10.460  0.0350  0.0756 -0.4162
  289POPC   PO4 3592   1.729  14.072  10.177  0.1570  0.1960 -0.0815
  289POPC   GL1 3593   1.709  13.985   9.741 -0.0515  0.1387  0.4423
  289POPC   GL2 3594   1.723  14.318   9.614 -0.0814  0.2265  0.0331
  289POPC   C1A 3595   1.972  13.976   9.416  0.1272  0.2336 -0.1458
  289POPC   D2A 3596   2.402  13.757   9.306  0.0699 -0.0312 -0.1831
  289POPC   C3A 3597   2.572  13.761   8.924  0.0189 -0.0489 -0.2307
  289POPC   C4A 3598   2.570  13.784   8.488 -0.0501  0.0058 -0.2454
  289POPC   C1B 3599   1.796  14.543   9.224  0.2096  0.1165  0.2579
  289POPC   C2B 3600   1.720  14.622   8.781  0.0415 -0.3782 -0.0406
  289POPC   C3B 3601   1.819  14.784   8.396  0.3201 -0.2484  0.0069
  289POPC   C4B 3602   1.632  14.597   8.072  0.1061  0.2761 -0.0162
  290POPC   NC3 3603  13.331  16.138  10.074 -0.1566 -0.1239  0.0711
  290POPC   PO4 3604  13.376  15.680  10.015  0.2958 -0.0819 -0.3980
  290POPC   GL1 3605  13.515  15.509   9.580 -0.0091 -0.0682  0.1297
  290POPC   GL2 3606  13.203  15.652   9.478 -0.0160  0.0324 -0.4037
  290POPC   C1A 3607  13.754  15.647   9.183  0.4744  0.1601  0.1054
  290POPC   D2A 3608  14.031  15.687   8.841  0.0150 -0.1571 -0.0803
  290POPC   C3A 3609  14.067  15.853   8.447  0.2138  0.0466  0.0431
  290POPC   C4A 3610  13.807  16.085   8.204  0.0940 -0.1351  0.0540
  290POPC   C1B 3611  13.256  15.700   9.066 -0.1594 -0.0553  0.0660
  290POPC   C2B 3612  13.154  15.617   8.643 -0.1190  0.1697 -0.1374
  290POPC   C3B 3613  13.157  15.840   8.149 -0.0621  0.0250  0.1403
  290POPC   C4B 3614  12.928  15.769   7.755  0.4587 -0.2911 -0.0101
  291POPC   NC3 3615  13.611   1.386   9.980 -0.2133 -0.2314 -0.0083
  291POPC   PO4 3616  13.263   1.569   9.870 -0.1201 -0.1847  0.0495
  291POPC   GL1 3617  13.116   1.551   9.422  0.2170 -0.0625 -0.1342
  291POPC   GL2 3618  12.783   1.654   9.261  0.0033  0.0707 -0.0206
  291POPC   C1A 3619  13.322   1.372   9.103  0.0632 -0.1903  0.1836
  291POPC   D2A 3620  13.489   1.393   8.793  0.1000  0.0146  0.1458
  291POPC   C3A 3621  13.258   1.383   8.434  0.1800 -0.0952 -0.0366
  291POPC   C4A 3622  13.010   1.208   8.187 -0.0223 -0.3005 -0.1300
  291POPC   C1B 3623  13.032   1.686   8.818  0.2560  0.1489  0.3215
  291POPC   C2B 3624  13.169   1.972   8.535  0.0559 -0.2674  0.1435
  291POPC   C3B 3625  13.212   2.187   8.146  0.0801 -0.1517 -0.0180
  291POPC   C4B 3626  13.055   2.184   7.715 -0.0169 -0.0270  0.3955
  292POPC   NC3 3627   6.125  11.248  10.498 -0.5810  0.1213  0.1617
  292POPC   PO4 3628   6.660  11.168  10.563 -0.0920  0.0868 -0.0359
  292POPC   GL1 3629   6.431  11.145  10.103  0.0428  0.1590 -0.1983
  292POPC   GL2 3630   6.581  10.935   9.773  0.2437 -0.0802  0.1633
  292POPC   C1A 3631   6.415  11.402   9.744 -0.0009 -0.0970  0.1483
  292POPC   D2A 3632   6.473  11.716   9.327  0.0491 -0.0890 -0.0069
  292POPC   C3A 3633   6.425  11.846   8.957  0.0438  0.0956  0.1455
  292POPC   C4A 3634   6.218  11.946   8.542  0.1869 -0.2486  0.3888
  292POPC   C1B 3635   6.557  10.781   9.411  0.1847 -0.2650 -0.0514
  292POPC   C2B 3636   6.489  10.466   9.088  0.2023  0.0108  0.0553
  292POPC   C3B 3637   6.651  10.295   8.617 -0.2207  0.2411 -0.0132
  292POPC   C4B 3638   6.456  10.126   8.350  0.0000 -0.1520  0.0174
  293POPC   NC3 3639  11.958  16.172   9.677 -0.0133  0.1428  0.2856
  293POPC   PO4 3640  12.369  15.891   9.694 -0.0012 -0.4567 -0.0521
  293POPC   GL1 3641  12.247  15.740   9.408 -0.0587  0.1115  0.2054
  293POPC   GL2 3642  12.384  15.770   9.174  0.2772 -0.0596 -0.0843
  293POPC   C1A 3643  11.891  15.766   9.001 -0.1411  0.2981  0.1078
  293POPC   D2A 3644  11.926  15.629   8.606 -0.0959  0.0189 -0.1712
  293POPC   C3A 3645  11.784  15.909   8.216  0.1153 -0.0883 -0.1669
  293POPC   C4A 3646  11.974  15.906   7.861 -0.2198  0.1813  0.2880
  293POPC   C1B 3647  12.417  15.548   8.802  0.1090 -0.0862 -0.0874
  293POPC   C2B 3648  12.659  15.525   8.517 -0.0597  0.1458  0.2410
  293POPC   C3B 3649  12.864  15.292   8.163 -0.0341 -0.0052  0.0066
  293POPC   C4B 3650  13.249  15.433   7.957 -0.0713  0.0682 -0.2039
  294POPC   NC3 3651  15.966  12.300  10.439 -0.2813  0.2528  0.1966
  294POPC   PO4 3652  15.861  11.879  10.200 -0.1294 -0.2502 -0.3380
  294POPC   GL1 3653  15.828  11.852   9.776 -0.2614 -0.2179  0.0888
  294POPC   GL2 3654  15.970  11.658   9.613 -0.5363  0.1306  0.1982
  294POPC   C1A 3655  15.661  11.962   9.366 -0.0469  0.0555 -0.1766
  294POPC   D2A 3656  15.738  11.839   8.929 -0.1621  0.1574 -0.2517
  294POPC   C3A 3657  15.673  11.465   8.742  0.3190 -0.0798  0.2575
  294POPC   C4A 3658  15.706  11.187   8.530 -0.0455  0.2510 -0.1066
  294POPC   C1B 3659  15.971  11.588   9.244 -0.3384  0.2179 -0.1160
  294POPC   C2B 3660  16.188  11.600   8.887  0.2271  0.2017 -0.0220
  294POPC   C3B 3661  16.165  11.495   8.536 -0.0736 -0.4632 -0.0586
  294POPC   C4B 3662  16.291  11.206   8.277  0.2433 -0.1659  0.5515
  295POPC   NC3 3663   1.467  17.068  10.704 -0.1557 -0.0481 -0.0963
  295POPC   PO4 3664   1.613  17.002  10.315  0.2233 -0.1014  0.0654
  295POPC   GL1 3665   1.319  16.790  10.004 -0.0328 -0.0263  0.2098
  295POPC   GL2 3666   1.053  16.843   9.917 -0.0129 -0.1754 -0.0522
  295POPC   C1A 3667   1.459  16.619   9.563 -0.1650 -0.1667 -0.2536
  295POPC   D2A 3668   1.475  16.209   9.435  0.1021 -0.2517 -0.0675
  295POPC   C3A 3669   1.358  16.008   9.025  0.2888 -0.1839 -0.0767
  295POPC   C4A 3670   1.718  15.755   8.826 -0.0682 -0.0984 -0.0733
  295POPC   C1B 3671   1.068  16.937   9.430  0.0154 -0.1611 -0.1197
  295POPC   C2B 3672   1.216  17.041   8.992  0.2297  0.3195 -0.0251
  295POPC   C3B 3673   1.211  17.240   8.591  0.1377  0.0784 -0.1346
  295POPC   C4B 3674   1.474  17.580   8.472 -0.0685  0.3546 -0.1453
  296POPC   NC3 3675   3.641  15.719   9.936 -0.1452  0.1909 -0.2240
  296POPC   PO4 3676   3.868  16.193  10.009  0.0468 -0.1380 -0.0490
  296POPC   GL1 3677   3.778  16.555   9.767 -0.2101 -0.0280 -0.0984
  296POPC   GL2 3678   3.867  16.699  10.050 -0.0184  0.2042 -0.0305
  296POPC   C1A 3679   3.952  16.631   9.387 -0.1468 -0.2889  0.1229
  296POPC   D2A 3680   4.214  16.422   9.148 -0.0972  0.1868  0.3204
  296POPC   C3A 3681   4.308  16.620   8.838  0.1259 -0.4895 -0.2531
  296POPC   C4A 3682   4.143  16.721   8.414 -0.2262 -0.1849 -0.0048
  296POPC   C1B 3683   4.264  16.852   9.759 -0.2294  0.0873  0.3540
  296POPC   C2B 3684   4.311  17.030   9.327  0.1372  0.0698 -0.2646
  296POPC   C3B 3685   4.225  17.362   9.105 -0.0158 -0.0686  0.0289
  296POPC   C4B 3686   4.318  17.513   8.633 -0.3465 -0.3863 -0.0109
  297POPC   NC3 3687   0.838   5.181  10.807  0.0215  0.0108  0.1804
  297POPC   PO4 3688   0.907   4.805  10.689 -0.0401  0.0195  0.0560
  297POPC   GL1 3689   0.780   4.863  10.260  0.0038 -0.3880 -0.2889
  297POPC   GL2 3690   0.865   4.682  10.049  0.1204 -0.0587  0.1388
  297POPC   C1A 3691   0.663   5.097   9.861  0.1799  0.0383  0.3995
  297POPC   D2A 3692   0.561   5.429   9.549  0.1215 -0.0883  0.0550
  297POPC   C3A 3693   0.286   5.509   9.303 -0.3389 -0.0490  0.0647
  297POPC   C4A 3694   0.111   5.707   8.892 -0.1901  0.0519  0.0928
  297POPC   C1B 3695   0.805   4.683   9.585  0.1351  0.0467 -0.1214
  297POPC   C2B 3696   0.575   4.902   9.298 -0.0230 -0.2729  0.3164
  297POPC   C3B 3697   0.684   5.305   9.060 -0.0828 -0.1993  0.1456
  297POPC   C4B 3698   0.574   5.707   8.851 -0.1606  0.1702  0.0931
  298POPC   NC3 3699   1.201  12.116  10.299  0.2823  0.0789  0.1900
  298POPC   PO4 3700   1.299  11.752  10.328 -0.0658  0.1269 -0.0264
  298POPC   GL1 3701   1.419  11.449  10.036  0.0176 -0.1658 -0.0468
  298POPC   GL2 3702   1.710  11.601  10.062 -0.1455 -0.1371 -0.0521
  298POPC   C1A 3703   1.433  11.206   9.728 -0.0577  0.1416 -0.0494
  298POPC   D2A 3704   1.501  11.070   9.406  0.2080 -0.0049  0.0069
  298POPC   C3A 3705   1.215  10.983   9.074 -0.0921 -0.0086 -0.0264
  298POPC   C4A 3706   1.023  10.812   8.741 -0.0449  0.1562 -0.1549
  298POPC   C1B 3707   1.682  11.599   9.618  0.4079 -0.0739  0.1391
  298POPC   C2B 3708   1.779  11.508   9.338  0.1415 -0.0396 -0.1693
  298POPC   C3B 3709   1.743  11.433   8.882  0.5282  0.0809 -0.0619
  298POPC   C4B 3710   1.982  11.428   8.693 -0.0136  0.1662  0.1618
  299POPC   NC3 3711   3.860   7.906  10.254  0.0279  0.0650 -0.0372
  299POPC   PO4 3712   3.889   7.454  10.314  0.2608 -0.0713 -0.1059
  299POPC   GL1 3713   3.639   7.519   9.975  0.1735  0.0469  0.0090
  299POPC   GL2 3714   3.433   7.791   9.975 -0.2359 -0.1309 -0.2071
  299POPC   C1A 3715   3.354   7.316   9.678 -0.1434 -0.0793  0.0056
  299POPC   D2A 3716   3.200   7.631   9.304  0.3199  0.1886 -0.0765
  299POPC   C3A 3717   3.186   7.467   8.891 -0.1686 -0.0993  0.1973
  299POPC   C4A 3718   3.065   7.531   8.557  0.1474  0.2285 -0.1568
  299POPC   C1B 3719   3.534   7.823   9.564 -0.1909  0.1344  0.1466
  299POPC   C2B 3720   3.559   7.931   9.124  0.0949 -0.1194  0.2006
  299POPC   C3B 3721   3.478   8.109   8.789  0.0929  0.0249 -0.5233
  299POPC   C4B 3722   3.165   8.308   8.532 -0.0059  0.0571 -0.0306
  300POPC   NC3 3723   4.445  15.371   9.782 -0.0859  0.1236 -0.4827
  300POPC   PO4 3724   4.794  15.123   9.699  0.0266  0.0469 -0.0513
  300POPC   GL1 3725   4.619  15.289   9.324  0.1498  0.2941  0.2004
  300POPC   GL2 3726   4.645  15.614   9.359  0.0901  0.1595  0.1831
  300POPC   C1A 3727   4.556  15.146   9.007 -0.3837  0.1217  0.0014
  300POPC   D2A 3728   4.542  15.265   8.551 -0.1994 -0.0282  0.0681
  300POPC   C3A 3729   4.568  15.274   8.081 -0.1401  0.3226 -0.1672
  300POPC   C4A 3730   4.431  15.422   7.705  0.0355  0.1502  0.1209
  300POPC   C1B 3731   4.700  15.673   8.867 -0.0337  0.1095  0.0465
  300POPC   C2B 3732   4.672  15.737   8.406 -0.2171 -0.1588 -0.0876
  300POPC   C3B 3733   4.354  15.883   8.087  0.0451 -0.2847  0.0041
  300POPC   C4B 3734   4.244  15.927   7.678 -0.1192 -0.2494  0.2695
  301POPC   NC3 3735   2.623  17.728  10.819  0.0272 -0.0482 -0.1918
  301POPC   PO4 3736   2.759  17.827  10.376 -0.1996 -0.0879 -0.1240
  301POPC   GL1 3737   2.516  18.258  10.173 -0.1731 -0.0416 -0.0857
  301POPC   GL2 3738   2.342  18.582  10.125 -0.1610  0.2276 -0.3373
  301POPC   C1A 3739   2.385  18.217   9.783 -0.0652  0.1628  0.2132
  301POPC   D2A 3740   1.993  18.222   9.544  0.2911  0.1577  0.0794
  301POPC   C3A 3741   1.967  17.896   9.304 -0.0278  0.3288  0.0566
  301POPC   C4A 3742   1.772  17.750   8.979 -0.0474  0.0373 -0.1221
  301POPC   C1B 3743   2.408  18.787   9.758  0.0731 -0.0985  0.1002
  301POPC   C2B 3744   2.253  18.601   9.258 -0.0101  0.1046 -0.1038
  301POPC   C3B 3745   1.931  18.535   9.026 -0.0801  0.4264  0.1286
  301POPC   C4B 3746   1.603  18.697   8.961  0.2261  0.1344 -0.0134
  302POPC   NC3 3747   3.824   5.319  10.400 -0.0749 -0.1116 -0.1814
  302POPC   PO4 3748   3.397   5.456  10.343 -0.3343 -0.1117  0.0838
  302POPC   GL1 3749   3.168   5.619   9.972 -0.1223  0.0255 -0.2233
  302POPC   GL2 3750   3.289   5.925   9.882 -0.1370 -0.1239  0.1169
  302POPC   C1A 3751   2.853   5.413   9.604 -0.2088 -0.1010 -0.2776
  302POPC   D2A 3752   2.731   5.455   9.185  0.2740 -0.0297 -0.3930
  302POPC   C3A 3753   2.365   5.651   9.146 -0.0163 -0.1027  0.4263
  302POPC   C4A 3754   2.321   6.090   9.114  0.1353  0.2103 -0.1276
  302POPC   C1B 3755   3.237   5.797   9.420 -0.0034  0.1616  0.1232
  302POPC   C2B 3756   3.237   5.853   8.967  0.2590  0.1335 -0.4866
  302POPC   C3B 3757   3.172   5.950   8.571  0.2288 -0.0440 -0.2829
  302POPC   C4B 3758   3.279   6.201   8.284 -0.2994 -0.0039 -0.1743
  303POPC   NC3 3759   1.509   2.270  10.372 -0.1096  0.0508 -0.0216
  303POPC   PO4 3760   1.788   2.397  10.109  0.4074  0.1822  0.0123
  303POPC   GL1 3761   1.790   2.476   9.721 -0.0214 -0.0377  0.0301
  303POPC   GL2 3762   2.026   2.693   9.607 -0.0181 -0.0268 -0.0040
  303POPC   C1A 3763   1.759   2.426   9.235 -0.0690 -0.0364  0.1077
  303POPC   D2A 3764   1.564   2.765   8.839  0.0982  0.1312 -0.0559
  303POPC   C3A 3765   1.270   3.056   8.924  0.3378 -0.0950 -0.2308
  303POPC   C4A 3766   0.914   3.157   8.873  0.1213  0.2252  0.4895
  303POPC   C1B 3767   2.185   2.665   9.219 -0.1655 -0.2460  0.0896
  303POPC   C2B 3768   2.090   2.521   8.831 -0.0095  0.0793 -0.2543
  303POPC   C3B 3769   2.215   2.532   8.465 -0.0993 -0.3419 -0.1489
  303POPC   C4B 3770   2.292   2.324   8.086  0.2531 -0.0595 -0.3585
  304POPC   NC3 3771   2.184  15.321  10.727 -0.2517  0.2197  0.1047
  304POPC   PO4 3772   2.083  15.674  10.391 -0.2520 -0.0905 -0.1433
  304POPC   GL1 3773   1.985  15.704  10.025 -0.0679 -0.3332 -0.4893
  304POPC   GL2 3774   2.418  15.765   9.968  0.0531 -0.1070 -0.1065
  304POPC   C1A 3775   1.858  15.756   9.568 -0.1344 -0.1680  0.1486
  304POPC   D2A 3776   1.848  15.999   9.232 -0.2432 -0.0627  0.1858
  304POPC   C3A 3777   2.187  15.991   8.909 -0.1623 -0.0115  0.1274
  304POPC   C4A 3778   2.498  16.222   8.588  0.1208  0.0334  0.0315
  304POPC   C1B 3779   2.338  15.984   9.610 -0.1859  0.0186  0.0228
  304POPC   C2B 3780   2.329  16.202   9.333  0.0997 -0.0735  0.0196
  304POPC   C3B 3781   2.375  16.519   9.045 -0.2133 -0.0666  0.2946
  304POPC   C4B 3782   2.554  16.696   8.695 -0.1163  0.0974  0.2239
  305POPC   NC3 3783  18.087   1.389  10.514  0.1049  0.2496  0.0200
  305POPC   PO4 3784  17.858   0.976  10.618  0.0683  0.4816 -0.0234
  305POPC   GL1 3785  17.799   1.011  10.109 -0.0832 -0.2364 -0.0356
  305POPC   GL2 3786  17.521   0.812   9.905 -0.3090  0.1456  0.1621
  305POPC   C1A 3787  17.668   1.229   9.697 -0.2276 -0.1539  0.0971
  305POPC   D2A 3788  17.852   1.397   9.383 -0.3992 -0.0857  0.5299
  305POPC   C3A 3789  17.738   1.600   9.128 -0.2459 -0.1315  0.0858
  305POPC   C4A 3790  17.603   1.785   8.759  0.1412 -0.0276 -0.0419
  305POPC   C1B 3791  17.184   0.639   9.691  0.2743 -0.0024  0.0601
  305POPC   C2B 3792  17.157   0.396   9.241 -0.2497 -0.2044 -0.1650
  305POPC   C3B 3793  17.148   0.245   8.927 -0.4833 -0.0829 -0.2439
  305POPC   C4B 3794  17.231   0.334   8.435  0.0560  0.0189  0.2597
  306POPC   NC3 3795   6.087   0.081  10.648  0.0436 -0.0638  0.0438
  306POPC   PO4 3796   5.730  -0.164  10.841 -0.1604 -0.2034  0.1690
  306POPC   GL1 3797   5.691   0.031  10.397  0.0595  0.2908  0.3817
  306POPC   GL2 3798   5.888  -0.151  10.157 -0.3984  0.0410 -0.0850
  306POPC   C1A 3799   5.367  -0.098  10.061  0.1150 -0.0044 -0.1403
  306POPC   D2A 3800   5.455  -0.190   9.576  0.0135  0.0661 -0.2084
  306POPC   C3A 3801   5.222   0.063   9.298  0.0326 -0.2756 -0.1814
  306POPC   C4A 3802   5.041   0.365   8.956  0.0540  0.2241 -0.2466
  306POPC   C1B 3803   5.765   0.058   9.848 -0.1893 -0.0407 -0.1594
  306POPC   C2B 3804   5.745   0.182   9.461 -0.1458  0.0881 -0.1192
  306POPC   C3B 3805   5.654   0.049   9.038 -0.1127  0.2467  0.0935
  306POPC   C4B 3806   5.301  -0.021   8.781 -0.1370 -0.2159 -0.2030
  307POPC   NC3 3807   5.443  12.072  10.331 -0.0363 -0.1219 -0.1737
  307POPC   PO4 3808   5.309  12.269  10.005 -0.0163 -0.1366 -0.1160
  307POPC   GL1 3809   5.311  12.158   9.630  0.1625 -0.0625 -0.1181
  307POPC   GL2 3810   5.108  12.256   9.414 -0.2542  0.1945 -0.0016
  307POPC   C1A 3811   5.494  11.966   9.239 -0.1915  0.0230  0.1494
  307POPC   D2A 3812   5.447  11.620   9.051  0.1830  0.0178 -0.4790
  307POPC   C3A 3813   5.287  11.584   8.685  0.0482  0.2724  0.0924
  307POPC   C4A 3814   5.117  11.668   8.235 -0.0578  0.0476 -0.2755
  307POPC   C1B 3815   5.102  12.068   8.961 -0.1351  0.1777 -0.1292
  307POPC   C2B 3816   5.139  12.056   8.596 -0.1006 -0.2181 -0.1779
  307POPC   C3B 3817   5.335  12.167   8.191 -0.4150 -0.0794  0.1991
  307POPC   C4B 3818   5.270  12.476   8.033 -0.0643 -0.1936 -0.2058
  308YOPC   NC3 3819   7.961  14.021   9.955 -0.2019 -0.0884  0.0069
  308YOPC   PO4 3820   7.910  14.428  10.012 -0.2518 -0.0792  0.3599
  308YOPC   GL1 3821   7.792  14.395   9.567  0.2217 -0.2406  0.1540
  308YOPC   GL2 3822   7.752  14.669   9.564 -0.1895  0.3557 -0.0000
  308YOPC   C1A 3823   7.920  14.387   9.075  0.0464 -0.4650 -0.1517
  308YOPC   D2A 3824   7.778  14.473   8.674 -0.0992 -0.0816  0.2242
  308YOPC   C3A 3825   7.753  14.421   8.263 -0.0594 -0.1117  0.0518
  308YOPC   C4A 3826   7.572  14.713   7.930  0.0123  0.0325  0.0093
  308YOPC   C1B 3827   8.154  14.791   9.369 -0.0204  0.1611 -0.0500
  308YOPC   C2B 3828   8.417  14.826   9.019 -0.0219  0.0182  0.1304
  308YOPC   D3B 3829   8.330  14.815   8.703  0.0529 -0.0321 -0.1607
  308YOPC   C4B 3830   8.221  14.411   8.483 -0.0245  0.0057  0.1225
  309YOPC   NC3 3831  14.168  12.320  10.367 -0.1236 -0.1882 -0.0910
  309YOPC   PO4 3832  13.866  12.486  10.225  0.2290  0.2537  0.4259
  309YOPC   GL1 3833  13.596  12.284   9.854  0.3011  0.2282 -0.2016
  309YOPC   GL2 3834  13.277  12.190   9.959  0.0374 -0.0202 -0.1940
  309YOPC   C1A 3835  13.427  12.021   9.426  0.1548 -0.0366  0.3370
  309YOPC   D2A 3836  13.109  11.739   9.277  0.0470  0.1768 -0.0010
  309YOPC   C3A 3837  13.196  11.911   8.892 -0.1151 -0.1283 -0.1394
  309YOPC   C4A 3838  13.229  12.212   8.591  0.0661  0.4169 -0.4218
  309YOPC   C1B 3839  12.933  12.128   9.710 -0.2637 -0.1928 -0.0579
  309YOPC   C2B 3840  12.675  11.994   9.434 -0.0338 -0.2008  0.2887
  309YOPC   D3B 3841  12.639  11.867   8.939 -0.1733 -0.0861  0.1078
  309YOPC   C4B 3842  12.390  12.208   8.642 -0.3182  0.0145  0.2192
  310YOPC   NC3 3843   0.837   3.822  10.542 -0.0674  0.1448  0.1212
  310YOPC   PO4 3844   1.141   3.460  10.316 -0.2429  0.0030 -0.0697
  310YOPC   GL1 3845   0.902   3.648  10.034  0.0519  0.1285 -0.0240
  310YOPC   GL2 3846   0.588   3.657   9.944  0.0437  0.2743 -0.1747
  310YOPC   C1A 3847   1.061   3.862   9.612 -0.1242  0.0154  0.1411
  310YOPC   D2A 3848   1.117   4.104   9.271  0.0623 -0.0198  0.0598
  310YOPC   C3A 3849   0.948   4.361   9.169 -0.1633 -0.0612 -0.0307
  310YOPC   C4A 3850   0.444   4.423   9.084 -0.2319  0.0422  0.0182
  310YOPC   C1B 3851   0.366   3.817   9.626 -0.0375  0.0343  0.1067
  310YOPC   C2B 3852   0.105   3.995   9.201  0.1142  0.1826 -0.0291
  310YOPC   D3B 3853   0.264   4.019   8.763 -0.2375 -0.1339 -0.4206
  310YOPC   C4B 3854   0.691   4.103   8.760 -0.0837 -0.0433 -0.2413
  311YOPC   NC3 3855   2.889  17.079  10.476 -0.0298 -0.0813 -0.3883
  311YOPC   PO4 3856   2.600  17.393  10.472 -0.0369  0.0436  0.1096
  311YOPC   GL1 3857   2.520  17.022  10.184 -0.0241 -0.0853 -0.0675
  311YOPC   GL2 3858   2.489  16.767  10.066  0.0862  0.3149 -0.3486
  311YOPC   C1A 3859   2.514  17.154   9.739 -0.2414 -0.2172 -0.1525
  311YOPC   D2A 3860   2.461  16.935   9.404 -0.1034  0.5222  0.3333
  311YOPC   C3A 3861   2.301  17.038   8.957  0.3661  0.0898 -0.2642
  311YOPC   C4A 3862   2.086  16.709   8.530  0.0463  0.0092 -0.3483
  311YOPC   C1B 3863   2.863  16.798   9.703  0.0636 -0.4343  0.2471
  311YOPC   C2B 3864   3.063  16.984   9.344  0.1372 -0.0368 -0.2933
  311YOPC   D3B 3865   2.824  17.023   8.942  0.0912  0.3676 -0.1819
  311YOPC   C4B 3866   2.691  17.273   8.646 -0.1422  0.2867 -0.0830
  312YOPC   NC3 3867   9.914  13.367  10.307  0.1183 -0.0892 -0.1452
  312YOPC   PO4 3868   9.781  13.075   9.982 -0.0512  0.0260 -0.0268
  312YOPC   GL1 3869   9.831  13.072   9.594 -0.1790  0.3823  0.4606
  312YOPC   GL2 3870   9.906  12.838   9.468 -0.3857  0.1084  0.0416
  312YOPC   C1A 3871   9.431  13.072   9.243 -0.0865 -0.0935 -0.1843
  312YOPC   D2A 3872   9.280  13.359   8.892 -0.1043  0.0508 -0.0966
  312YOPC   C3A 3873   9.250  13.265   8.580  0.0096 -0.1626  0.2271
  312YOPC   C4A 3874   9.351  13.430   8.103  0.4719 -0.0325 -0.1400
  312YOPC   C1B 3875   9.865  12.887   9.083 -0.0949 -0.1716  0.0403
  312YOPC   C2B 3876   9.547  12.820   8.735 -0.0320 -0.0214 -0.0699
  312YOPC   D3B 3877   9.680  13.107   8.431  0.2501  0.2889  0.2276
  312YOPC   C4B 3878  10.006  13.008   8.196 -0.0578 -0.1847  0.2763
  313YOPC   NC3 3879  14.418  10.263  10.756 -0.1253  0.0562  0.1814
  313YOPC   PO4 3880  14.284  10.585  10.467 -0.1266 -0.0117  0.3170
  313YOPC   GL1 3881  13.982  10.567  10.204 -0.2066 -0.4261  0.1441
  313YOPC   GL2 3882  13.776  10.359  10.052  0.1968  0.0550  0.2021
  313YOPC   C1A 3883  13.903  10.768   9.836 -0.2755  0.0057  0.0285
  313YOPC   D2A 3884  14.188  10.968   9.609  0.0553 -0.3217 -0.0431
  313YOPC   C3A 3885  14.638  10.914   9.587  0.1534  0.4556  0.1602
  313YOPC   C4A 3886  14.914  10.705   9.828 -0.2711 -0.0742  0.2029
  313YOPC   C1B 3887  14.033  10.173   9.763  0.0600  0.0274  0.0715
  313YOPC   C2B 3888  14.200  10.133   9.288 -0.0488  0.1262 -0.0320
  313YOPC   D3B 3889  14.626   9.992   9.171 -0.3482  0.0837  0.1955
  313YOPC   C4B 3890  14.953   9.855   8.907 -0.1506  0.2014 -0.0810
  314YOPC   NC3 3891  17.629   9.562  10.580  0.2875  0.4175  0.1043
  314YOPC   PO4 3892  17.933   9.179  10.575  0.0943 -0.0997  0.1069
  314YOPC   GL1 3893  17.955   8.910  10.232  0.1477  0.1516  0.1716
  314YOPC   GL2 3894  18.125   9.017   9.908  0.0343 -0.0125  0.0761
  314YOPC   C1A 3895  17.641   8.862   9.887 -0.3200 -0.0252 -0.1859
  314YOPC   D2A 3896  17.643   8.842   9.396  0.1540 -0.1564 -0.1817
  314YOPC   C3A 3897  17.978   8.591   9.404 -0.0728  0.1479 -0.0720
  314YOPC   C4A 3898  18.130   8.572   9.798  0.2555 -0.1672 -0.3152
  314YOPC   C1B 3899  18.060   9.063   9.487 -0.1830 -0.1390 -0.3483
  314YOPC   C2B 3900  17.774   9.266   9.211 -0.1773  0.0079  0.4699
  314YOPC   D3B 3901  17.976   9.496   8.873 -0.0197  0.0089 -0.0942
  314YOPC   C4B 3902  18.239   9.743   8.710 -0.1318  0.2005  0.3503
  315YOPC   NC3 3903  15.088   9.903  10.428 -0.2322 -0.1659 -0.1098
  315YOPC   PO4 3904  15.545  10.085  10.586 -0.0215  0.0847  0.0133
  315YOPC   GL1 3905  15.594   9.998  10.151  0.2925  0.2431 -0.0986
  315YOPC   GL2 3906  15.657  10.170  10.018  0.1641 -0.2041  0.0312
  315YOPC   C1A 3907  15.442   9.799   9.691 -0.1805 -0.0821  0.2173
  315YOPC   D2A 3908  15.205   9.646   9.333 -0.1069  0.1754  0.1719
  315YOPC   C3A 3909  15.402   9.578   9.074 -0.3648  0.5157 -0.1475
  315YOPC   C4A 3910  15.402   9.624   8.600  0.1963 -0.1423 -0.2533
  315YOPC   C1B 3911  15.669  10.176   9.615  0.1447 -0.3126  0.1157
  315YOPC   C2B 3912  15.508  10.035   9.261  0.2461 -0.1474  0.1878
  315YOPC   D3B 3913  15.619   9.971   8.891 -0.1645 -0.0431  0.2674
  315YOPC   C4B 3914  16.050   9.990   8.769 -0.0660  0.0354 -0.3225
  316YOPC   NC3 3915   2.485   1.448  10.328 -0.3797 -0.0444  0.2075
  316YOPC   PO4 3916   2.254   1.010  10.303 -0.0687 -0.0886  0.0412
  316YOPC   GL1 3917   1.998   1.097   9.930  0.1183 -0.2784 -0.3130
  316YOPC   GL2 3918   2.062   1.401   9.902 -0.0304  0.0527 -0.0643
  316YOPC   C1A 3919   1.804   1.114   9.569  0.0263 -0.0889 -0.1898
  316YOPC   D2A 3920   1.864   1.259   9.126  0.1341  0.1147 -0.3320
  316YOPC   C3A 3921   1.465   1.514   8.978  0.0435 -0.2419 -0.1292
  316YOPC   C4A 3922   1.317   1.816   8.827  0.2667 -0.0301  0.0873
  316YOPC   C1B 3923   2.237   1.447   9.436  0.0284 -0.0585  0.0587
  316YOPC   C2B 3924   2.354   1.490   9.013  0.0771 -0.1170  0.3729
  316YOPC   D3B 3925   2.430   1.569   8.627 -0.1414  0.2124  0.0184
  316YOPC   C4B 3926   2.561   1.848   8.179 -0.2486  0.1654 -0.0561
  317YOPC   NC3 3927   6.505  13.014  10.539 -0.0715 -0.4043  0.0127
  317YOPC   PO4 3928   6.489  13.135  10.050 -0.3222  0.2654  0.1634
  317YOPC   GL1 3929   6.941  13.276   9.802  0.0976 -0.1158 -0.0947
  317YOPC   GL2 3930   7.098  13.051   9.678 -0.0317  0.0615  0.2053
  317YOPC   C1A 3931   7.032  13.473   9.511 -0.0515 -0.1108  0.0813
  317YOPC   D2A 3932   7.057  13.888   9.229 -0.3734 -0.1120  0.1031
  317YOPC   C3A 3933   7.024  13.790   8.847 -0.1252  0.0922  0.2255
  317YOPC   C4A 3934   6.994  13.996   8.472 -0.0115 -0.0927 -0.1301
  317YOPC   C1B 3935   7.139  13.119   9.245  0.1308  0.1431 -0.0985
  317YOPC   C2B 3936   7.055  13.131   8.974  0.4043 -0.0791 -0.1791
  317YOPC   D3B 3937   7.131  13.016   8.606 -0.3742 -0.1854 -0.0670
  317YOPC   C4B 3938   7.151  12.741   8.400 -0.1314  0.1694 -0.1786
  318YOPC   NC3 3939   9.102   3.716   9.893 -0.1133  0.0467 -0.0806
  318YOPC   PO4 3940   9.577   3.613  10.009 -0.0665  0.0606 -0.0557
  318YOPC   GL1 3941   9.449   3.865   9.624  0.1997 -0.2397 -0.5029
  318YOPC   GL2 3942   9.720   3.935   9.539 -0.0299 -0.0122 -0.2038
  318YOPC   C1A 3943   9.389   3.962   9.142 -0.0223  0.1446 -0.3928
  318YOPC   D2A 3944   9.453   4.107   8.899  0.3591  0.0328  0.3158
  318YOPC   C3A 3945   9.474   4.052   8.490 -0.2259 -0.0479 -0.2035
  318YOPC   C4A 3946   9.541   3.948   7.988  0.1525 -0.2366  0.2489
  318YOPC   C1B 3947   9.860   4.306   9.184  0.3000 -0.3329  0.0891
  318YOPC   C2B 3948   9.887   4.341   8.740 -0.0973 -0.1510  0.1670
  318YOPC   D3B 3949   9.776   4.509   8.450 -0.1052  0.3197 -0.1325
  318YOPC   C4B 3950   9.480   4.445   8.142 -0.2785 -0.1112  0.0981
  319YOPC   NC3 3951   4.255  18.381  10.323  0.1966  0.0784 -0.2994
  319YOPC   PO4 3952   3.981  18.642  10.445 -0.1061 -0.0032  0.0338
  319YOPC   GL1 3953   3.847  18.799  10.068  0.1116  0.0494 -0.1813
  319YOPC   GL2 3954   3.651  18.589   9.833  0.0305  0.3162 -0.0170
  319YOPC   C1A 3955   4.056  18.857   9.662 -0.0037  0.2200 -0.4146
  319YOPC   D2A 3956   4.001  18.964   9.181 -0.0418  0.0913  0.1143
  319YOPC   C3A 3957   4.152  19.269   8.964 -0.0276 -0.1528  0.1350
  319YOPC   C4A 3958   4.219  19.138   8.648 -0.1247 -0.1769  0.1084
  319YOPC   C1B 3959   3.615  18.594   9.368  0.1243 -0.3606 -0.0334
  319YOPC   C2B 3960   3.658  18.521   8.973 -0.1950  0.0342 -0.2906
  319YOPC   D3B 3961   3.869  18.715   8.700 -0.0133  0.1129 -0.2490
  319YOPC   C4B 3962   4.117  18.677   8.391 -0.0752  0.1306 -0.0416
  320YOPC   NC3 3963   1.270   4.467  10.240 -0.0826  0.0070  0.0697
  320YOPC   PO4 3964   1.601   4.306  10.389  0.0971  0.0216 -0.2204
  320YOPC   GL1 3965   1.524   4.099   9.950  0.1052 -0.0070 -0.2381
  320YOPC   GL2 3966   1.416   3.731   9.942  0.0516 -0.2263 -0.1388
  320YOPC   C1A 3967   1.582   4.133   9.496 -0.0854 -0.0475 -0.1460
  320YOPC   D2A 3968   1.550   3.938   9.083  0.2849 -0.1633  0.2335
  320YOPC   C3A 3969   1.297   4.090   8.679  0.1392 -0.1142 -0.3844
  320YOPC   C4A 3970   1.068   4.431   8.592  0.1240 -0.0279 -0.1577
  320YOPC   C1B 3971   1.447   3.541   9.537 -0.1124  0.2943  0.0172
  320YOPC   C2B 3972   1.469   3.194   9.395  0.1029 -0.3099 -0.0343
  320YOPC   D3B 3973   1.476   2.766   9.385  0.0555  0.1887 -0.1387
  320YOPC   C4B 3974   1.221   2.429   9.330 -0.0233 -0.2984  0.3783
  321YOPC   NC3 3975  17.838   3.229  10.523  0.1320 -0.1779  0.0141
  321YOPC   PO4 3976  18.212   3.216  10.426  0.0323 -0.0794  0.1261
  321YOPC   GL1 3977  18.129   2.794  10.411  0.1888 -0.3434  0.1706
  321YOPC   GL2 3978  18.334   2.505  10.231  0.2544  0.1216 -0.0282
  321YOPC   C1A 3979  17.871   2.532  10.134  0.0253 -0.0391 -0.2438
  321YOPC   D2A 3980  17.899   2.316   9.751  0.0792 -0.2355  0.0720
  321YOPC   C3A 3981  17.655   2.037   9.740 -0.0576  0.1277 -0.0369
  321YOPC   C4A 3982  17.517   1.871   9.482 -0.0111  0.0138  0.1000
  321YOPC   C1B 3983  18.257   2.695   9.863  0.0965 -0.1096 -0.1849
  321YOPC   C2B 3984  18.055   3.072   9.606 -0.3405  0.0612  0.3012
  321YOPC   D3B 3985  18.306   3.000   9.168 -0.0600  0.0484  0.0576
  321YOPC   C4B 3986  18.645   3.123   8.821  0.0166 -0.0709 -0.1575
  322YOPC   NC3 3987   9.614  14.032   9.829 -0.0304  0.0924 -0.3314
  322YOPC   PO4 3988  10.006  13.915   9.992  0.0113 -0.3865 -0.1364
  322YOPC   GL1 3989  10.109  14.221   9.725  0.2814  0.0666  0.1969
  322YOPC   GL2 3990   9.877  14.085   9.437 -0.2086 -0.0503  0.1794
  322YOPC   C1A 3991  10.199  14.493   9.329 -0.1358 -0.2078 -0.1450
  322YOPC   D2A 3992  10.191  14.637   8.948  0.0095 -0.2039 -0.2439
  322YOPC   C3A 3993  10.089  14.467   8.551  0.0736 -0.0330  0.0066
  322YOPC   C4A 3994  10.144  14.617   8.090  0.4112  0.3050 -0.3645
  322YOPC   C1B 3995  10.013  13.983   9.136 -0.2747 -0.0466  0.2266
  322YOPC   C2B 3996   9.993  13.853   8.727 -0.0274  0.2136 -0.3199
  322YOPC   D3B 3997  10.169  13.980   8.354  0.0425  0.0375 -0.0232
  322YOPC   C4B 3998  10.511  14.200   8.252 -0.0912 -0.0265 -0.0638
  323YOPC   NC3 3999  13.969   6.460  11.148 -0.0051  0.3568  0.2199
  323YOPC   PO4 4000  13.608   6.243  10.985 -0.1202  0.1373  0.0376
  323YOPC   GL1 4001  13.437   6.260  10.568 -0.4101  0.2054  0.2712
  323YOPC   GL2 4002  13.609   6.163  10.332 -0.0340 -0.2504 -0.0856
  323YOPC   C1A 4003  13.081   6.091  10.360  0.3115 -0.0625 -0.3523
  323YOPC   D2A 4004  12.967   5.790  10.050  0.1305  0.0757 -0.1706
  323YOPC   C3A 4005  12.915   5.403   9.873 -0.0051  0.2026 -0.1584
  323YOPC   C4A 4006  12.895   5.208   9.458 -0.0214  0.1150  0.0867
  323YOPC   C1B 4007  13.439   6.307  10.049 -0.2519  0.1674  0.3373
  323YOPC   C2B 4008  13.304   6.642   9.751  0.0711 -0.1561  0.0456
  323YOPC   D3B 4009  13.603   6.573   9.345  0.0750  0.0202  0.2159
  323YOPC   C4B 4010  13.920   6.786   9.028 -0.1776  0.1813  0.3377
  324YOPC   NC3 4011   5.352   2.660  10.704 -0.3735  0.1804  0.0210
  324YOPC   PO4 4012   5.069   2.998  10.415  0.1407 -0.3838  0.0669
  324YOPC   GL1 4013   4.885   2.936   9.963  0.1278  0.1655 -0.3736
  324YOPC   GL2 4014   4.527   3.132   9.945 -0.0041 -0.0861 -0.1491
  324YOPC   C1A 4015   4.771   2.841   9.577  0.0738  0.0678 -0.0209
  324YOPC   D2A 4016   4.487   2.834   9.311 -0.1911  0.0321  0.2173
  324YOPC   C3A 4017   4.419   2.618   8.960  0.1848 -0.3120  0.0207
  324YOPC   C4A 4018   4.296   2.488   8.544 -0.0655  0.0319  0.0690
  324YOPC   C1B 4019   4.718   3.434   9.622  0.1132  0.2252 -0.2798
  324YOPC   C2B 4020   5.079   3.220   9.444  0.0993 -0.2143 -0.1170
  324YOPC   D3B 4021   5.208   3.195   8.996  0.0929  0.0805  0.1630
  324YOPC   C4B 4022   5.301   3.407   8.601  0.0550  0.3195  0.1944
  325YOPC   NC3 4023   6.180  17.874  10.294 -0.0955  0.4453  0.1237
  325YOPC   PO4 4024   6.391  18.266  10.306 -0.1595  0.1020  0.2508
  325YOPC   GL1 4025   6.344  18.179   9.877 -0.0163  0.2789 -0.1084
  325YOPC   GL2 4026   6.070  18.174   9.725 -0.0583  0.3262 -0.2631
  325YOPC   C1A 4027   6.492  17.890   9.600 -0.1893 -0.3687  0.0346
  325YOPC   D2A 4028   6.589  17.523   9.274 -0.0233 -0.1407  0.0515
  325YOPC   C3A 4029   6.646  17.523   8.865  0.1044  0.1334 -0.0283
  325YOPC   C4A 4030   6.657  17.743   8.583  0.1104 -0.4339  0.2260
  325YOPC   C1B 4031   6.011  18.271   9.304  0.0461  0.1885  0.1222
  325YOPC   C2B 4032   5.990  18.182   8.800  0.2144 -0.2005 -0.1117
  325YOPC   D3B 4033   6.339  18.141   8.550  0.1839  0.1225  0.0330
  325YOPC   C4B 4034   6.621  18.042   8.186  0.3738  0.1339 -0.1016
  326YOPC   NC3 4035   3.594   2.969  10.481 -0.3315  0.2133  0.5168
  326YOPC   PO4 4036   3.735   3.478  10.378  0.1806 -0.2727  0.2692
  326YOPC   GL1 4037   3.810   3.424   9.914 -0.1761 -0.0380 -0.0560
  326YOPC   GL2 4038   4.158   3.321   9.735  0.0953 -0.2966  0.2719
  326YOPC   C1A 4039   3.605   3.251   9.518 -0.2104 -0.2310  0.0335
  326YOPC   D2A 4040   3.163   3.165   9.396 -0.0858 -0.1018 -0.0309
  326YOPC   C3A 4041   2.999   2.770   9.591  0.1542  0.1723  0.1294
  326YOPC   C4A 4042   2.515   2.530   9.567 -0.1122 -0.0075 -0.0685
  326YOPC   C1B 4043   4.330   3.354   9.317 -0.0504  0.1299  0.1408
  326YOPC   C2B 4044   4.677   3.245   9.042 -0.1386  0.1276  0.3317
  326YOPC   D3B 4045   4.765   3.359   8.604 -0.1096  0.3019  0.2054
  326YOPC   C4B 4046   4.800   3.336   8.079 -0.0911  0.0666 -0.1081
  327YOPC   NC3 4047   8.854  15.034   9.980 -0.0471  0.0489  0.0040
  327YOPC   PO4 4048   8.981  14.727   9.761  0.1574 -0.2908 -0.1474
  327YOPC   GL1 4049   8.909  14.554   9.359 -0.1377 -0.0404 -0.0301
  327YOPC   GL2 4050   8.613  14.384   9.225 -0.0952  0.0263 -0.2961
  327YOPC   C1A 4051   8.876  14.565   8.833 -0.2147  0.0609 -0.1583
  327YOPC   D2A 4052   8.782  14.497   8.348  0.1914  0.0221  0.1154
  327YOPC   C3A 4053   9.182  14.428   8.183  0.0991 -0.1566 -0.2541
  327YOPC   C4A 4054   9.363  14.385   7.855 -0.1886 -0.2850  0.0448
  327YOPC   C1B 4055   8.579  14.131   8.764  0.3089 -0.0824  0.3342
  327YOPC   C2B 4056   8.561  14.071   8.239  0.0902 -0.0807 -0.1990
  327YOPC   D3B 4057   8.461  14.556   7.959 -0.3160  0.0351 -0.0231
  327YOPC   C4B 4058   8.476  15.023   7.816 -0.2256 -0.1457  0.0615
  328YOPC   NC3 4059   1.527   7.293  10.473  0.0421  0.0423 -0.0090
  328YOPC   PO4 4060   1.825   7.046  10.364 -0.0967  0.0184  0.1217
  328YOPC   GL1 4061   2.093   7.313  10.016  0.1694  0.4064  0.0632
  328YOPC   GL2 4062   2.472   7.327  10.016 -0.1906 -0.2289 -0.0294
  328YOPC   C1A 4063   2.151   7.710   9.910  0.2292  0.0487 -0.2869
  328YOPC   D2A 4064   2.090   7.869   9.577  0.1249  0.0546  0.0484
  328YOPC   C3A 4065   2.239   7.710   9.245  0.1304 -0.1202  0.1869
  328YOPC   C4A 4066   2.231   7.508   8.925 -0.1704 -0.0412 -0.4348
  328YOPC   C1B 4067   2.326   7.336   9.592 -0.0244 -0.0947 -0.1328
  328YOPC   C2B 4068   2.389   7.145   9.176  0.0707  0.2301 -0.0546
  328YOPC   D3B 4069   2.076   6.979   8.921  0.2152 -0.0165  0.0898
  328YOPC   C4B 4070   1.955   6.729   8.514  0.0343  0.0423 -0.1701
  329YOPC   NC3 4071  13.889  17.610   9.816  0.0671 -0.0232  0.0862
  329YOPC   PO4 4072  14.240  17.876   9.938  0.0806  0.0652 -0.0642
  329YOPC   GL1 4073  14.209  17.855   9.497  0.0850 -0.1045  0.2759
  329YOPC   GL2 4074  14.516  17.904   9.325  0.0019 -0.0105  0.0237
  329YOPC   C1A 4075  14.206  17.627   9.052  0.0443  0.0060 -0.0036
  329YOPC   D2A 4076  14.253  17.541   8.626  0.0655 -0.2010 -0.0486
  329YOPC   C3A 4077  14.486  17.558   8.176  0.1588 -0.1444 -0.2800
  329YOPC   C4A 4078  14.620  17.678   7.749  0.0239 -0.0476 -0.0040
  329YOPC   C1B 4079  14.707  18.082   9.092  0.1234  0.4123  0.0450
  329YOPC   C2B 4080  14.807  18.199   8.642  0.3221  0.1293  0.2369
  329YOPC   D3B 4081  15.152  18.347   8.435 -0.0377 -0.0451  0.2048
  329YOPC   C4B 4082  15.269  18.751   8.354 -0.2807 -0.0939 -0.0387
  330YOPC   NC3 4083  14.631  15.398  10.142  0.0553 -0.0424 -0.0088
  330YOPC   PO4 4084  14.292  15.439   9.880 -0.1499  0.0921  0.0322
  330YOPC   GL1 4085  14.609  15.370   9.579 -0.0865  0.2120  0.2454
  330YOPC   GL2 4086  14.445  15.580   9.370  0.0139 -0.0948  0.2221
  330YOPC   C1A 4087  14.935  15.190   9.426 -0.1611 -0.1075 -0.3661
  330YOPC   D2A 4088  14.979  15.436   9.101 -0.1098  0.4353  0.0244
  330YOPC   C3A 4089  15.235  15.347   8.663  0.2497  0.0842 -0.0526
  330YOPC   C4A 4090  15.354  15.472   8.196 -0.0938  0.5090  0.1078
  330YOPC   C1B 4091  14.511  15.689   8.896 -0.0473  0.0839  0.0556
  330YOPC   C2B 4092  14.909  15.740   8.679  0.1616 -0.1637 -0.0333
  330YOPC   D3B 4093  14.828  15.597   8.341 -0.4323  0.1491 -0.0037
  330YOPC   C4B 4094  14.576  15.534   8.097 -0.2464  0.0886  0.1711
  331YOPC   NC3 4095   7.317  17.868  10.215 -0.0786  0.0875  0.0121
  331YOPC   PO4 4096   7.239  18.314  10.000 -0.1083 -0.0902  0.0523
  331YOPC   GL1 4097   7.233  18.210   9.582 -0.1297 -0.1674 -0.1433
  331YOPC   GL2 4098   6.823  18.302   9.546  0.0001 -0.0683 -0.1069
  331YOPC   C1A 4099   7.240  18.348   9.167 -0.1490  0.0909 -0.3808
  331YOPC   D2A 4100   7.137  18.482   8.773  0.0258  0.0252 -0.1382
  331YOPC   C3A 4101   7.082  18.924   8.646  0.0656  0.0334  0.2156
  331YOPC   C4A 4102   6.974  19.002   8.203 -0.1222 -0.3717 -0.0415
  331YOPC   C1B 4103   6.770  18.843   9.651 -0.0077 -0.3851  0.0591
  331YOPC   C2B 4104   6.911  19.208   9.782 -0.0789 -0.0720 -0.1739
  331YOPC   D3B 4105   7.189  19.338   9.520  0.1095  0.2253  0.2230
  331YOPC   C4B 4106   7.195  19.691   9.229 -0.0687 -0.2095 -0.0367
  332YOPC   NC3 4107  16.043   1.843  10.768 -0.1644 -0.1291  0.0665
  332YOPC   PO4 4108  15.845   2.126  10.715 -0.1118 -0.2016 -0.0123
  332YOPC   GL1 4109  16.041   2.269  10.344 -0.1989  0.2194  0.1239
  332YOPC   GL2 4110  15.728   2.230  10.222 -0.2178  0.1884 -0.0121
  332YOPC   C1A 4111  16.126   2.268   9.881  0.0254 -0.1070  0.3115
  332YOPC   D2A 4112  15.950   2.239   9.543  0.0599 -0.1326  0.0693
  332YOPC   C3A 4113  16.181   2.033   9.158  0.2389 -0.0952  0.3640
  332YOPC   C4A 4114  16.400   1.842   8.826 -0.3500 -0.2657 -0.1429
  332YOPC   C1B 4115  15.620   2.013   9.861 -0.0141 -0.3242  0.2457
  332YOPC   C2B 4116  15.569   1.612   9.964  0.0211  0.1995 -0.0063
  332YOPC   D3B 4117  15.312   1.417   9.795 -0.1551  0.0649 -0.3724
  332YOPC   C4B 4118  15.162   1.339   9.459  0.1761 -0.0377 -0.1768
  333YOPC   NC3 4119   2.567   0.576  10.315 -0.1706  0.2899  0.0447
  333YOPC   PO4 4120   2.825   0.194  10.304  0.0441 -0.0443  0.0575
  333YOPC   GL1 4121   2.860   0.154   9.854  0.0029 -0.1093  0.0708
  333YOPC   GL2 4122   3.181   0.228   9.697  0.0073  0.0434  0.2335
  333YOPC   C1A 4123   2.679  -0.010   9.427 -0.0064  0.2297 -0.0193
  333YOPC   D2A 4124   2.682  -0.057   9.014 -0.2276 -0.0300 -0.0212
  333YOPC   C3A 4125   2.841   0.247   8.722 -0.1484  0.1614  0.4840
  333YOPC   C4A 4126   2.833   0.674   8.690 -0.4069  0.0577  0.0558
  333YOPC   C1B 4127   3.160   0.244   9.192 -0.0724 -0.1727  0.2532
  333YOPC   C2B 4128   3.163  -0.083   8.894 -0.0841  0.1868  0.0122
  333YOPC   D3B 4129   3.506  -0.268   8.627  0.3605  0.0309  0.1304
  333YOPC   C4B 4130   3.865  -0.237   8.535  0.3675 -0.1920 -0.1505
  334YOPC   NC3 4131  14.404   1.982  10.407 -0.0296 -0.0074  0.0315
  334YOPC   PO4 4132  14.609   2.092  10.118 -0.2046  0.0310 -0.1407
  334YOPC   GL1 4133  14.599   2.041   9.748 -0.1197  0.2516  0.1428
  334YOPC   GL2 4134  14.635   1.765   9.608  0.0969 -0.1219 -0.0467
  334YOPC   C1A 4135  14.215   2.015   9.520  0.3376  0.0240 -0.2192
  334YOPC   D2A 4136  14.070   1.814   9.094 -0.1975  0.2842  0.0580
  334YOPC   C3A 4137  13.861   1.474   9.121 -0.0057 -0.0752  0.3030
  334YOPC   C4A 4138  13.802   1.101   9.253  0.1579  0.0578  0.0553
  334YOPC   C1B 4139  14.555   1.799   9.181  0.1634 -0.2314  0.0421
  334YOPC   C2B 4140  14.543   1.939   8.829  0.2136 -0.0175  0.1412
  334YOPC   D3B 4141  14.162   2.039   8.630  0.2233  0.0134 -0.0243
  334YOPC   C4B 4142  14.059   1.914   8.279 -0.0748  0.1049 -0.1055
  335YOPC   NC3 4143   8.355  16.852   9.946 -0.3888  0.1757 -0.1680
  335YOPC   PO4 4144   7.994  16.636  10.111 -0.0995 -0.2340 -0.0928
  335YOPC   GL1 4145   7.859  16.645   9.672  0.1205  0.0387 -0.0891
  335YOPC   GL2 4146   7.612  16.398   9.696 -0.0787  0.2261 -0.0027
  335YOPC   C1A 4147   7.946  16.470   9.237  0.1084 -0.0370  0.0370
  335YOPC   D2A 4148   8.209  16.546   8.975  0.0954  0.2028  0.0156
  335YOPC   C3A 4149   8.072  16.538   8.615  0.2011  0.0287  0.0871
  335YOPC   C4A 4150   7.783  16.590   8.307 -0.1377  0.3065  0.2365
  335YOPC   C1B 4151   7.439  16.366   9.254  0.2707  0.1604  0.0516
  335YOPC   C2B 4152   7.622  16.384   8.842  0.1437  0.3160  0.2388
  335YOPC   D3B 4153   7.486  16.191   8.469 -0.0599  0.1789 -0.3945
  335YOPC   C4B 4154   7.407  16.337   8.123  0.0642  0.2071  0.1013
  336YOPC   NC3 4155  11.902  13.268  10.533  0.0764 -0.1335 -0.1202
  336YOPC   PO4 4156  11.717  13.213  10.117 -0.1882  0.0278  0.1039
  336YOPC   GL1 4157  11.722  12.987   9.684 -0.0085 -0.0466 -0.2075
  336YOPC   GL2 4158  11.834  12.757   9.599 -0.3493  0.1765  0.2467
  336YOPC   C1A 4159  11.718  13.218   9.210  0.1325 -0.0374 -0.0078
  336YOPC   D2A 4160  11.793  13.059   8.701  0.0811 -0.1145 -0.2296
  336YOPC   C3A 4161  11.770  13.240   8.297  0.3429  0.0578 -0.0464
  336YOPC   C4A 4162  11.611  13.574   7.990 -0.2957 -0.3546  0.2016
  336YOPC   C1B 4163  11.886  12.802   9.153  0.1577  0.1828  0.1602
  336YOPC   C2B 4164  12.151  12.658   8.716 -0.2177  0.1488 -0.3476
  336YOPC   D3B 4165  12.088  12.888   8.302 -0.0735  0.1874  0.0914
  336YOPC   C4B 4166  12.126  13.033   7.911 -0.0954  0.1226  0.0022
  337YOPC   NC3 4167  12.054  12.822  10.077  0.0226  0.1870 -0.2693
  337YOPC   PO4 4168  12.421  13.029  10.204 -0.0834  0.1555 -0.2180
  337YOPC   GL1 4169  12.446  12.959   9.708  0.0899  0.2210 -0.3069
  337YOPC   GL2 4170  12.740  12.788   9.710 -0.0780 -0.1662 -0.0642
  337YOPC   C1A 4171  12.331  12.668   9.374 -0.1695 -0.0760 -0.1041
  337YOPC   D2A 4172  12.431  12.322   9.217 -0.0587 -0.0947  0.1454
  337YOPC   C3A 4173  12.038  12.226   8.984 -0.2684  0.1002 -0.1337
  337YOPC   C4A 4174  11.870  12.258   8.595 -0.4466  0.0579  0.1562
  337YOPC   C1B 4175  12.871  12.530   9.442 -0.2714 -0.3707 -0.0290
  337YOPC   C2B 4176  13.001  12.250   9.168 -0.2285  0.2581 -0.0542
  337YOPC   D3B 4177  12.811  12.304   8.830 -0.0352 -0.1984  0.0140
  337YOPC   C4B 4178  12.800  12.548   8.577  0.1774 -0.1683  0.0214
  338YOPC   NC3 4179   1.887   2.968  10.076  0.0303  0.2912 -0.0740
  338YOPC   PO4 4180   2.071   3.164  10.346  0.0615 -0.2106  0.2765
  338YOPC   GL1 4181   2.234   3.280   9.906 -0.3092  0.0263 -0.1185
  338YOPC   GL2 4182   2.360   3.004   9.803  0.1834  0.0362  0.0227
  338YOPC   C1A 4183   1.998   3.161   9.471 -0.3049  0.0075  0.3762
  338YOPC   D2A 4184   1.824   3.023   9.134 -0.1138  0.1648 -0.0476
  338YOPC   C3A 4185   1.989   3.101   8.710  0.1946  0.4393  0.2313
  338YOPC   C4A 4186   1.859   3.480   8.415  0.0918 -0.0839 -0.0126
  338YOPC   C1B 4187   2.415   3.508   9.486 -0.2374  0.1404 -0.2260
  338YOPC   C2B 4188   2.282   3.412   8.992 -0.0160  0.1663 -0.0241
  338YOPC   D3B 4189   2.181   3.713   8.713  0.3078 -0.0343  0.0360
  338YOPC   C4B 4190   1.832   3.969   8.598 -0.1374  0.1946 -0.0332
  339YOPC   NC3 4191  13.034  17.805   9.682  0.2520 -0.1274 -0.0882
  339YOPC   PO4 4192  13.383  17.571   9.769  0.2761  0.1005  0.0414
  339YOPC   GL1 4193  13.310  17.433   9.294 -0.1916  0.2572  0.0554
  339YOPC   GL2 4194  12.953  17.540   9.201 -0.2811  0.0145  0.1262
  339YOPC   C1A 4195  13.236  17.515   8.845 -0.1123 -0.1680  0.0189
  339YOPC   D2A 4196  13.323  17.642   8.465  0.2568  0.1280 -0.0683
  339YOPC   C3A 4197  13.028  17.815   8.101 -0.4184  0.0693  0.0875
  339YOPC   C4A 4198  12.796  17.760   7.801 -0.0720  0.2680 -0.0116
  339YOPC   C1B 4199  12.754  17.795   8.798  0.0630 -0.0963  0.4095
  339YOPC   C2B 4200  12.705  18.050   8.432 -0.0078  0.3193 -0.1097
  339YOPC   D3B 4201  12.638  18.197   8.072 -0.0151  0.0673 -0.2563
  339YOPC   C4B 4202  12.730  18.280   7.609 -0.1099  0.0089 -0.2649
  340YOPC   NC3 4203  10.190   1.300   9.896 -0.0268 -0.0788  0.0548
  340YOPC   PO4 4204  10.224   0.887   9.739  0.3751  0.0074 -0.0018
  340YOPC   GL1 4205  10.413   1.007   9.365 -0.0371  0.0537  0.2183
  340YOPC   GL2 4206  10.169   0.971   9.036  0.0854 -0.1007  0.0790
  340YOPC   C1A 4207  10.643   0.904   8.974 -0.3775 -0.1035  0.1789
  340YOPC   D2A 4208  10.959   0.832   8.669 -0.3607 -0.0569 -0.2737
  340YOPC   C3A 4209  10.870   1.005   8.214  0.0265 -0.0683 -0.1612
  340YOPC   C4A 4210  11.086   1.294   7.944  0.3110  0.1172  0.3244
  340YOPC   C1B 4211   9.973   0.792   8.651  0.2313 -0.1852 -0.0303
  340YOPC   C2B 4212   9.797   0.643   8.276  0.3027  0.0223  0.3056
  340YOPC   D3B 4213   9.360   0.581   8.077  0.1918 -0.1896  0.0300
  340YOPC   C4B 4214   8.982   0.703   7.701 -0.0223 -0.0296  0.1712
  341YOPC   NC3 4215   1.175  13.465  10.322 -0.2148 -0.2172 -0.0863
  341YOPC   PO4 4216   0.852  13.660  10.229  0.1760  0.2417 -0.1018
  341YOPC   GL1 4217   0.922  13.617   9.749  0.0528 -0.0157  0.0582
  341YOPC   GL2 4218   1.057  13.338   9.812  0.0369  0.0742 -0.2103
  341YOPC   C1A 4219   1.034  13.856   9.232 -0.5009 -0.1813  0.1527
  341YOPC   D2A 4220   0.956  13.875   8.759 -0.0321 -0.0096 -0.1229
  341YOPC   C3A 4221   1.020  13.573   8.402  0.2361  0.1692  0.2037
  341YOPC   C4A 4222   1.082  13.658   8.010 -0.1615 -0.0858 -0.1702
  341YOPC   C1B 4223   1.129  13.157   9.391 -0.1403 -0.2380  0.0039
  341YOPC   C2B 4224   1.268  12.967   9.015  0.4420 -0.0175 -0.2590
  341YOPC   D3B 4225   1.148  13.096   8.619 -0.1670  0.0077  0.2349
  341YOPC   C4B 4226   1.415  13.239   8.246 -0.0757 -0.0277 -0.0410
  342YOPC   NC3 4227  14.423  14.380  10.254 -0.1806  0.4464  0.4191
  342YOPC   PO4 4228  14.382  14.604   9.860  0.0554 -0.1707 -0.0715
  342YOPC   GL1 4229  14.295  14.999   9.620 -0.0197 -0.1391 -0.1106
  342YOPC   GL2 4230  14.425  14.840   9.324 -0.0982 -0.1286 -0.2584
  342YOPC   C1A 4231  14.062  15.243   9.266  0.0102  0.1480  0.2098
  342YOPC   D2A 4232  14.131  15.193   8.672  0.1912 -0.0431  0.1065
  342YOPC   C3A 4233  14.082  15.340   8.334  0.1510 -0.0448  0.1244
  342YOPC   C4A 4234  13.837  15.380   7.851  0.2181  0.0118 -0.0956
  342YOPC   C1B 4235  14.574  15.183   9.043  0.1825  0.1405  0.1750
  342YOPC   C2B 4236  14.728  15.254   8.657 -0.0184  0.0560 -0.0531
  342YOPC   D3B 4237  15.027  15.118   8.295 -0.1794  0.0274 -0.0603
  342YOPC   C4B 4238  14.961  15.287   7.943  0.1047 -0.4039 -0.0419
  343YOPC   NC3 4239  18.171   4.746  11.181 -0.0521 -0.4583  0.1672
  343YOPC   PO4 4240  18.329   5.086  10.873  0.0586 -0.1718  0.0795
  343YOPC   GL1 4241  18.401   4.951  10.494 -0.2541 -0.0599  0.1289
  343YOPC   GL2 4242  18.046   4.841  10.273 -0.0676  0.2465  0.3125
  343YOPC   C1A 4243  18.580   4.887  10.035 -0.0159 -0.1469  0.1926
  343YOPC   D2A 4244  18.608   5.173   9.673  0.0165  0.0263 -0.0285
  343YOPC   C3A 4245  18.503   5.031   9.197  0.0661  0.1617  0.2134
  343YOPC   C4A 4246  18.700   5.164   8.878  0.0548 -0.2451  0.0314
  343YOPC   C1B 4247  18.070   5.148   9.912  0.0571  0.0227 -0.1799
  343YOPC   C2B 4248  18.032   5.213   9.465  0.3697  0.0662  0.0697
  343YOPC   D3B 4249  17.981   4.952   9.126 -0.1011  0.2308 -0.2443
  343YOPC   C4B 4250  18.255   4.852   8.643 -0.2266 -0.1215 -0.0069
  344YOPC   NC3 4251  12.914  13.030  10.123 -0.0162 -0.2688 -0.0599
  344YOPC   PO4 4252  13.049  12.655  10.111 -0.1128 -0.1381  0.0384
  344YOPC   GL1 4253  13.259  12.647   9.711 -0.1283  0.2997 -0.1939
  344YOPC   GL2 4254  13.241  13.028   9.631 -0.0832 -0.0401  0.2117
  344YOPC   C1A 4255  13.492  12.519   9.372 -0.2293  0.2931  0.3320
  344YOPC   D2A 4256  13.591  12.294   8.962 -0.2369 -0.1983  0.0965
  344YOPC   C3A 4257  13.682  12.517   8.469  0.1761 -0.0282 -0.2109
  344YOPC   C4A 4258  14.032  12.707   8.299  0.1003  0.0085 -0.0254
  344YOPC   C1B 4259  13.388  12.970   9.301  0.1969  0.2311 -0.0346
  344YOPC   C2B 4260  13.221  12.724   8.998 -0.0627 -0.1674 -0.1425
  344YOPC   D3B 4261  13.277  12.854   8.558 -0.2149  0.2602  0.1652
  344YOPC   C4B 4262  13.026  12.929   8.123 -0.3652  0.1396 -0.2440
  345YOPC   NC3 4263  13.383   9.586  10.290 -0.0624  0.0932  0.0120
  345YOPC   PO4 4264  13.560  10.008  10.394 -0.2545 -0.0044 -0.0559
  345YOPC   GL1 4265  13.718   9.789  10.003  0.0495  0.2639  0.1479
  345YOPC   GL2 4266  13.839   9.556  10.024  0.0198  0.1998  0.2169
  345YOPC   C1A 4267  13.755   9.810   9.470 -0.2541 -0.1233 -0.0621
  345YOPC   D2A 4268  13.896   9.917   8.979  0.0434  0.0251  0.0614
  345YOPC   C3A 4269  14.255  10.011   8.817 -0.0743 -0.0373  0.0811
  345YOPC   C4A 4270  14.620  10.303   8.808 -0.0015  0.2498 -0.1094
  345YOPC   C1B 4271  13.777   9.315   9.692 -0.0976 -0.3032  0.2466
  345YOPC   C2B 4272  14.064   9.177   9.410  0.3304 -0.0107  0.5331
  345YOPC   D3B 4273  13.878   9.220   8.996 -0.0078 -0.0695 -0.0462
  345YOPC   C4B 4274  13.959   9.565   8.682 -0.1721  0.1649  0.0963
  346YOPC   NC3 4275   5.343   5.960  10.066  0.2826  0.1138 -0.4766
  346YOPC   PO4 4276   5.224   5.744   9.791 -0.4339 -0.0129 -0.5730
  346YOPC   GL1 4277   5.485   5.853   9.522  0.1740 -0.1288 -0.2152
  346YOPC   GL2 4278   5.835   5.733   9.731  0.3984 -0.0972  0.0548
  346YOPC   C1A 4279   5.449   5.732   9.051  0.3372  0.0303  0.1544
  346YOPC   D2A 4280   5.709   5.723   8.710  0.1980  0.0352 -0.0505
  346YOPC   C3A 4281   5.847   6.113   8.539  0.0427  0.0558 -0.4271
  346YOPC   C4A 4282   5.841   6.479   8.430  0.1538  0.2179  0.1018
  346YOPC   C1B 4283   5.876   5.615   9.261 -0.1373  0.0441  0.0262
  346YOPC   C2B 4284   6.004   5.290   9.050 -0.0387 -0.0022 -0.0718
  346YOPC   D3B 4285   6.025   5.266   8.550 -0.0724 -0.3656 -0.0002
  346YOPC   C4B 4286   5.802   5.433   8.292 -0.0689 -0.0164 -0.1667
  347YOPC   NC3 4287   4.048   2.147  10.383 -0.1672  0.0205  0.0091
  347YOPC   PO4 4288   3.923   2.495  10.079  0.1017 -0.0661 -0.2287
  347YOPC   GL1 4289   4.337   2.481   9.755  0.1629  0.0797 -0.1917
  347YOPC   GL2 4290   4.084   2.412   9.591  0.0924  0.1744  0.4563
  347YOPC   C1A 4291   4.662   2.329   9.439  0.2235 -0.0755 -0.1570
  347YOPC   D2A 4292   4.791   2.177   9.057 -0.1052 -0.1894  0.1160
  347YOPC   C3A 4293   4.869   2.469   8.686 -0.0422  0.0326  0.0936
  347YOPC   C4A 4294   5.098   2.910   8.557 -0.2853  0.2528  0.2245
  347YOPC   C1B 4295   4.141   2.401   9.301 -0.2599  0.1496 -0.2932
  347YOPC   C2B 4296   3.934   2.368   8.988  0.0504  0.2801  0.1413
  347YOPC   D3B 4297   3.581   2.285   8.735 -0.1296 -0.2373 -0.0681
  347YOPC   C4B 4298   3.179   2.370   8.657  0.0908  0.2199 -0.1714
  348YOPC   NC3 4299   7.981   6.399  10.247  0.1708 -0.0890  0.0279
  348YOPC   PO4 4300   7.792   6.002  10.298  0.0268 -0.0909 -0.2503
  348YOPC   GL1 4301   7.451   5.915  10.013 -0.0429  0.1177 -0.1335
  348YOPC   GL2 4302   7.526   6.232   9.817 -0.1522  0.2283  0.2956
  348YOPC   C1A 4303   7.276   5.797   9.683  0.0160 -0.2088  0.1471
  348YOPC   D2A 4304   7.314   5.502   9.426 -0.0845  0.0278  0.1501
  348YOPC   C3A 4305   7.641   5.372   9.620  0.0486 -0.2299 -0.1304
  348YOPC   C4A 4306   8.104   5.390   9.471  0.1454  0.0569  0.2587
  348YOPC   C1B 4307   7.581   6.320   9.392 -0.1233  0.1915 -0.0660
  348YOPC   C2B 4308   7.688   6.195   8.949 -0.1275 -0.0278 -0.0261
  348YOPC   D3B 4309   7.930   6.284   8.551  0.0901 -0.1609 -0.2594
  348YOPC   C4B 4310   8.326   6.504   8.383  0.0338 -0.1506  0.0263
  349YOPC   NC3 4311   6.457   7.926  10.512 -0.5573  0.0636 -0.0786
  349YOPC   PO4 4312   6.414   7.807  10.149 -0.2313 -0.1169  0.4344
  349YOPC   GL1 4313   6.395   7.840   9.767 -0.2736 -0.1289  0.1441
  349YOPC   GL2 4314   6.161   7.755   9.629 -0.1358  0.0059 -0.2080
  349YOPC   C1A 4315   6.432   8.130   9.440  0.0908 -0.0235 -0.0843
  349YOPC   D2A 4316   6.430   8.292   8.855  0.0258  0.3661 -0.0531
  349YOPC   C3A 4317   6.826   8.489   8.583 -0.2600 -0.2691  0.0379
  349YOPC   C4A 4318   6.856   8.556   8.153  0.0966 -0.3849  0.2359
  349YOPC   C1B 4319   6.215   7.757   9.173  0.1569 -0.0299 -0.0840
  349YOPC   C2B 4320   6.343   7.763   8.670  0.3396 -0.0347  0.2168
  349YOPC   D3B 4321   6.086   7.851   8.360 -0.0316  0.2651  0.0100
  349YOPC   C4B 4322   6.197   7.803   7.979 -0.1843 -0.3438  0.0127
  350YOPC   NC3 4323   9.330  10.406   9.926 -0.2064  0.1099  0.0272
  350YOPC   PO4 4324   9.104  10.809   9.987  0.0765  0.0353  0.2137
  350YOPC   GL1 4325   9.302  10.759   9.569 -0.0272 -0.2913 -0.0717
  350YOPC   GL2 4326   9.065  10.645   9.506 -0.1399 -0.1415  0.0934
  350YOPC   C1A 4327   9.291  10.821   9.129  0.0535 -0.1294 -0.1559
  350YOPC   D2A 4328   9.450  10.552   8.927 -0.2337  0.1798 -0.0729
  350YOPC   C3A 4329   9.263  10.285   8.579 -0.0708  0.0088  0.0453
  350YOPC   C4A 4330   8.924   9.973   8.507 -0.0852  0.1171  0.0766
  350YOPC   C1B 4331   9.123  10.362   9.257 -0.0501 -0.0835 -0.0536
  350YOPC   C2B 4332   8.962  10.148   8.949  0.1791  0.1209 -0.1144
  350YOPC   D3B 4333   9.005   9.715   8.915 -0.1242  0.5576  0.0201
  350YOPC   C4B 4334   9.000   9.547   9.253  0.0538  0.1045  0.0885
  351YOPC   NC3 4335  15.907  11.311  10.684  0.1472 -0.0406  0.1346
  351YOPC   PO4 4336  16.232  11.423  10.415 -0.0792 -0.1362  0.0944
  351YOPC   GL1 4337  16.200  11.335   9.978 -0.2311 -0.2059 -0.2159
  351YOPC   GL2 4338  16.375  11.602   9.917 -0.1694  0.2854  0.1446
  351YOPC   C1A 4339  16.030  11.142   9.613 -0.0074 -0.0012 -0.1800
  351YOPC   D2A 4340  15.643  10.974   9.460 -0.1419 -0.1406  0.1446
  351YOPC   C3A 4341  15.194  11.025   9.369 -0.1499 -0.1220 -0.3341
  351YOPC   C4A 4342  14.893  11.164   9.270  0.1966 -0.2316  0.0631
  351YOPC   C1B 4343  16.425  11.601   9.394  0.1451 -0.1537  0.2106
  351YOPC   C2B 4344  16.671  11.413   9.069  0.0085  0.1696  0.1455
  351YOPC   D3B 4345  16.514  11.224   8.722 -0.0369 -0.1100 -0.1501
  351YOPC   C4B 4346  16.218  10.980   8.720 -0.1436 -0.1364 -0.1578
  352YOPC   NC3 4347  15.245   7.345  11.180 -0.1763  0.0129 -0.1014
  352YOPC   PO4 4348  15.350   7.451  10.799  0.1825 -0.0110 -0.0006
  352YOPC   GL1 4349  15.380   7.545  10.357 -0.0750 -0.1021  0.1195
  352YOPC   GL2 4350  15.433   7.359  10.111 -0.1838  0.0548  0.1254
  352YOPC   C1A 4351  15.418   7.917  10.081  0.2002  0.4094  0.2463
  352YOPC   D2A 4352  15.584   8.212   9.955 -0.0846 -0.1134 -0.0212
  352YOPC   C3A 4353  15.887   8.486   9.934  0.0199 -0.0758  0.1552
  352YOPC   C4A 4354  15.849   8.939   9.903 -0.2130 -0.3237 -0.1623
  352YOPC   C1B 4355  15.271   7.182   9.698  0.0085 -0.1624 -0.0029
  352YOPC   C2B 4356  14.894   7.180   9.529  0.2699 -0.0025  0.0461
  352YOPC   D3B 4357  14.541   7.279   9.647  0.0391  0.0782 -0.0851
  352YOPC   C4B 4358  14.376   7.206  10.040 -0.1541 -0.0148 -0.1592
  353YOPC   NC3 4359  11.655  14.660   9.997 -0.0790 -0.0762 -0.1727
  353YOPC   PO4 4360  11.454  15.054   9.880 -0.2142 -0.2503 -0.3541
  353YOPC   GL1 4361  11.378  15.104   9.454  0.1933  0.2559  0.2981
  353YOPC   GL2 4362  11.063  15.174   9.527  0.2837 -0.0621  0.3014
  353YOPC   C1A 4363  11.609  15.316   9.189  0.0337 -0.1196  0.3054
  353YOPC   D2A 4364  12.076  15.283   9.060  0.1631 -0.2075 -0.0514
  353YOPC   C3A 4365  12.230  15.151   8.648 -0.3453  0.0262  0.0202
  353YOPC   C4A 4366  12.270  15.366   8.286 -0.3012  0.0389  0.0559
  353YOPC   C1B 4367  10.936  15.157   9.104 -0.0648 -0.1714 -0.0985
  353YOPC   C2B 4368  10.932  15.262   8.725  0.1395  0.0606  0.2365
  353YOPC   D3B 4369  11.010  14.886   8.397  0.3322 -0.0427  0.0800
  353YOPC   C4B 4370  11.094  14.782   7.910 -0.0040 -0.1500 -0.1031
  354YOPC   NC3 4371   1.160  14.564  10.336  0.3489  0.0839  0.2028
  354YOPC   PO4 4372   1.388  14.409   9.984  0.1951 -0.1186 -0.0472
  354YOPC   GL1 4373   1.274  14.263   9.521  0.1642  0.1115 -0.2849
  354YOPC   GL2 4374   1.227  14.582   9.443  0.2318 -0.4004 -0.0898
  354YOPC   C1A 4375   1.490  14.119   9.158  0.2862 -0.1060  0.1326
  354YOPC   D2A 4376   1.814  14.156   8.841  0.0779 -0.1336 -0.0658
  354YOPC   C3A 4377   1.757  14.218   8.400  0.2699 -0.1319 -0.1024
  354YOPC   C4A 4378   1.869  14.107   7.997 -0.0694 -0.1186 -0.4606
  354YOPC   C1B 4379   1.306  14.581   8.957  0.0779  0.4220 -0.3511
  354YOPC   C2B 4380   1.298  14.225   8.707  0.0170  0.0875 -0.2247
  354YOPC   D3B 4381   1.243  14.522   8.368 -0.2598 -0.1426  0.1010
  354YOPC   C4B 4382   0.981  14.543   8.013  0.1930 -0.2169  0.1727
  355YOPC   NC3 4383   4.337   7.428  10.240 -0.4894 -0.2432  0.2877
  355YOPC   PO4 4384   4.562   7.074   9.965 -0.1188 -0.3251 -0.0702
  355YOPC   GL1 4385   4.684   7.035   9.543  0.0580  0.1209 -0.0992
  355YOPC   GL2 4386   4.383   6.896   9.556  0.1158  0.1705 -0.1755
  355YOPC   C1A 4387   4.637   7.033   9.077 -0.3042 -0.2548  0.0408
  355YOPC   D2A 4388   4.382   6.932   8.676 -0.0621 -0.0945  0.1749
  355YOPC   C3A 4389   4.492   6.758   8.212  0.0714  0.3538 -0.1536
  355YOPC   C4A 4390   4.682   6.582   7.800  0.0283 -0.0492  0.0514
  355YOPC   C1B 4391   4.224   6.859   9.232  0.2921  0.0025 -0.1018
  355YOPC   C2B 4392   3.849   6.734   9.155 -0.0438 -0.0268 -0.1331
  355YOPC   D3B 4393   3.889   6.900   8.741  0.0030 -0.0664  0.3555
  355YOPC   C4B 4394   3.947   6.919   8.382  0.1761  0.1173  0.0169
  356YOPC   NC3 4395   9.740   5.240  10.026  0.0161  0.0673 -0.0206
  356YOPC   PO4 4396   9.667   5.648  10.278 -0.0100 -0.0878  0.0371
  356YOPC   GL1 4397   9.840   5.671   9.804  0.1601 -0.0536 -0.0558
  356YOPC   GL2 4398  10.017   5.479   9.589  0.0494  0.1861 -0.0443
  356YOPC   C1A 4399   9.848   6.009   9.525  0.1812  0.3814  0.1079
  356YOPC   D2A 4400   9.544   6.220   9.357  0.2257  0.0615  0.1148
  356YOPC   C3A 4401   9.581   6.484   9.154  0.2023 -0.2404 -0.1851
  356YOPC   C4A 4402   9.689   6.512   8.749  0.1416 -0.1215  0.3073
  356YOPC   C1B 4403   9.961   5.567   9.214 -0.1183  0.0312 -0.0439
  356YOPC   C2B 4404   9.836   6.016   9.013  0.0062  0.3028 -0.2694
  356YOPC   D3B 4405   9.756   5.982   8.639 -0.0758  0.4266 -0.1534
  356YOPC   C4B 4406   9.692   5.748   8.313  0.0062 -0.0102  0.0964
  357YOPC   NC3 4407  13.495  18.406  10.143  0.3338 -0.3180  0.3860
  357YOPC   PO4 4408  13.958  18.358   9.952 -0.2208  0.0186 -0.2085
  357YOPC   GL1 4409  13.975  18.368   9.455  0.2482  0.2022 -0.3217
  357YOPC   GL2 4410  13.920  18.565   9.251  0.0072  0.1313  0.0294
  357YOPC   C1A 4411  14.142  18.119   9.035  0.5571 -0.0776 -0.0038
  357YOPC   D2A 4412  14.370  17.994   8.747 -0.2056  0.0468  0.1449
  357YOPC   C3A 4413  14.463  18.087   8.272 -0.0901  0.4130  0.0948
  357YOPC   C4A 4414  14.738  18.414   8.020  0.0770 -0.0964  0.0870
  357YOPC   C1B 4415  13.698  18.404   8.824 -0.1649  0.1419  0.0540
  357YOPC   C2B 4416  13.663  18.473   8.353 -0.3999 -0.0884  0.0931
  357YOPC   D3B 4417  13.772  18.856   8.101 -0.2506  0.0280 -0.2386
  357YOPC   C4B 4418  14.036  19.207   7.877  0.0553  0.0235  0.1998
  358YOPC   NC3 4419   1.532  10.735  10.773  0.0801  0.2360  0.1672
  358YOPC   PO4 4420   1.953  10.701  10.700 -0.0302 -0.3203 -0.1277
  358YOPC   GL1 4421   1.755  10.519  10.301 -0.0758 -0.0986  0.1781
  358YOPC   GL2 4422   1.436  10.472  10.258  0.1873 -0.1146  0.0112
  358YOPC   C1A 4423   1.614  10.278   9.831 -0.1056 -0.0797  0.0324
  358YOPC   D2A 4424   1.654  10.031   9.473  0.1188  0.2113  0.1898
  358YOPC   C3A 4425   1.430   9.699   9.237  0.0209  0.0218 -0.0260
  358YOPC   C4A 4426   1.232   9.357   9.281 -0.1843 -0.1602 -0.0914
  358YOPC   C1B 4427   1.219   9.984  10.122 -0.0618  0.0386 -0.1294
  358YOPC   C2B 4428   1.474   9.636  10.184 -0.1529  0.0798 -0.2050
  358YOPC   D3B 4429   1.806   9.674   9.890 -0.1276  0.1010  0.4351
  358YOPC   C4B 4430   2.063   9.625   9.420  0.3751  0.0361  0.1543
  359YOPC   NC3 4431   2.507   4.094  10.212  0.1682  0.1711 -0.2121
  359YOPC   PO4 4432   2.789   3.674  10.369 -0.0598 -0.1011 -0.0314
  359YOPC   GL1 4433   2.582   3.745   9.891  0.1137 -0.1090 -0.0735
  359YOPC   GL2 4434   2.846   3.708   9.771 -0.0663  0.2300  0.0067
  359YOPC   C1A 4435   2.516   3.968   9.509 -0.3193  0.1381  0.4325
  359YOPC   D2A 4436   2.456   4.116   9.015  0.0026  0.0722  0.0296
  359YOPC   C3A 4437   2.689   3.849   8.771 -0.0204 -0.2222  0.1247
  359YOPC   C4A 4438   2.894   3.782   8.358  0.3566  0.0439 -0.0846
  359YOPC   C1B 4439   2.781   3.203   9.676  0.0115 -0.0987 -0.5362
  359YOPC   C2B 4440   2.635   3.013   9.284  0.3285 -0.0109 -0.1286
  359YOPC   D3B 4441   2.948   2.940   9.003 -0.2742 -0.1458  0.0180
  359YOPC   C4B 4442   2.900   2.857   8.566 -0.0483  0.3673 -0.0078
  360YOPC   NC3 4443   3.511   1.543  10.236 -0.1334 -0.0483 -0.2760
  360YOPC   PO4 4444   3.635   1.972  10.173  0.2286 -0.0196 -0.0174
  360YOPC   GL1 4445   3.271   1.920   9.949 -0.2830 -0.0054  0.0322
  360YOPC   GL2 4446   3.020   1.713   9.977 -0.2004  0.0563 -0.0089
  360YOPC   C1A 4447   3.264   1.941   9.459  0.0692 -0.2688  0.1403
  360YOPC   D2A 4448   3.136   2.021   9.119  0.2144 -0.0843  0.0828
  360YOPC   C3A 4449   3.249   1.846   8.808 -0.1620  0.0247  0.1219
  360YOPC   C4A 4450   3.533   1.875   8.395  0.0922  0.0566 -0.1644
  360YOPC   C1B 4451   3.127   1.466   9.653  0.1399 -0.1325 -0.0503
  360YOPC   C2B 4452   3.178   1.372   9.225 -0.3295  0.0263 -0.2207
  360YOPC   D3B 4453   3.597   1.560   9.058 -0.1192  0.1844 -0.2778
  360YOPC   C4B 4454   3.903   1.791   8.831  0.0162 -0.1071  0.3265
  361YOPC   NC3 4455  10.727  10.805  10.011  0.2646  0.0321 -0.0620
  361YOPC   PO4 4456  10.834  10.447  10.085 -0.0277  0.0580  0.3047
  361YOPC   GL1 4457  11.088  10.380   9.707  0.3022  0.1872 -0.0707
  361YOPC   GL2 4458  11.106  10.671   9.688  0.1361 -0.2382  0.4889
  361YOPC   C1A 4459  11.227  10.172   9.363  0.4258 -0.1174  0.1611
  361YOPC   D2A 4460  11.105   9.936   9.066  0.0591  0.0393  0.0163
  361YOPC   C3A 4461  11.185  10.100   8.705  0.0891 -0.1331  0.2689
  361YOPC   C4A 4462  11.427  10.294   8.419  0.0784 -0.1370 -0.2437
  361YOPC   C1B 4463  11.151  10.628   9.166  0.0173  0.0662 -0.1943
  361YOPC   C2B 4464  11.074  10.571   8.743  0.2243 -0.0005 -0.0080
  361YOPC   D3B 4465  11.021  10.573   8.323 -0.0102  0.1458  0.0592
  361YOPC   C4B 4466  10.770  10.598   7.954 -0.0697 -0.4848  0.0462
  362YOPC   NC3 4467   8.401   1.529  10.131  0.1324 -0.2713  0.0692
  362YOPC   PO4 4468   8.713   1.545   9.930  0.3103 -0.4158 -0.0318
  362YOPC   GL1 4469   8.620   1.553   9.425 -0.2534  0.0141 -0.2613
  362YOPC   GL2 4470   8.839   1.261   9.318  0.2247 -0.1042  0.1908
  362YOPC   C1A 4471   8.713   1.807   9.033  0.0373 -0.3679 -0.4844
  362YOPC   D2A 4472   8.624   2.009   8.754  0.2861 -0.1416 -0.0736
  362YOPC   C3A 4473   8.238   2.024   8.748 -0.0663 -0.1936  0.3021
  362YOPC   C4A 4474   7.799   2.134   8.522 -0.1622  0.1261 -0.0157
  362YOPC   C1B 4475   8.732   1.333   8.937  0.0429  0.1817  0.1158
  362YOPC   C2B 4476   8.629   1.214   8.493  0.1757  0.0535 -0.0838
  362YOPC   D3B 4477   8.496   0.937   8.202  0.2027  0.1498  0.1183
  362YOPC   C4B 4478   8.181   0.888   8.056  0.1619 -0.0996  0.3294
  363YOPC   NC3 4479  11.880  15.174  10.195  0.0994  0.0685 -0.2688
  363YOPC   PO4 4480  12.117  14.903   9.840  0.0332  0.2326  0.2705
  363YOPC   GL1 4481  12.288  14.766   9.461 -0.1002 -0.3411  0.1232
  363YOPC   GL2 4482  12.360  14.493   9.331 -0.3324  0.2994 -0.0945
  363YOPC   C1A 4483  12.557  14.987   9.181  0.2862 -0.1593  0.7104
  363YOPC   D2A 4484  12.763  15.316   9.011 -0.1318 -0.2073 -0.1389
  363YOPC   C3A 4485  12.923  15.150   8.696 -0.2066 -0.0603 -0.0465
  363YOPC   C4A 4486  13.224  15.152   8.416 -0.1187  0.1028 -0.2648
  363YOPC   C1B 4487  12.364  14.619   8.855 -0.1874  0.2533 -0.3242
  363YOPC   C2B 4488  12.389  14.367   8.461 -0.1637  0.2865  0.0529
  363YOPC   D3B 4489  12.184  14.413   8.147  0.1710 -0.3341 -0.2882
  363YOPC   C4B 4490  11.809  14.575   8.049  0.0782  0.1088 -0.2091
  364YOPC   NC3 4491  15.757  17.915   9.982 -0.1007 -0.2231 -0.4127
  364YOPC   PO4 4492  15.625  17.555   9.943 -0.1001  0.2483 -0.0336
  364YOPC   GL1 4493  15.627  17.355   9.567 -0.3830 -0.0538  0.0894
  364YOPC   GL2 4494  15.252  17.311   9.467 -0.0051 -0.3435 -0.1387
  364YOPC   C1A 4495  16.053  17.503   9.240  0.2827 -0.0273  0.0908
  364YOPC   D2A 4496  16.315  17.683   8.877 -0.1519  0.3264 -0.1024
  364YOPC   C3A 4497  16.325  17.672   8.384 -0.0000 -0.1984  0.1064
  364YOPC   C4A 4498  16.414  17.579   7.967 -0.1564 -0.1830  0.3638
  364YOPC   C1B 4499  15.432  17.464   9.060 -0.0182  0.2247 -0.1276
  364YOPC   C2B 4500  15.381  17.321   8.676 -0.0229  0.0462 -0.0893
  364YOPC   D3B 4501  15.209  17.371   8.303  0.0497 -0.1799  0.0835
  364YOPC   C4B 4502  15.046  17.425   7.825  0.0891 -0.0475  0.1325
  365YOPC   NC3 4503  15.777   7.776  10.683  0.0695 -0.0250 -0.2304
  365YOPC   PO4 4504  16.068   8.038  10.476 -0.0734  0.0406  0.1586
  365YOPC   GL1 4505  16.009   7.843  10.131 -0.2076 -0.0511 -0.1806
  365YOPC   GL2 4506  16.360   7.680  10.150  0.2334 -0.0802 -0.3757
  365YOPC   C1A 4507  15.922   7.705   9.757  0.2758 -0.0698  0.0611
  365YOPC   D2A 4508  15.926   7.695   9.264  0.2276 -0.3660 -0.3295
  365YOPC   C3A 4509  16.061   7.995   9.042  0.4061  0.1693 -0.0457
  365YOPC   C4A 4510  16.278   8.435   8.863  0.1667  0.0189  0.1074
  365YOPC   C1B 4511  16.622   7.810   9.872  0.0548  0.2536  0.0785
  365YOPC   C2B 4512  16.326   8.043   9.566  0.1264 -0.6124  0.4223
  365YOPC   D3B 4513  15.868   8.188   9.519  0.0984  0.0626 -0.1257
  365YOPC   C4B 4514  15.512   8.006   9.426 -0.0433 -0.3038  0.0421
  366YOPC   NC3 4515   2.657  12.031  10.156 -0.0514 -0.1913 -0.1042
  366YOPC   PO4 4516   2.212  11.876  10.169  0.0918  0.0764 -0.2999
  366YOPC   GL1 4517   2.176  12.010   9.765 -0.1245 -0.0569  0.0169
  366YOPC   GL2 4518   2.384  12.038   9.585 -0.0703 -0.1277 -0.1971
  366YOPC   C1A 4519   1.951  12.007   9.354  0.5079 -0.0715 -0.1322
  366YOPC   D2A 4520   2.126  11.788   9.090 -0.1996  0.0832 -0.1728
  366YOPC   C3A 4521   2.117  11.955   8.645  0.1606  0.0867  0.1860
  366YOPC   C4A 4522   1.993  11.748   8.280  0.0228 -0.1245  0.1136
  366YOPC   C1B 4523   2.608  11.910   9.283  0.0737 -0.2407  0.1034
  366YOPC   C2B 4524   2.548  11.762   8.825 -0.2147  0.2800 -0.5373
  366YOPC   D3B 4525   2.846  11.632   8.544 -0.1525  0.1666 -0.1089
  366YOPC   C4B 4526   2.859  11.495   8.106 -0.0825 -0.0766  0.1777
  367YOPC   NC3 4527   7.543   4.597  10.694  0.0806  0.0016 -0.0098
  367YOPC   PO4 4528   7.527   4.647  10.207 -0.0599 -0.2512  0.2051
  367YOPC   GL1 4529   7.662   4.783   9.837  0.0711 -0.0547 -0.0519
  367YOPC   GL2 4530   7.447   4.636   9.528  0.2315  0.0067  0.0109
  367YOPC   C1A 4531   7.838   4.943   9.372 -0.0202 -0.1646  0.0673
  367YOPC   D2A 4532   7.857   5.190   9.047  0.0253  0.1115  0.0830
  367YOPC   C3A 4533   7.805   5.219   8.599 -0.2084  0.2755 -0.0458
  367YOPC   C4A 4534   7.566   5.065   8.219 -0.0656  0.2568  0.0987
  367YOPC   C1B 4535   7.354   4.950   9.232  0.2205  0.1829  0.1150
  367YOPC   C2B 4536   7.374   5.444   8.967 -0.0112  0.3777  0.2939
  367YOPC   D3B 4537   7.408   5.483   8.570 -0.1342 -0.5990  0.1216
  367YOPC   C4B 4538   7.293   5.807   8.459  0.0078  0.0903 -0.1349
  368YOPC   NC3 4539   5.378  13.076  10.091 -0.1463 -0.2576 -0.3668
  368YOPC   PO4 4540   5.466  13.253   9.745  0.2195  0.1107 -0.3136
  368YOPC   GL1 4541   5.582  13.014   9.415  0.0640 -0.2125 -0.0233
  368YOPC   GL2 4542   5.313  12.906   9.254 -0.1712 -0.3870  0.1214
  368YOPC   C1A 4543   5.685  13.179   8.984 -0.2434  0.1989 -0.0411
  368YOPC   D2A 4544   5.744  13.594   8.948 -0.2412  0.1839 -0.0116
  368YOPC   C3A 4545   5.604  13.799   8.556 -0.1814 -0.3237 -0.0372
  368YOPC   C4A 4546   5.352  14.016   8.212 -0.1074  0.0208  0.0683
  368YOPC   C1B 4547   5.047  12.548   9.055  0.2328 -0.0403  0.0292
  368YOPC   C2B 4548   4.870  12.462   8.734  0.1686  0.3485  0.1916
  368YOPC   D3B 4549   4.848  12.687   8.275  0.0940 -0.2855  0.1394
  368YOPC   C4B 4550   4.818  12.535   7.819  0.0176 -0.0546  0.0572
  369YOPC   NC3 4551   5.816   1.372  10.386  0.0224 -0.0755  0.2762
  369YOPC   PO4 4552   5.777   1.081  10.664 -0.1222 -0.1567  0.1197
  369YOPC   GL1 4553   5.747   0.816  10.210  0.0428  0.1647  0.0645
  369YOPC   GL2 4554   5.564   1.063   9.949  0.0255 -0.3123 -0.1196
  369YOPC   C1A 4555   5.839   0.582   9.790 -0.2212 -0.0186  0.3182
  369YOPC   D2A 4556   5.994   0.657   9.387 -0.0325  0.1377  0.0954
  369YOPC   C3A 4557   6.145   0.321   9.037 -0.0013 -0.0865  0.1252
  369YOPC   C4A 4558   6.235   0.163   8.668  0.0124  0.1753  0.2561
  369YOPC   C1B 4559   5.428   0.828   9.636  0.0098 -0.3991 -0.0561
  369YOPC   C2B 4560   5.494   0.491   9.245 -0.0091 -0.1826 -0.2800
  369YOPC   D3B 4561   5.782   0.551   8.858  0.0258 -0.0645  0.4543
  369YOPC   C4B 4562   5.741   0.875   8.502 -0.1371  0.1265 -0.1587
  370YOPC   NC3 4563  17.898  14.420   9.913  0.0137  0.2160 -0.1051
  370YOPC   PO4 4564  18.314  14.438  10.088  0.0854 -0.1045  0.0884
  370YOPC   GL1 4565  18.294  14.653   9.682  0.0876 -0.2475 -0.1428
  370YOPC   GL2 4566  18.511  14.673   9.708 -0.4008  0.1950  0.0244
  370YOPC   C1A 4567  18.112  14.806   9.310 -0.3389 -0.1114  0.1487
  370YOPC   D2A 4568  18.406  14.878   8.978 -0.0298  0.1534 -0.2239
  370YOPC   C3A 4569  18.167  15.039   8.496 -0.2897 -0.0444  0.3124
  370YOPC   C4A 4570  18.410  15.245   8.183 -0.1323 -0.0174 -0.2670
  370YOPC   C1B 4571  18.699  14.921   9.432  0.0884  0.0127  0.0796
  370YOPC   C2B 4572  18.823  15.143   9.057 -0.1841 -0.2171  0.0939
  370YOPC   D3B 4573  18.692  15.006   8.576  0.0444  0.0600 -0.2466
  370YOPC   C4B 4574  18.811  14.960   8.179  0.1214 -0.0037  0.0224
  371YOPC   NC3 4575  13.449   7.826  10.819 -0.0811  0.2507  0.1598
  371YOPC   PO4 4576  13.107   7.636  11.096 -0.1042  0.0926 -0.0982
  371YOPC   GL1 4577  13.132   7.472  10.631 -0.0070  0.3146 -0.2233
  371YOPC   GL2 4578  12.792   7.405  10.593  0.0698 -0.3482 -0.2103
  371YOPC   C1A 4579  13.330   7.263  10.195 -0.0547  0.0797  0.0033
  371YOPC   D2A 4580  13.396   7.098   9.827  0.0482 -0.2272 -0.2094
  371YOPC   C3A 4581  13.311   7.049   9.449 -0.1446  0.0825  0.2007
  371YOPC   C4A 4582  13.511   7.086   9.061 -0.0865 -0.0861  0.1707
  371YOPC   C1B 4583  12.698   7.158  10.199  0.0716  0.0514  0.3106
  371YOPC   C2B 4584  12.792   7.053   9.808 -0.0368 -0.0830 -0.2713
  371YOPC   D3B 4585  12.660   7.050   9.414  0.0614 -0.2023  0.1378
  371YOPC   C4B 4586  12.600   6.817   9.111  0.1072 -0.0780  0.1643
  372YOPC   NC3 4587   7.388   9.630  10.538  0.0170  0.1810  0.2325
  372YOPC   PO4 4588   7.167   9.816  10.307  0.2438  0.0358 -0.1640
  372YOPC   GL1 4589   7.006   9.807   9.867 -0.0081 -0.1377  0.0425
  372YOPC   GL2 4590   6.747   9.952   9.729  0.0279 -0.0400  0.0594
  372YOPC   C1A 4591   7.226   9.790   9.554  0.1093 -0.3461  0.1442
  372YOPC   D2A 4592   7.480   9.994   9.199  0.1689  0.0246 -0.1860
  372YOPC   C3A 4593   7.617   9.673   8.897  0.1530  0.2785 -0.0004
  372YOPC   C4A 4594   7.601   9.379   8.510  0.2431 -0.0274  0.0926
  372YOPC   C1B 4595   6.829  10.076   9.243  0.1015 -0.0150 -0.3243
  372YOPC   C2B 4596   7.076  10.173   8.894  0.2973 -0.0078 -0.1034
  372YOPC   D3B 4597   7.199  10.497   8.631 -0.2095 -0.2462 -0.1986
  372YOPC   C4B 4598   7.200  10.351   8.192 -0.0395  0.0309 -0.1692
  373YOPC   NC3 4599   5.508  17.746  10.725 -0.1542  0.1265 -0.2933
  373YOPC   PO4 4600   5.684  17.896  10.389 -0.1414  0.2067 -0.1129
  373YOPC   GL1 4601   5.703  17.854   9.914  0.2629  0.1763  0.0226
  373YOPC   GL2 4602   5.510  17.665   9.844  0.2976 -0.1945  0.0307
  373YOPC   C1A 4603   6.005  17.735   9.550 -0.1875  0.0153 -0.0047
  373YOPC   D2A 4604   6.033  17.754   9.132 -0.0970  0.0029  0.1502
  373YOPC   C3A 4605   6.456  17.987   9.066  0.0463 -0.1033 -0.3180
  373YOPC   C4A 4606   6.695  18.309   8.888  0.2099 -0.1565  0.0271
  373YOPC   C1B 4607   5.591  17.820   9.407 -0.1356  0.1854 -0.1644
  373YOPC   C2B 4608   5.402  18.000   9.099 -0.0378  0.1663  0.0373
  373YOPC   D3B 4609   5.531  17.916   8.692  0.0425 -0.0320 -0.0778
  373YOPC   C4B 4610   5.825  18.047   8.359 -0.2693 -0.0870  0.0577
  374YOPC   NC3 4611  11.173   7.627  10.669 -0.1443  0.0369 -0.0799
  374YOPC   PO4 4612  11.088   7.665  10.275 -0.1355  0.1582  0.2759
  374YOPC   GL1 4613  10.861   7.828   9.928  0.0724 -0.1857 -0.1327
  374YOPC   GL2 4614  11.051   7.909   9.713 -0.1919 -0.0564  0.3380
  374YOPC   C1A 4615  10.593   7.912   9.502 -0.1069  0.0864 -0.0193
  374YOPC   D2A 4616  10.438   7.869   9.060  0.0939  0.0126 -0.2955
  374YOPC   C3A 4617  10.501   7.774   8.623  0.2699  0.2258  0.3408
  374YOPC   C4A 4618  10.273   7.457   8.498  0.1021  0.0561 -0.0950
  374YOPC   C1B 4619  11.143   7.989   9.345  0.0235 -0.1442 -0.1364
  374YOPC   C2B 4620  10.924   7.868   9.011 -0.1515  0.0540 -0.0784
  374YOPC   D3B 4621  10.940   7.953   8.564  0.2694  0.5339  0.1665
  374YOPC   C4B 4622  10.990   7.685   8.096  0.1175 -0.0816  0.0814
  375YOPC   NC3 4623   9.498  12.675   9.766 -0.2877 -0.1258 -0.1384
  375YOPC   PO4 4624   9.108  12.940   9.870  0.1467  0.1654  0.1389
  375YOPC   GL1 4625   9.009  12.851   9.470  0.1089  0.0521 -0.4169
  375YOPC   GL2 4626   8.725  12.663   9.459  0.4338  0.2301 -0.2776
  375YOPC   C1A 4627   9.101  12.801   8.975 -0.1159 -0.0607 -0.1660
  375YOPC   D2A 4628   8.968  12.790   8.552  0.0609 -0.0634 -0.1995
  375YOPC   C3A 4629   9.276  12.553   8.439 -0.2743  0.1407 -0.0802
  375YOPC   C4A 4630   9.650  12.543   8.260  0.1660  0.2563  0.2953
  375YOPC   C1B 4631   8.529  12.881   9.102  0.1965 -0.1821 -0.2457
  375YOPC   C2B 4632   8.450  12.900   8.720  0.2746 -0.0094  0.0922
  375YOPC   D3B 4633   8.156  13.033   8.502 -0.3592  0.1014 -0.1512
  375YOPC   C4B 4634   8.006  12.872   8.237  0.0750 -0.3784  0.2466
  376YOPC   NC3 4635  13.405   0.642   9.901 -0.2197 -0.1529  0.1950
  376YOPC   PO4 4636  13.809   0.709   9.833 -0.0307  0.1629  0.5432
  376YOPC   GL1 4637  13.724   0.611   9.375  0.0269  0.0391 -0.3463
  376YOPC   GL2 4638  14.053   0.603   9.319 -0.2162 -0.1122  0.0431
  376YOPC   C1A 4639  13.674   0.463   8.939  0.1885 -0.0605 -0.3007
  376YOPC   D2A 4640  13.872   0.591   8.520  0.0595  0.0203 -0.1606
  376YOPC   C3A 4641  14.237   0.377   8.323  0.0010  0.3529  0.2381
  376YOPC   C4A 4642  14.581   0.286   8.318 -0.0542 -0.0894 -0.2417
  376YOPC   C1B 4643  14.213   0.484   8.950  0.1500  0.0083 -0.1446
  376YOPC   C2B 4644  14.529   0.573   8.737  0.0090  0.1893  0.2397
  376YOPC   D3B 4645  14.434   0.785   8.373 -0.3242 -0.0854  0.0223
  376YOPC   C4B 4646  14.305   1.088   8.054 -0.4128 -0.1769  0.0617
  377YOPC   NC3 4647  17.121  14.794   9.849  0.2212 -0.3317 -0.0669
  377YOPC   PO4 4648  17.002  14.656   9.501  0.4024 -0.1695  0.1023
  377YOPC   GL1 4649  16.988  14.227   9.433 -0.1112  0.2641  0.0643
  377YOPC   GL2 4650  17.275  14.242   9.419 -0.2013 -0.1145 -0.0925
  377YOPC   C1A 4651  16.771  13.893   9.164 -0.0712  0.0524 -0.1765
  377YOPC   D2A 4652  16.909  13.557   9.028 -0.0766 -0.0387 -0.0493
  377YOPC   C3A 4653  16.887  13.424   8.604 -0.0994  0.0127  0.0936
  377YOPC   C4A 4654  16.675  13.184   8.289  0.0045  0.0978  0.4226
  377YOPC   C1B 4655  17.117  14.356   8.939 -0.2412  0.1860  0.0341
  377YOPC   C2B 4656  17.255  14.449   8.533 -0.4119  0.1180  0.2286
  377YOPC   D3B 4657  17.480  14.230   8.175 -0.1087  0.1073 -0.1155
  377YOPC   C4B 4658  17.800  14.303   7.823  0.0819  0.0974 -0.2664
  378YOPC   NC3 4659  13.829   2.724  10.199 -0.0168  0.1061 -0.2555
  378YOPC   PO4 4660  14.193   3.031  10.089  0.3179 -0.0780 -0.1427
  378YOPC   GL1 4661  14.570   2.834   9.872  0.1462  0.1861  0.1700
  378YOPC   GL2 4662  14.858   3.009   9.794 -0.1367 -0.5059  0.0823
  378YOPC   C1A 4663  14.543   2.567   9.498 -0.0692  0.3649 -0.0632
  378YOPC   D2A 4664  14.805   2.258   9.346  0.0202 -0.1502  0.2521
  378YOPC   C3A 4665  14.925   2.288   8.964 -0.0735  0.1811  0.3682
  378YOPC   C4A 4666  15.006   2.069   8.614 -0.1515 -0.0126  0.0235
  378YOPC   C1B 4667  14.987   2.684   9.539 -0.0291  0.1342 -0.1899
  378YOPC   C2B 4668  15.186   2.734   9.162  0.1619 -0.1196 -0.1151
  378YOPC   D3B 4669  15.137   2.657   8.690 -0.2695  0.2735 -0.0003
  378YOPC   C4B 4670  15.017   2.467   8.230  0.1294  0.0748 -0.1715
  379YOPC   NC3 4671  17.517   7.269  10.605  0.1219 -0.0100 -0.2586
  379YOPC   PO4 4672  17.347   7.643  10.572  0.1936  0.0025  0.0188
  379YOPC   GL1 4673  17.473   7.717  10.272  0.0622  0.0281  0.0014
  379YOPC   GL2 4674  17.698   7.479  10.200 -0.1393 -0.1089  0.1904
  379YOPC   C1A 4675  17.571   7.895   9.977  0.3679  0.1336  0.0525
  379YOPC   D2A 4676  17.549   7.941   9.537  0.0445 -0.2840  0.2187
  379YOPC   C3A 4677  17.639   8.276   9.280 -0.0805 -0.2473  0.0937
  379YOPC   C4A 4678  17.882   8.269   8.907 -0.5682  0.0086 -0.1352
  379YOPC   C1B 4679  17.733   7.523   9.761 -0.1813  0.1339 -0.1335
  379YOPC   C2B 4680  17.694   7.544   9.322 -0.2443  0.2971 -0.0783
  379YOPC   D3B 4681  17.573   7.834   8.972 -0.0114  0.4397  0.1662
  379YOPC   C4B 4682  17.595   8.075   8.564 -0.3194 -0.3779 -0.3548
  380YOPC   NC3 4683   1.373   2.049  11.163 -0.0694 -0.2977  0.1165
  380YOPC   PO4 4684   1.277   2.034  10.695  0.0657  0.1781 -0.3127
  380YOPC   GL1 4685   1.195   1.907  10.309 -0.0716 -0.0290 -0.0976
  380YOPC   GL2 4686   0.882   1.995  10.136  0.1660 -0.0012 -0.5039
  380YOPC   C1A 4687   1.275   1.720   9.976 -0.3160 -0.1700  0.0577
  380YOPC   D2A 4688   1.602   1.556   9.627 -0.4454 -0.2267 -0.0250
  380YOPC   C3A 4689   1.844   1.724   9.249 -0.0930  0.0318  0.2719
  380YOPC   C4A 4690   1.855   1.986   8.936  0.1312 -0.1567 -0.1041
  380YOPC   C1B 4691   0.633   2.000   9.720  0.1663 -0.0004  0.1657
  380YOPC   C2B 4692   0.941   1.863   9.379  0.2375 -0.0123 -0.0819
  380YOPC   D3B 4693   0.994   2.156   9.030  0.2628 -0.1484 -0.0530
  380YOPC   C4B 4694   1.031   2.155   8.578 -0.2109 -0.4455  0.3455
  381YOPC   NC3 4695   5.252  11.021  10.005  0.0913  0.1570  0.2188
  381YOPC   PO4 4696   5.258  10.727   9.742  0.2890 -0.1733 -0.0736
  381YOPC   GL1 4697   5.075  11.035   9.436  0.1532  0.0659 -0.1909
  381YOPC   GL2 4698   4.912  10.826   9.237  0.0298 -0.1173  0.2156
  381YOPC   C1A 4699   5.138  11.192   9.035  0.0039  0.0204 -0.1196
  381YOPC   D2A 4700   4.911  11.162   8.633 -0.1802 -0.2705  0.2250
  381YOPC   C3A 4701   4.538  11.169   8.498 -0.2430  0.1090 -0.1241
  381YOPC   C4A 4702   4.247  11.310   8.348 -0.1255 -0.0303  0.2073
  381YOPC   C1B 4703   4.884  10.643   8.863  0.0554 -0.2353 -0.0187
  381YOPC   C2B 4704   4.557  10.668   8.581  0.0489 -0.0756  0.2019
  381YOPC   D3B 4705   4.124  10.859   8.641 -0.0130  0.0907 -0.0188
  381YOPC   C4B 4706   3.840  10.961   8.272  0.0512 -0.1877 -0.4382
  382YOPC   NC3 4707  11.884   5.963  10.611 -0.2594 -0.0029  0.1130
  382YOPC   PO4 4708  12.161   5.545  10.664 -0.0569  0.1025  0.1767
  382YOPC   GL1 4709  12.361   5.772  10.383  0.5858  0.2258 -0.1839
  382YOPC   GL2 4710  12.502   5.676  10.092 -0.0041 -0.2021  0.0076
  382YOPC   C1A 4711  12.584   6.178  10.248  0.0058 -0.0119  0.2931
  382YOPC   D2A 4712  12.482   6.602  10.001  0.1351 -0.2724 -0.3576
  382YOPC   C3A 4713  12.640   6.574   9.567  0.0005 -0.1398  0.0813
  382YOPC   C4A 4714  13.046   6.638   9.293 -0.0402  0.1575  0.0584
  382YOPC   C1B 4715  12.645   5.741   9.657  0.1127  0.1631  0.1099
  382YOPC   C2B 4716  12.681   5.817   9.171  0.2496  0.1619 -0.2708
  382YOPC   D3B 4717  12.805   5.926   8.718  0.1042  0.0912 -0.1426
  382YOPC   C4B 4718  12.760   6.230   8.448 -0.1055  0.0914  0.0840
  383YOPC   NC3 4719  14.407  12.904  10.711 -0.1812 -0.1232 -0.1783
  383YOPC   PO4 4720  14.338  12.830  10.211  0.0289 -0.0515 -0.1219
  383YOPC   GL1 4721  14.171  12.679   9.830 -0.3280  0.0176 -0.1187
  383YOPC   GL2 4722  13.936  12.635   9.733 -0.0862 -0.1266 -0.2860
  383YOPC   C1A 4723  14.393  12.596   9.446 -0.1465  0.2797  0.3306
  383YOPC   D2A 4724  14.492  12.454   9.002  0.2086  0.0983  0.3467
  383YOPC   C3A 4725  14.452  12.469   8.564  0.3125  0.0996 -0.0458
  383YOPC   C4A 4726  14.146  12.165   8.409  0.1476  0.0960 -0.2606
  383YOPC   C1B 4727  13.975  12.356   9.304 -0.1386  0.1221  0.0269
  383YOPC   C2B 4728  14.183  12.077   8.988 -0.0746 -0.0492  0.0198
  383YOPC   D3B 4729  14.289  11.627   9.175 -0.2580  0.0960 -0.1549
  383YOPC   C4B 4730  14.396  11.214   9.261 -0.1617 -0.0395 -0.2379
  384YOPC   NC3 4731   6.578   2.668   9.732 -0.1090  0.0838 -0.2757
  384YOPC   PO4 4732   6.524   2.970  10.019  0.3222 -0.0218  0.1019
  384YOPC   GL1 4733   6.705   3.193   9.691 -0.1052 -0.0552  0.0927
  384YOPC   GL2 4734   6.661   2.989   9.414 -0.0358 -0.1527  0.2401
  384YOPC   C1A 4735   6.812   3.453   9.329  0.0529 -0.1858  0.1354
  384YOPC   D2A 4736   6.782   3.623   8.875 -0.1254  0.3145  0.1803
  384YOPC   C3A 4737   6.721   3.330   8.545 -0.0536  0.0545  0.2659
  384YOPC   C4A 4738   6.582   3.037   8.140 -0.0759  0.0506 -0.1702
  384YOPC   C1B 4739   6.611   3.104   8.979  0.0226 -0.3297  0.0263
  384YOPC   C2B 4740   6.244   3.347   8.824 -0.0184 -0.0650  0.3015
  384YOPC   D3B 4741   6.183   3.105   8.516  0.2255  0.0407  0.3840
  384YOPC   C4B 4742   6.028   2.848   8.239  0.0895 -0.4434  0.1077
  385YOPC   NC3 4743   4.564   8.747  10.204 -0.1704  0.0359 -0.0496
  385YOPC   PO4 4744   4.110   8.840  10.172 -0.4388  0.1942 -0.1242
  385YOPC   GL1 4745   4.134   8.981   9.838  0.0101  0.1259 -0.1611
  385YOPC   GL2 4746   4.171   8.643   9.678  0.1147 -0.1534  0.0969
  385YOPC   C1A 4747   4.228   9.116   9.465  0.1666  0.2043  0.0201
  385YOPC   D2A 4748   4.446   9.320   9.180 -0.2615  0.3997  0.1107
  385YOPC   C3A 4749   4.240   9.334   8.746 -0.1755  0.0720 -0.1568
  385YOPC   C4A 4750   4.339   9.446   8.387 -0.2607 -0.0515  0.1445
  385YOPC   C1B 4751   3.797   8.857   9.370  0.0727 -0.2022  0.0766
  385YOPC   C2B 4752   3.426   9.091   9.314  0.0963 -0.0884 -0.2063
  385YOPC   D3B 4753   3.202   9.163   8.980  0.0427 -0.2448  0.3873
  385YOPC   C4B 4754   3.210   9.196   8.549 -0.0790  0.0710  0.0071
  386YOPC   NC3 4755   4.106   0.723  10.469 -0.3477  0.3037  0.1206
  386YOPC   PO4 4756   4.330   1.031  10.372  0.0293 -0.0830  0.2402
  386YOPC   GL1 4757   4.362   1.009   9.944  0.0270 -0.2180  0.0194
  386YOPC   GL2 4758   4.054   0.856   9.935  0.0433 -0.1615 -0.0835
  386YOPC   C1A 4759   4.406   0.831   9.626  0.0949  0.0071 -0.0082
  386YOPC   D2A 4760   4.514   0.530   9.421 -0.0759 -0.1712 -0.1913
  386YOPC   C3A 4761   4.558   0.537   9.034  0.5740  0.0449 -0.3501
  386YOPC   C4A 4762   4.573   0.384   8.691 -0.1676 -0.1054 -0.1317
  386YOPC   C1B 4763   3.962   0.987   9.452  0.3125  0.5260 -0.3001
  386YOPC   C2B 4764   3.650   1.084   9.145  0.2190 -0.2803  0.0601
  386YOPC   D3B 4765   3.643   0.908   8.784  0.0905 -0.1589  0.2415
  386YOPC   C4B 4766   3.662   0.637   8.388 -0.2761  0.2280  0.0269
  387YOPC   NC3 4767   0.157   8.327  10.684  0.0582 -0.0573 -0.3789
  387YOPC   PO4 4768  -0.223   8.069  10.757  0.1006 -0.0717 -0.0752
  387YOPC   GL1 4769  -0.034   7.742  10.450 -0.2753  0.1224  0.4982
  387YOPC   GL2 4770  -0.261   7.593  10.283  0.0959  0.0495  0.0886
  387YOPC   C1A 4771  -0.131   8.005  10.070  0.0735 -0.0796  0.0599
  387YOPC   D2A 4772  -0.405   8.067   9.760 -0.0782  0.1909  0.1960
  387YOPC   C3A 4773  -0.799   8.348   9.819 -0.2161  0.0175  0.0523
  387YOPC   C4A 4774  -1.198   8.450   9.618  0.0809 -0.0514  0.1434
  387YOPC   C1B 4775  -0.211   7.522   9.894 -0.0670 -0.0245 -0.3940
  387YOPC   C2B 4776  -0.139   7.730   9.524 -0.3500  0.0600  0.3199
  387YOPC   D3B 4777  -0.404   7.881   9.168 -0.0038 -0.0675 -0.4107
  387YOPC   C4B 4778  -0.115   7.973   8.791 -0.0670  0.2432  0.0102
  388YOPC   NC3 4779  12.409   2.051   9.513 -0.2795 -0.0774  0.0962
  388YOPC   PO4 4780  12.543   2.445   9.705 -0.5400 -0.1922 -0.0015
  388YOPC   GL1 4781  12.688   2.584   9.323 -0.4469  0.2490  0.1456
  388YOPC   GL2 4782  12.484   2.323   9.131  0.0115  0.1167  0.0391
  388YOPC   C1A 4783  12.967   2.646   8.932 -0.1539  0.1089  0.0372
  388YOPC   D2A 4784  13.349   2.414   8.819 -0.1568 -0.0877 -0.0578
  388YOPC   C3A 4785  13.680   2.689   8.846 -0.0521  0.1474  0.4731
  388YOPC   C4A 4786  14.134   2.627   8.661 -0.3098 -0.0861 -0.0020
  388YOPC   C1B 4787  12.183   2.218   8.776  0.0386  0.0861 -0.1458
  388YOPC   C2B 4788  11.740   2.190   8.808 -0.0851 -0.1939  0.2886
  388YOPC   D3B 4789  11.552   2.109   8.562 -0.1804  0.0315 -0.1959
  388YOPC   C4B 4790  11.197   2.308   8.317  0.2733 -0.2085  0.1703
  389YOPC   NC3 4791   7.117   7.487  10.407  0.0423  0.1068 -0.2566
  389YOPC   PO4 4792   6.955   7.931  10.370 -0.1574 -0.0655  0.1514
  389YOPC   GL1 4793   6.826   8.049   9.915  0.2111  0.1956  0.1492
  389YOPC   GL2 4794   6.638   8.374   9.817 -0.1458  0.1164 -0.0391
  389YOPC   C1A 4795   6.950   8.034   9.517  0.3002  0.0462  0.0714
  389YOPC   D2A 4796   6.826   8.098   9.101  0.2857 -0.3074 -0.1439
  389YOPC   C3A 4797   7.083   7.948   8.802  0.1965  0.1049  0.2560
  389YOPC   C4A 4798   6.823   7.769   8.527  0.0628 -0.1778  0.1233
  389YOPC   C1B 4799   6.827   8.510   9.403  0.2855  0.1394  0.2061
  389YOPC   C2B 4800   6.771   8.657   9.058  0.3568 -0.0722 -0.1193
  389YOPC   D3B 4801   6.880   8.964   8.723 -0.3459  0.0001  0.2989
  389YOPC   C4B 4802   7.154   8.911   8.415 -0.3229  0.2666  0.0094
  390YOPC   NC3 4803  11.445   2.895  10.193 -0.0864  0.1322  0.0662
  390YOPC   PO4 4804  11.585   2.786   9.830 -0.0356  0.0532 -0.0476
  390YOPC   GL1 4805  11.689   2.882   9.334  0.1537  0.1960 -0.0205
  390YOPC   GL2 4806  11.896   3.131   9.264  0.1185 -0.1017  0.0539
  390YOPC   C1A 4807  11.886   2.615   8.987  0.2122 -0.1344  0.1839
  390YOPC   D2A 4808  11.949   2.611   8.556  0.1205  0.1949  0.2303
  390YOPC   C3A 4809  11.939   2.196   8.272 -0.1874 -0.2382 -0.4271
  390YOPC   C4A 4810  12.088   1.760   8.473 -0.2596  0.4159 -0.0677
  390YOPC   C1B 4811  11.964   3.114   8.768  0.0154  0.2263 -0.4798
  390YOPC   C2B 4812  12.074   3.125   8.391 -0.1167  0.1408  0.2240
  390YOPC   D3B 4813  11.809   3.070   8.045  0.1693  0.0446  0.0187
  390YOPC   C4B 4814  11.577   3.124   7.745 -0.1694  0.0691 -0.0216
  391YOPC   NC3 4815  13.793  15.320  10.034 -0.1140 -0.0531 -0.3326
  391YOPC   PO4 4816  13.872  15.775   9.914  0.0564  0.0456 -0.0646
  391YOPC   GL1 4817  13.636  16.162   9.682  0.0321  0.2687  0.1009
  391YOPC   GL2 4818  13.846  16.326   9.442 -0.1238 -0.0328 -0.2105
  391YOPC   C1A 4819  13.449  16.168   9.140 -0.5709  0.0588 -0.1080
  391YOPC   D2A 4820  13.367  16.108   8.793 -0.0926  0.0296  0.0257
  391YOPC   C3A 4821  13.602  15.830   8.688 -0.0429  0.1887  0.1412
  391YOPC   C4A 4822  13.616  15.567   8.300 -0.0761  0.0863  0.1541
  391YOPC   C1B 4823  13.657  16.621   9.017 -0.1301 -0.0450 -0.0436
  391YOPC   C2B 4824  13.567  16.696   8.646  0.1411 -0.1433  0.0462
  391YOPC   D3B 4825  13.360  16.375   8.306  0.0256 -0.2169 -0.0781
  391YOPC   C4B 4826  13.228  16.241   7.863  0.0511 -0.0803  0.1878
  392YOPC   NC3 4827   0.203   3.158  10.605 -0.0027  0.3552 -0.4033
  392YOPC   PO4 4828   0.427   3.559  10.405  0.1730  0.0502  0.0538
  392YOPC   GL1 4829   0.097   3.462  10.085 -0.1249 -0.1322 -0.1567
  392YOPC   GL2 4830  -0.024   3.598   9.974 -0.1274  0.2177 -0.2747
  392YOPC   C1A 4831   0.142   3.274   9.695 -0.0294 -0.0342 -0.0813
  392YOPC   D2A 4832   0.259   3.384   9.254 -0.2231 -0.1342 -0.2805
  392YOPC   C3A 4833  -0.029   3.565   8.979 -0.0445  0.1781 -0.3071
  392YOPC   C4A 4834  -0.331   3.974   8.978 -0.1178  0.0855  0.0357
  392YOPC   C1B 4835  -0.124   3.696   9.587  0.0410 -0.0259  0.1007
  392YOPC   C2B 4836  -0.478   3.496   9.313  0.1130 -0.2181  0.4043
  392YOPC   D3B 4837  -0.459   3.294   8.870  0.0626  0.1088  0.2680
  392YOPC   C4B 4838  -0.337   3.016   8.661 -0.2915  0.2432  0.2113
  393YOPC   NC3 4839  14.816  14.336   9.876 -0.3068  0.0138 -0.0443
  393YOPC   PO4 4840  14.595  14.052   9.883  0.1184  0.2345 -0.1351
  393YOPC   GL1 4841  14.890  13.879   9.441  0.1369 -0.1588  0.0700
  393YOPC   GL2 4842  15.219  13.907   9.524  0.1520  0.0360 -0.0903
  393YOPC   C1A 4843  14.819  14.149   9.093  0.0348  0.0484  0.0355
  393YOPC   D2A 4844  14.806  14.325   8.661 -0.0886  0.0993 -0.1793
  393YOPC   C3A 4845  14.946  14.093   8.334  0.1889 -0.0926  0.0938
  393YOPC   C4A 4846  15.321  14.229   8.059  0.2842  0.0166  0.2423
  393YOPC   C1B 4847  15.305  13.951   9.129 -0.2442 -0.3307  0.2235
  393YOPC   C2B 4848  15.051  13.886   8.752 -0.4582 -0.4530  0.2836
  393YOPC   D3B 4849  14.899  13.560   8.631  0.0289 -0.0605 -0.1016
  393YOPC   C4B 4850  14.694  13.472   8.226 -0.0027  0.1426 -0.3556
  394YOPC   NC3 4851   4.718   4.075   9.968  0.1081 -0.1481  0.1512
  394YOPC   PO4 4852   4.766   4.495   9.953 -0.1364 -0.3066 -0.0203
  394YOPC   GL1 4853   4.479   4.362   9.641  0.0534 -0.4085 -0.0210
  394YOPC   GL2 4854   4.292   4.688   9.722  0.2159  0.1282 -0.0224
  394YOPC   C1A 4855   4.293   4.105   9.268 -0.3051 -0.0187 -0.1584
  394YOPC   D2A 4856   4.120   4.054   8.878  0.0083  0.1295  0.1741
  394YOPC   C3A 4857   4.426   4.075   8.577  0.2070 -0.0386 -0.1208
  394YOPC   C4A 4858   4.799   3.950   8.407  0.1709 -0.1847  0.2063
  394YOPC   C1B 4859   4.102   4.716   9.255 -0.0854  0.2599 -0.0998
  394YOPC   C2B 4860   4.110   4.870   8.808  0.4571  0.0117  0.0191
  394YOPC   D3B 4861   4.175   5.358   8.806  0.3563  0.0547 -0.2001
  394YOPC   C4B 4862   4.188   5.622   9.235  0.4012  0.0228 -0.1333
  395YOPC   NC3 4863  11.720   8.386  10.603  0.4324 -0.1054  0.2162
  395YOPC   PO4 4864  12.010   8.647  10.426  0.0500  0.1244 -0.0508
  395YOPC   GL1 4865  11.806   8.817  10.171 -0.1388  0.2476  0.0999
  395YOPC   GL2 4866  11.702   9.073  10.161  0.2134 -0.2461  0.1016
  395YOPC   C1A 4867  11.602   8.715   9.798  0.2498 -0.1539  0.1707
  395YOPC   D2A 4868  11.396   8.965   9.420  0.1561 -0.1873  0.0684
  395YOPC   C3A 4869  11.068   8.699   9.176 -0.0927  0.0993  0.0965
  395YOPC   C4A 4870  11.065   8.542   8.797 -0.2288  0.1008 -0.0864
  395YOPC   C1B 4871  11.912   9.079   9.710 -0.0313 -0.2120 -0.0056
  395YOPC   C2B 4872  11.881   8.803   9.345  0.0490 -0.1794  0.2566
  395YOPC   D3B 4873  11.975   8.839   8.872 -0.2233 -0.2846  0.1718
  395YOPC   C4B 4874  11.998   8.837   8.370  0.0867  0.2814 -0.1534
  396YOPC   NC3 4875  15.925   4.187  10.184  0.1020  0.0345 -0.0652
  396YOPC   PO4 4876  16.320   4.252  10.465  0.3114 -0.0347  0.1419
  396YOPC   GL1 4877  16.417   4.235  10.065  0.0096  0.1036  0.2230
  396YOPC   GL2 4878  16.244   4.512   9.997  0.1414 -0.1952 -0.1392
  396YOPC   C1A 4879  16.443   4.222   9.606  0.0397  0.0277  0.0214
  396YOPC   D2A 4880  16.631   4.248   9.098  0.2375  0.0016  0.0521
  396YOPC   C3A 4881  17.065   4.171   8.805  0.1556 -0.2060 -0.2731
  396YOPC   C4A 4882  17.428   4.162   8.885  0.0217  0.2134 -0.0282
  396YOPC   C1B 4883  15.993   4.564   9.594  0.0229 -0.1309  0.0334
  396YOPC   C2B 4884  15.959   4.553   9.215 -0.5022 -0.0060 -0.0555
  396YOPC   D3B 4885  16.081   4.359   8.885 -0.2430  0.3797 -0.0868
  396YOPC   C4B 4886  16.377   4.450   8.706 -0.0754 -0.1565  0.0130
  397YOPC   NC3 4887  13.139   5.101  11.090 -0.2312 -0.0639 -0.1343
  397YOPC   PO4 4888  12.977   4.780  10.781 -0.0548  0.0248  0.4673
  397YOPC   GL1 4889  12.829   4.877  10.330  0.2421 -0.0522  0.2467
  397YOPC   GL2 4890  13.094   5.019  10.092  0.2407  0.5361  0.2941
  397YOPC   C1A 4891  12.542   5.058  10.014  0.3159 -0.1425 -0.0645
  397YOPC   D2A 4892  12.430   5.292   9.622  0.1701 -0.0168  0.1364
  397YOPC   C3A 4893  12.501   5.393   9.159 -0.4831 -0.0369 -0.2507
  397YOPC   C4A 4894  12.483   5.484   8.784 -0.0264  0.2363 -0.1488
  397YOPC   C1B 4895  13.186   4.824   9.617  0.1287 -0.1726  0.3026
  397YOPC   C2B 4896  13.143   4.605   9.188 -0.0947 -0.0726 -0.0709
  397YOPC   D3B 4897  13.230   4.716   8.729  0.1053 -0.0440  0.0123
  397YOPC   C4B 4898  13.299   4.585   8.241  0.1177 -0.0232 -0.2596
  398YOPC   NC3 4899  16.336  13.671  10.339 -0.0611 -0.0590  0.2220
  398YOPC   PO4 4900  16.566  13.481  10.067  0.1929 -0.2141 -0.0612
  398YOPC   GL1 4901  16.237  13.504   9.717  0.0400  0.2461  0.3462
  398YOPC   GL2 4902  16.115  13.876   9.667  0.0078  0.1176  0.2225
  398YOPC   C1A 4903  16.484  13.456   9.283  0.0616  0.3292 -0.0312
  398YOPC   D2A 4904  16.460  13.262   8.819  0.1055  0.2404  0.2496
  398YOPC   C3A 4905  16.293  13.399   8.493 -0.0977 -0.0301 -0.3781
  398YOPC   C4A 4906  16.273  13.492   8.077 -0.1316  0.0979  0.3139
  398YOPC   C1B 4907  16.210  13.903   9.237 -0.0099  0.0327 -0.0808
  398YOPC   C2B 4908  16.428  13.773   8.832 -0.0667  0.1326  0.3043
  398YOPC   D3B 4909  16.082  13.918   8.383  0.2617 -0.0622  0.0782
  398YOPC   C4B 4910  15.823  14.040   8.107  0.1231 -0.3835 -0.4425
  399YOPC   NC3 4911  14.185   3.668  10.691 -0.1315  0.2122  0.0988
  399YOPC   PO4 4912  14.568   3.637  10.563  0.0341 -0.1972  0.1087
  399YOPC   GL1 4913  14.608   3.371  10.084 -0.3965 -0.0132 -0.1656
  399YOPC   GL2 4914  14.452   3.346   9.813  0.1755 -0.0695  0.0351
  399YOPC   C1A 4915  14.877   3.466   9.665  0.3210  0.1890  0.1391
  399YOPC   D2A 4916  15.077   3.185   9.377 -0.2310  0.3748 -0.1753
  399YOPC   C3A 4917  15.096   3.163   8.901  0.1691  0.0330  0.2776
  399YOPC   C4A 4918  14.800   3.352   8.631 -0.1524  0.4020  0.0613
  399YOPC   C1B 4919  14.511   3.096   9.474 -0.0942  0.3218 -0.1442
  399YOPC   C2B 4920  14.684   2.904   9.180 -0.1986  0.1635  0.2559
  399YOPC   D3B 4921  14.596   2.865   8.721 -0.1750  0.3575  0.4006
  399YOPC   C4B 4922  14.363   3.012   8.417  0.1330 -0.1682  0.0606
  400YOPC   NC3 4923  12.503  14.776  10.118 -0.1295  0.1623  0.2684
  400YOPC   PO4 4924  12.540  14.464   9.800 -0.2692 -0.0898  0.0290
  400YOPC   GL1 4925  12.534  14.120   9.671 -0.0600  0.3666 -0.1550
  400YOPC   GL2 4926  12.240  14.052   9.524  0.2406 -0.1310 -0.0486
  400YOPC   C1A 4927  12.508  13.651   9.559 -0.1633 -0.1238 -0.3070
  400YOPC   D2A 4928  12.810  13.282   9.642  0.3656  0.2505 -0.0347
  400YOPC   C3A 4929  12.900  13.026   9.263  0.0362 -0.1812  0.1509
  400YOPC   C4A 4930  12.628  12.746   8.994 -0.2439 -0.0396  0.2038
  400YOPC   C1B 4931  12.382  13.885   9.068 -0.1387  0.1661  0.1626
  400YOPC   C2B 4932  12.338  13.760   8.618 -0.0302 -0.0240 -0.1224
  400YOPC   D3B 4933  12.514  13.936   8.292 -0.2796 -0.1375 -0.0793
  400YOPC   C4B 4934  12.680  14.108   8.024 -0.4235  0.0087  0.0168
  401YOPC   NC3 4935   1.724   0.897  10.359 -0.1815 -0.0337  0.1624
  401YOPC   PO4 4936   1.323   0.977  10.513  0.1578  0.1591 -0.0284
  401YOPC   GL1 4937   1.228   0.919   9.998 -0.2749 -0.1423  0.0196
  401YOPC   GL2 4938   1.320   1.035   9.689 -0.0856 -0.0461 -0.0019
  401YOPC   C1A 4939   0.988   0.655   9.843 -0.1633 -0.1400  0.1304
  401YOPC   D2A 4940   0.833   0.362   9.599  0.4346 -0.0259 -0.1939
  401YOPC   C3A 4941   0.697   0.273   9.186 -0.3858 -0.2325  0.0737
  401YOPC   C4A 4942   0.785   0.397   8.771  0.2295 -0.0614  0.3740
  401YOPC   C1B 4943   1.209   1.386   9.381  0.1124 -0.1678 -0.3551
  401YOPC   C2B 4944   1.020   1.310   8.883  0.1106  0.0443 -0.0228
  401YOPC   D3B 4945   1.336   1.267   8.585 -0.1635  0.1053 -0.2508
  401YOPC   C4B 4946   1.761   1.069   8.676  0.4341 -0.0584  0.0390
  402YOPC   NC3 4947  12.665   3.374  10.496  0.3961  0.0499 -0.1497
  402YOPC   PO4 4948  12.414   3.115  10.194  0.1514 -0.0725  0.0440
  402YOPC   GL1 4949  12.446   3.287   9.725  0.1015 -0.0136 -0.2215
  402YOPC   GL2 4950  12.727   3.177   9.605 -0.4844 -0.1587 -0.0992
  402YOPC   C1A 4951  12.355   3.323   9.281  0.1763 -0.2666 -0.3010
  402YOPC   D2A 4952  12.343   3.361   8.899 -0.0437 -0.1899  0.0531
  402YOPC   C3A 4953  12.498   3.313   8.547 -0.1689  0.0387 -0.1551
  402YOPC   C4A 4954  12.774   3.429   8.357  0.3363  0.1670 -0.4664
  402YOPC   C1B 4955  12.864   3.160   9.201 -0.1390 -0.1738  0.3719
  402YOPC   C2B 4956  12.962   3.106   8.790 -0.0545  0.0195  0.1577
  402YOPC   D3B 4957  12.917   2.971   8.242  0.5394 -0.0796 -0.2964
  402YOPC   C4B 4958  12.913   3.179   7.890  0.1914 -0.0301 -0.1371
  403YOPC   NC3 4959   4.695  12.492  10.649 -0.0957  0.2451  0.2117
  403YOPC   PO4 4960   4.438  12.377  10.172  0.0205  0.1177 -0.3424
  403YOPC   GL1 4961   4.282  12.347   9.786 -0.0189 -0.0557  0.1921
  403YOPC   GL2 4962   4.362  12.494   9.560  0.1692  0.0468  0.0664
  403YOPC   C1A 4963   3.928  12.158   9.485 -0.1271  0.0925  0.0810
  403YOPC   D2A 4964   4.008  12.008   9.012  0.1491 -0.1774 -0.2091
  403YOPC   C3A 4965   3.737  11.700   9.054 -0.0406  0.1769  0.1706
  403YOPC   C4A 4966   3.357  11.462   9.248  0.3108 -0.4667  0.1437
  403YOPC   C1B 4967   4.471  12.511   9.098 -0.1311  0.2204 -0.3532
  403YOPC   C2B 4968   4.258  12.589   8.642 -0.1337  0.1027 -0.0314
  403YOPC   D3B 4969   4.343  12.451   8.203  0.3154  0.1778 -0.0150
  403YOPC   C4B 4970   4.389  12.106   7.933  0.2161  0.1463 -0.2300
  404YOPC   NC3 4971   3.599  18.301  10.585 -0.0335  0.1308  0.1212
  404YOPC   PO4 4972   3.628  18.207  10.164 -0.0134 -0.0539  0.2498
  404YOPC   GL1 4973   3.345  18.199   9.884  0.0579  0.3403  0.3468
  404YOPC   GL2 4974   3.278  17.835   9.826  0.1178 -0.0573 -0.4812
  404YOPC   C1A 4975   3.187  18.219   9.480 -0.2058  0.1521 -0.0844
  404YOPC   D2A 4976   3.029  17.985   9.200  0.1081 -0.0904 -0.1574
  404YOPC   C3A 4977   2.850  17.618   9.051  0.1818  0.1666  0.1840
  404YOPC   C4A 4978   2.662  17.306   9.271 -0.3067  0.1488 -0.2401
  404YOPC   C1B 4979   3.609  17.971   9.514  0.0190 -0.2495  0.2910
  404YOPC   C2B 4980   3.609  18.052   9.093  0.2194  0.1323 -0.2576
  404YOPC   D3B 4981   3.334  17.696   8.848  0.1946  0.0232  0.1040
  404YOPC   C4B 4982   3.235  17.299   8.785 -0.1708  0.0715 -0.1683
  405YOPC   NC3 4983  18.224   5.905  10.517 -0.3421 -0.2233  0.0487
  405YOPC   PO4 4984  17.970   6.204  10.625  0.0887  0.0418  0.0481
  405YOPC   GL1 4985  17.962   6.335  10.263 -0.0601  0.1708  0.1825
  405YOPC   GL2 4986  17.759   6.548  10.283  0.0360 -0.0707  0.3153
  405YOPC   C1A 4987  18.142   6.511   9.951 -0.1136 -0.2987  0.2116
  405YOPC   D2A 4988  18.447   6.742   9.663 -0.0091 -0.1290 -0.1533
  405YOPC   C3A 4989  18.428   6.895   9.274  0.1219 -0.1437  0.1571
  405YOPC   C4A 4990  18.369   7.096   8.999 -0.0504  0.0688  0.0170
  405YOPC   C1B 4991  17.658   6.585   9.851  0.1378  0.0520  0.0557
  405YOPC   C2B 4992  17.525   6.648   9.476 -0.0351  0.0557  0.1964
  405YOPC   D3B 4993  17.492   6.458   9.160  0.0943 -0.0380  0.0610
  405YOPC   C4B 4994  17.705   6.615   8.882 -0.2188 -0.0162  0.3436
  406YOPC   NC3 4995  15.464   5.495  10.578 -0.2560 -0.0417  0.1616
  406YOPC   PO4 4996  15.012   5.307  10.487  0.1801  0.1201 -0.1195
  406YOPC   GL1 4997  14.659   5.347  10.168  0.1897  0.2124  0.0168
  406YOPC   GL2 4998  14.549   5.149   9.829  0.1748  0.3300  0.0341
  406YOPC   C1A 4999  14.547   5.642   9.832  0.1410  0.4571  0.0158
  406YOPC   D2A 5000  14.305   5.983   9.578  0.1176 -0.1833  0.0418
  406YOPC   C3A 5001  14.414   6.095   9.054 -0.1818  0.1574 -0.0597
  406YOPC   C4A 5002  14.513   6.197   8.598 -0.0335 -0.1201  0.0190
  406YOPC   C1B 5003  14.363   5.326   9.406  0.0237 -0.0209  0.0727
  406YOPC   C2B 5004  14.370   5.590   9.034  0.2511  0.1114 -0.4883
  406YOPC   D3B 5005  14.540   5.604   8.541  0.1030  0.0453 -0.4225
  406YOPC   C4B 5006  14.673   5.442   8.117  0.1173  0.2140 -0.0907
  407YOPC   NC3 5007  11.842  17.769  10.098  0.3662  0.1462 -0.1716
  407YOPC   PO4 5008  11.589  17.589   9.828 -0.2428  0.1795  0.0969
  407YOPC   GL1 5009  11.447  17.564   9.383 -0.0155  0.0774 -0.0223
  407YOPC   GL2 5010  11.644  17.817   9.180  0.1488  0.1727 -0.4180
  407YOPC   C1A 5011  11.308  17.314   9.041 -0.0558 -0.1509  0.4500
  407YOPC   D2A 5012  11.156  17.113   8.734 -0.0222  0.3260  0.2015
  407YOPC   C3A 5013  11.297  17.052   8.316  0.0443 -0.3672 -0.1497
  407YOPC   C4A 5014  11.245  16.944   7.937 -0.0571 -0.1813 -0.3994
  407YOPC   C1B 5015  11.930  17.846   8.873  0.1040  0.0143  0.2740
  407YOPC   C2B 5016  11.873  17.801   8.474  0.3525  0.1957  0.1708
  407YOPC   D3B 5017  11.944  17.511   8.163 -0.0739  0.1193 -0.0604
  407YOPC   C4B 5018  12.051  17.180   7.830 -0.0993 -0.1182 -0.0161
  408YOPC   NC3 5019   9.174   2.791   9.811 -0.1853  0.3082 -0.4586
  408YOPC   PO4 5020   8.740   2.855   9.722 -0.1429 -0.4187  0.0645
  408YOPC   GL1 5021   8.749   3.137   9.428  0.1336  0.2357  0.1533
  408YOPC   GL2 5022   8.769   3.361   9.682  0.1163 -0.2940  0.1331
  408YOPC   C1A 5023   8.752   3.159   9.049  0.3031 -0.2989  0.2474
  408YOPC   D2A 5024   8.782   3.314   8.681 -0.1326 -0.0406 -0.0328
  408YOPC   C3A 5025   9.032   3.140   8.366 -0.2041  0.1265  0.0363
  408YOPC   C4A 5026   9.174   3.155   7.955 -0.1653 -0.0863 -0.0398
  408YOPC   C1B 5027   8.511   3.562   9.231 -0.3349  0.1562  0.1973
  408YOPC   C2B 5028   8.329   3.636   8.910  0.1624  0.1362  0.0386
  408YOPC   D3B 5029   7.993   3.577   8.625  0.1613 -0.0032 -0.2708
  408YOPC   C4B 5030   7.754   3.775   8.486  0.0967  0.1972  0.2987
  409YOPC   NC3 5031   0.860   8.134  10.363 -0.2491  0.0746 -0.0186
  409YOPC   PO4 5032   0.841   7.716  10.125  0.1146 -0.1538 -0.1441
  409YOPC   GL1 5033   1.183   7.815   9.782  0.1534  0.0360  0.0234
  409YOPC   GL2 5034   0.970   8.031   9.752  0.1799  0.2466  0.0186
  409YOPC   C1A 5035   1.342   7.818   9.436  0.2397 -0.1477 -0.1015
  409YOPC   D2A 5036   1.426   7.818   9.051  0.0708  0.4490  0.0728
  409YOPC   C3A 5037   1.181   8.044   8.669 -0.1076  0.1482 -0.2419
  409YOPC   C4A 5038   0.816   7.897   8.436  0.1563 -0.0751  0.2225
  409YOPC   C1B 5039   0.927   8.249   9.308 -0.0455 -0.0562  0.1288
  409YOPC   C2B 5040   0.762   8.644   9.069 -0.1431 -0.1795 -0.4537
  409YOPC   D3B 5041   0.996   8.633   8.676 -0.1006  0.2268  0.2938
  409YOPC   C4B 5042   0.943   8.927   8.457 -0.0179 -0.0935  0.2974
  410YOPC   NC3 5043   4.323   4.501  10.168 -0.0153 -0.0701 -0.0651
  410YOPC   PO4 5044   4.210   4.034  10.263 -0.3179  0.0112  0.0406
  410YOPC   GL1 5045   4.101   3.970   9.818  0.4134 -0.1720  0.1877
  410YOPC   GL2 5046   4.340   3.802   9.681  0.1032  0.0682 -0.2881
  410YOPC   C1A 5047   3.892   3.686   9.376 -0.0567  0.0292  0.1515
  410YOPC   D2A 5048   3.815   3.611   8.964  0.1708 -0.0400 -0.0842
  410YOPC   C3A 5049   3.946   3.704   8.511  0.0645  0.1319 -0.0786
  410YOPC   C4A 5050   4.176   3.290   8.223  0.1899  0.1917 -0.4278
  410YOPC   C1B 5051   4.781   3.858   9.413  0.1295  0.0170  0.4384
  410YOPC   C2B 5052   5.012   3.679   9.172 -0.1139  0.0611 -0.0115
  410YOPC   D3B 5053   5.222   3.953   8.844 -0.1939 -0.4294  0.5942
  410YOPC   C4B 5054   5.445   3.859   8.506 -0.2763 -0.0062  0.2733
  411YOPC   NC3 5055   8.766   6.610  10.761 -0.0131  0.0727 -0.1724
  411YOPC   PO4 5056   8.951   6.144  10.640  0.2781 -0.1032 -0.0756
  411YOPC   GL1 5057   8.981   6.383  10.307 -0.0644 -0.2603 -0.2970
  411YOPC   GL2 5058   8.776   6.707  10.253  0.1563 -0.0526  0.0932
  411YOPC   C1A 5059   8.900   6.419   9.825  0.2019  0.1023 -0.0676
  411YOPC   D2A 5060   8.710   6.645   9.515 -0.2552 -0.4601  0.0628
  411YOPC   C3A 5061   8.614   6.530   9.123 -0.0663  0.4393  0.3007
  411YOPC   C4A 5062   8.658   6.289   8.707  0.3282 -0.1407  0.0027
  411YOPC   C1B 5063   9.148   6.880  10.037 -0.0605  0.2533  0.3015
  411YOPC   C2B 5064   9.427   7.177   9.831 -0.1889  0.1947 -0.0608
  411YOPC   D3B 5065   9.273   7.289   9.399  0.0122 -0.0777 -0.0554
  411YOPC   C4B 5066   9.036   7.593   9.277 -0.0555 -0.1869  0.1604
  412YOPC   NC3 5067   7.668   4.063   9.778 -0.1548  0.0398 -0.2523
  412YOPC   PO4 5068   8.092   4.003   9.796 -0.0307  0.4358 -0.0303
  412YOPC   GL1 5069   8.117   4.222   9.428 -0.0408  0.1069 -0.0439
  412YOPC   GL2 5070   7.878   4.410   9.372  0.0153  0.1206 -0.0261
  412YOPC   C1A 5071   8.016   4.141   9.026  0.1034 -0.5533  0.0493
  412YOPC   D2A 5072   8.139   4.281   8.630 -0.0903 -0.0928 -0.0686
  412YOPC   C3A 5073   8.293   4.021   8.515  0.2935  0.0902 -0.1743
  412YOPC   C4A 5074   8.421   3.642   8.428 -0.0336  0.0932 -0.1965
  412YOPC   C1B 5075   7.711   4.595   9.012  0.0662  0.1542 -0.0736
  412YOPC   C2B 5076   7.776   4.645   8.609 -0.0096  0.0244  0.1996
  412YOPC   D3B 5077   7.685   4.564   8.282  0.2102  0.0779  0.2422
  412YOPC   C4B 5078   7.469   4.512   7.857  0.2321  0.3484  0.1883
  413YOPC   NC3 5079  15.043   7.841  11.515  0.3223  0.0583  0.0630
  413YOPC   PO4 5080  14.979   7.742  11.064  0.1566 -0.2779  0.2268
  413YOPC   GL1 5081  14.894   7.619  10.621  0.3137 -0.0634 -0.0576
  413YOPC   GL2 5082  14.579   7.571  10.387 -0.0341  0.0250 -0.0178
  413YOPC   C1A 5083  14.866   7.916  10.256 -0.1673 -0.0128 -0.1272
  413YOPC   D2A 5084  15.060   8.278  10.198 -0.4213  0.1600 -0.0581
  413YOPC   C3A 5085  15.139   8.394   9.796 -0.0165 -0.0115  0.2082
  413YOPC   C4A 5086  14.849   8.557   9.563 -0.0518 -0.2724 -0.0673
  413YOPC   C1B 5087  14.113   7.590  10.294 -0.3012 -0.2767  0.1440
  413YOPC   C2B 5088  13.879   7.229  10.198 -0.0581 -0.2267  0.1283
  413YOPC   D3B 5089  13.916   7.018   9.912  0.0451 -0.0391  0.0124
  413YOPC   C4B 5090  13.829   7.048   9.536 -0.4557 -0.0256  0.2229
  414YOPC   NC3 5091  14.523   5.061  10.606 -0.2881  0.1144 -0.1370
  414YOPC   PO4 5092  14.477   4.555  10.528  0.0092 -0.0968  0.0033
  414YOPC   GL1 5093  14.325   4.444  10.183  0.2181  0.0695  0.0166
  414YOPC   GL2 5094  14.591   4.505   9.997 -0.0527  0.0712  0.1194
  414YOPC   C1A 5095  14.113   4.260   9.771  0.1823  0.1920  0.2179
  414YOPC   D2A 5096  14.008   4.125   9.352 -0.0388  0.1442 -0.1198
  414YOPC   C3A 5097  14.051   4.497   9.079  0.1504  0.0137  0.0103
  414YOPC   C4A 5098  14.105   4.735   8.651  0.3403 -0.1448 -0.0097
  414YOPC   C1B 5099  14.334   4.755   9.681 -0.3873 -0.5014  0.1336
  414YOPC   C2B 5100  13.995   4.919   9.479  0.0272  0.0295 -0.1235
  414YOPC   D3B 5101  13.870   5.210   9.284 -0.1000  0.2743 -0.1177
  414YOPC   C4B 5102  13.638   5.481   9.039  0.1225  0.2510 -0.2406
  415YOPC   NC3 5103  13.412  10.288  10.891  0.1742  0.0303  0.1910
  415YOPC   PO4 5104  13.345  10.500  10.446 -0.0721 -0.3673  0.0690
  415YOPC   GL1 5105  13.281  10.508   9.979 -0.1831 -0.2324  0.5444
  415YOPC   GL2 5106  12.987  10.316   9.827 -0.3370 -0.1233  0.0920
  415YOPC   C1A 5107  13.363  10.766   9.548  0.2265 -0.0338 -0.2918
  415YOPC   D2A 5108  13.344  10.812   9.094 -0.4523 -0.1010 -0.1597
  415YOPC   C3A 5109  13.602  10.919   8.851  0.0003 -0.0061 -0.1436
  415YOPC   C4A 5110  13.869  11.147   8.530 -0.0200 -0.1560  0.2815
  415YOPC   C1B 5111  12.967  10.401   9.351  0.0794  0.0319  0.1177
  415YOPC   C2B 5112  13.055  10.437   8.905  0.1698  0.1457 -0.0301
  415YOPC   D3B 5113  13.349  10.566   8.632  0.0255  0.0513 -0.1055
  415YOPC   C4B 5114  13.752  10.682   8.462  0.1676  0.1998 -0.0813
  416YOPC   NC3 5115   8.346   2.705   9.984 -0.1791 -0.0678  0.1202
  416YOPC   PO4 5116   8.282   2.992   9.581 -0.0085 -0.0848  0.3406
  416YOPC   GL1 5117   8.073   3.041   9.216 -0.1408  0.1879  0.0590
  416YOPC   GL2 5118   7.731   3.071   9.398 -0.0840 -0.1450 -0.0179
  416YOPC   C1A 5119   8.234   3.152   8.863 -0.1382 -0.1696  0.0662
  416YOPC   D2A 5120   8.265   3.105   8.436  0.0122 -0.1696 -0.0085
  416YOPC   C3A 5121   8.550   3.164   8.280 -0.1842 -0.1279  0.1702
  416YOPC   C4A 5122   8.746   3.425   8.154  0.3251 -0.0882 -0.3544
  416YOPC   C1B 5123   7.730   2.731   9.032  0.0923  0.1401 -0.2334
  416YOPC   C2B 5124   7.570   2.522   8.700  0.0803 -0.0223 -0.1142
  416YOPC   D3B 5125   7.467   2.835   8.292  0.1446 -0.2857 -0.1251
  416YOPC   C4B 5126   7.150   2.728   7.978 -0.1719  0.2815 -0.1417
  417YOPC   NC3 5127  11.172   0.721   9.832  0.0807 -0.3064  0.1043
  417YOPC   PO4 5128  11.482   0.891   9.937 -0.1783 -0.0622 -0.1133
  417YOPC   GL1 5129  11.673   0.884   9.553 -0.0398  0.0936 -0.1122
  417YOPC   GL2 5130  11.295   1.010   9.420 -0.1730 -0.2585 -0.0131
  417YOPC   C1A 5131  11.657   0.862   9.125  0.3559 -0.0024  0.0213
  417YOPC   D2A 5132  11.476   0.873   8.773 -0.3940 -0.1517  0.0509
  417YOPC   C3A 5133  11.788   1.037   8.405 -0.1652  0.0348  0.1967
  417YOPC   C4A 5134  11.782   0.944   7.992 -0.2600  0.2083 -0.2218
  417YOPC   C1B 5135  11.147   0.728   9.137 -0.0521 -0.0649 -0.0285
  417YOPC   C2B 5136  10.852   0.444   9.044  0.0378 -0.0603  0.1564
  417YOPC   D3B 5137  10.860   0.292   8.666 -0.1901 -0.1811  0.0314
  417YOPC   C4B 5138  10.922   0.065   8.226  0.2707  0.1216 -0.1716
  418YOPC   NC3 5139  18.238   7.550  10.857  0.0443 -0.0685  0.0774
  418YOPC   PO4 5140  18.046   7.263  10.682 -0.1417  0.1913  0.0966
  418YOPC   GL1 5141  18.225   7.089  10.323 -0.3357  0.0384  0.0513
  418YOPC   GL2 5142  18.297   6.806  10.268  0.2229 -0.2695 -0.0057
  418YOPC   C1A 5143  18.553   7.098  10.009  0.1579  0.2682 -0.0776
  418YOPC   D2A 5144  18.541   7.294   9.587  0.0831  0.4827 -0.0068
  418YOPC   C3A 5145  18.635   7.522   9.149  0.2112  0.3393 -0.2392
  418YOPC   C4A 5146  18.870   7.701   8.778  0.1413 -0.3372 -0.0644
  418YOPC   C1B 5147  17.917   7.011   9.948  0.1050  0.0849 -0.1530
  418YOPC   C2B 5148  18.045   7.137   9.613 -0.0403 -0.3330 -0.1279
  418YOPC   D3B 5149  18.127   7.389   9.269 -0.1134  0.1871 -0.2120
  418YOPC   C4B 5150  18.067   7.504   8.850  0.2557 -0.2499  0.2472
  419YOPC   NC3 5151  17.620   2.294  11.034 -0.1722 -0.3098 -0.0531
  419YOPC   PO4 5152  17.950   2.002  10.752 -0.3137  0.2030 -0.1717
  419YOPC   GL1 5153  17.789   1.994  10.261  0.0364 -0.0228  0.1383
  419YOPC   GL2 5154  18.109   2.009  10.232  0.0195  0.0092 -0.0964
  419YOPC   C1A 5155  17.435   2.006  10.159 -0.0266  0.2263 -0.1685
  419YOPC   D2A 5156  17.106   1.987   9.838  0.2684  0.1237  0.1373
  419YOPC   C3A 5157  17.040   1.910   9.515 -0.0002 -0.0954  0.1948
  419YOPC   C4A 5158  17.187   2.024   9.149 -0.1494  0.0324  0.2286
  419YOPC   C1B 5159  18.363   2.151   9.909 -0.3830  0.1756 -0.0833
  419YOPC   C2B 5160  18.604   2.332   9.703 -0.0837  0.1581  0.0563
  419YOPC   D3B 5161  18.472   2.424   9.392 -0.1169  0.4426  0.0779
  419YOPC   C4B 5162  18.482   2.171   8.946  0.3625  0.2510 -0.1777
  420YOPC   NC3 5163  18.109  16.450  10.272 -0.0664 -0.0815  0.0011
  420YOPC   PO4 5164  17.708  16.477  10.176 -0.0340 -0.2276  0.1605
  420YOPC   GL1 5165  17.868  16.650   9.811 -0.2381 -0.0949  0.0454
  420YOPC   GL2 5166  17.763  16.969   9.723  0.1878 -0.0072  0.0468
  420YOPC   C1A 5167  18.158  16.684   9.557  0.2348  0.0719  0.1142
  420YOPC   D2A 5168  18.315  16.989   9.250  0.0727  0.1355  0.0537
  420YOPC   C3A 5169  18.730  17.156   9.035 -0.2103 -0.0851  0.2282
  420YOPC   C4A 5170  19.045  17.100   8.820 -0.1110 -0.2490  0.1833
  420YOPC   C1B 5171  17.752  16.919   9.342 -0.0215 -0.1399 -0.3339
  420YOPC   C2B 5172  17.879  16.986   9.028  0.0559  0.1878 -0.0214
  420YOPC   D3B 5173  18.224  17.141   8.735  0.2719  0.0752  0.2834
  420YOPC   C4B 5174  18.590  17.421   8.657  0.0053  0.1149  0.0383
  421YOPC   NC3 5175   3.397  12.304  10.375  0.0107  0.0334 -0.2177
  421YOPC   PO4 5176   3.087  12.343  10.042 -0.1266 -0.1104  0.1921
  421YOPC   GL1 5177   3.173  12.452   9.650 -0.0030  0.3310 -0.3027
  421YOPC   GL2 5178   2.997  12.621   9.464 -0.0872 -0.2604 -0.1044
  421YOPC   C1A 5179   3.067  12.156   9.321  0.1749 -0.1997  0.1571
  421YOPC   D2A 5180   3.002  11.861   9.064  0.0058  0.1767  0.0986
  421YOPC   C3A 5181   3.376  11.648   8.751 -0.1349  0.1567  0.4425
  421YOPC   C4A 5182   3.320  11.593   8.349  0.1724  0.3139  0.3354
  421YOPC   C1B 5183   2.671  12.410   9.072  0.0932  0.1716 -0.3667
  421YOPC   C2B 5184   2.664  12.224   8.730  0.4302  0.1330  0.0678
  421YOPC   D3B 5185   2.909  12.393   8.328 -0.2719  0.0899 -0.0915
  421YOPC   C4B 5186   2.781  12.370   7.911  0.2864 -0.0992 -0.1545
  422YOPC   NC3 5187   7.845  10.131   9.856 -0.1916 -0.1640 -0.3462
  422YOPC   PO4 5188   7.726  10.595   9.827 -0.2911  0.0498  0.0099
  422YOPC   GL1 5189   7.637  10.395   9.526  0.1710 -0.2665 -0.3316
  422YOPC   GL2 5190   7.265  10.347   9.484 -0.0884 -0.0740 -0.3052
  422YOPC   C1A 5191   7.920  10.208   9.173  0.3078  0.1256 -0.3321
  422YOPC   D2A 5192   8.232  10.187   8.960 -0.2592 -0.1710  0.0588
  422YOPC   C3A 5193   8.559  10.332   8.760 -0.3852 -0.1475  0.3039
  422YOPC   C4A 5194   8.707  10.483   8.395 -0.0745 -0.1950 -0.0070
  422YOPC   C1B 5195   7.055  10.659   9.184 -0.4070 -0.1887 -0.0365
  422YOPC   C2B 5196   6.736  10.863   8.891 -0.0568 -0.4433 -0.0140
  422YOPC   D3B 5197   6.458  10.846   8.556  0.2920 -0.0123  0.2313
  422YOPC   C4B 5198   6.145  10.999   8.226  0.2599  0.0699  0.2177
  423YOPC   NC3 5199   5.904  16.131  10.501 -0.0392 -0.1095  0.1230
  423YOPC   PO4 5200   5.625  15.949  10.144 -0.1604 -0.3673 -0.1193
  423YOPC   GL1 5201   5.915  15.820   9.913 -0.0691  0.1124 -0.0087
  423YOPC   GL2 5202   6.218  15.983   9.817  0.1753  0.0328 -0.0197
  423YOPC   C1A 5203   5.910  15.924   9.394 -0.0134 -0.1136  0.2063
  423YOPC   D2A 5204   5.952  15.804   8.974  0.0566  0.2363  0.2260
  423YOPC   C3A 5205   6.045  15.946   8.558  0.2842  0.2738 -0.0122
  423YOPC   C4A 5206   5.751  15.915   8.257 -0.1302 -0.1223 -0.1373
  423YOPC   C1B 5207   6.242  16.382   9.510 -0.0854 -0.1740 -0.1543
  423YOPC   C2B 5208   6.159  16.434   9.128  0.0719 -0.0216  0.0081
  423YOPC   D3B 5209   6.073  16.466   8.705  0.1886  0.0300  0.3696
  423YOPC   C4B 5210   5.836  16.525   8.357  0.0777  0.1265 -0.1057
  424YOPC   NC3 5211  18.244  18.349  10.317 -0.0396  0.0522 -0.0988
  424YOPC   PO4 5212  18.634  18.557  10.514 -0.0194 -0.2353  0.2074
  424YOPC   GL1 5213  18.803  18.330  10.169  0.0073  0.1937  0.2775
  424YOPC   GL2 5214  19.112  18.239  10.102  0.1173  0.0671 -0.4599
  424YOPC   C1A 5215  18.746  17.940   9.911 -0.1360 -0.1872  0.0528
  424YOPC   D2A 5216  18.785  17.561   9.734  0.1665 -0.1425  0.0379
  424YOPC   C3A 5217  18.619  17.153   9.624  0.0372  0.2715 -0.1824
  424YOPC   C4A 5218  18.625  16.752   9.827 -0.0349 -0.0050  0.1422
  424YOPC   C1B 5219  18.982  18.437   9.768 -0.2249 -0.1424  0.3096
  424YOPC   C2B 5220  18.738  18.749   9.452 -0.0204 -0.2309  0.4628
  424YOPC   D3B 5221  18.958  19.152   9.361  0.2764 -0.0410 -0.0126
  424YOPC   C4B 5222  19.090  19.452   9.024  0.1563  0.0353  0.0637
  425YOPC   NC3 5223  15.189   9.290  11.112  0.1231 -0.0040 -0.0030
  425YOPC   PO4 5224  15.360   9.487  10.612 -0.1976 -0.0637 -0.2330
  425YOPC   GL1 5225  15.342   9.530  10.136 -0.0697 -0.1758 -0.0032
  425YOPC   GL2 5226  15.629   9.414  10.023 -0.1282 -0.2670 -0.0002
  425YOPC   C1A 5227  15.017   9.555   9.803  0.3458 -0.1058  0.1509
  425YOPC   D2A 5228  14.737   9.669   9.535 -0.0647 -0.2690  0.5165
  425YOPC   C3A 5229  14.746   9.461   9.164 -0.0591 -0.0687 -0.0028
  425YOPC   C4A 5230  14.962   9.382   8.804 -0.0784  0.1257 -0.1025
  425YOPC   C1B 5231  15.560   9.326   9.600 -0.0555 -0.3177  0.1282
  425YOPC   C2B 5232  15.733   9.098   9.281  0.0557 -0.2821  0.0300
  425YOPC   D3B 5233  15.714   8.728   9.089  0.0880  0.1664 -0.0981
  425YOPC   C4B 5234  15.609   8.344   9.096 -0.1135  0.1261 -0.1004
  426YOPC   NC3 5235  14.207   8.978  11.023 -0.0862 -0.1155  0.2349
  426YOPC   PO4 5236  14.165   8.900  10.576  0.0966  0.0208  0.0068
  426YOPC   GL1 5237  14.516   8.747  10.199 -0.2585  0.2195  0.0041
  426YOPC   GL2 5238  14.860   8.720  10.185 -0.0233 -0.2713  0.0185
  426YOPC   C1A 5239  14.353   8.674   9.768  0.1978 -0.3307 -0.2000
  426YOPC   D2A 5240  14.415   8.498   9.366 -0.1488 -0.1408 -0.0829
  426YOPC   C3A 5241  14.709   8.394   9.052  0.2944 -0.0463  0.1609
  426YOPC   C4A 5242  15.042   8.405   8.840 -0.0788 -0.0069  0.1442
  426YOPC   C1B 5243  14.673   9.111   9.864  0.0662 -0.1625  0.0365
  426YOPC   C2B 5244  14.550   9.199   9.498  0.0766  0.0511  0.0991
  426YOPC   D3B 5245  14.683   8.947   9.233 -0.0617  0.1729 -0.1174
  426YOPC   C4B 5246  14.833   8.895   8.851  0.0261 -0.0049 -0.0529
  427YOPC   NC3 5247   4.463   5.989  10.137 -0.0723 -0.4053  0.2042
  427YOPC   PO4 5248   4.878   6.140   9.994  0.1277 -0.1523 -0.0623
  427YOPC   GL1 5249   4.784   5.940   9.561  0.1165  0.2807 -0.2487
  427YOPC   GL2 5250   4.997   5.855   9.300 -0.0703 -0.0006  0.1733
  427YOPC   C1A 5251   4.520   5.938   9.199 -0.1734  0.1076 -0.1367
  427YOPC   D2A 5252   4.182   5.951   8.890  0.0909 -0.1282 -0.1584
  427YOPC   C3A 5253   3.873   5.906   8.618 -0.1697  0.2099  0.2523
  427YOPC   C4A 5254   3.506   5.742   8.281 -0.3338  0.1404  0.2003
  427YOPC   C1B 5255   4.955   5.882   9.015 -0.0437 -0.1582  0.1402
  427YOPC   C2B 5256   4.949   5.994   8.586 -0.0005  0.0840 -0.1177
  427YOPC   D3B 5257   4.576   5.915   8.492  0.1266  0.1034  0.1817
  427YOPC   C4B 5258   4.273   5.649   8.379 -0.0994  0.0970 -0.1238
  428YOPC   NC3 5259  16.489   7.246  10.413  0.2423 -0.0249  0.0874
  428YOPC   PO4 5260  16.369   6.855  10.225 -0.1295 -0.0790  0.1651
  428YOPC   GL1 5261  16.458   6.775   9.835 -0.0932  0.1868 -0.1585
  428YOPC   GL2 5262  16.635   6.589   9.821  0.4960  0.3812  0.0390
  428YOPC   C1A 5263  16.288   6.998   9.487  0.2589  0.0558 -0.1587
  428YOPC   D2A 5264  16.012   7.226   9.294 -0.1563  0.1798  0.0673
  428YOPC   C3A 5265  16.400   7.436   9.033  0.3899  0.0232  0.2435
  428YOPC   C4A 5266  16.807   7.609   8.832  0.2665 -0.0998  0.0889
  428YOPC   C1B 5267  16.538   6.549   9.418 -0.1672 -0.2641 -0.2461
  428YOPC   C2B 5268  16.293   6.719   9.098 -0.3064 -0.0623  0.2464
  428YOPC   D3B 5269  16.301   6.452   8.665 -0.0278 -0.0644  0.2069
  428YOPC   C4B 5270  16.171   6.131   8.681  0.0165 -0.0332  0.3059
  429YOPC   NC3 5271   6.406   9.262  10.353  0.0878  0.1777 -0.1325
  429YOPC   PO4 5272   6.448   9.686  10.169 -0.0642  0.0849 -0.0182
  429YOPC   GL1 5273   6.661   9.435   9.816  0.0512 -0.1776  0.1284
  429YOPC   GL2 5274   6.376   9.293   9.807  0.1921 -0.2849 -0.2331
  429YOPC   C1A 5275   6.813   9.487   9.478 -0.0956 -0.0647 -0.0468
  429YOPC   D2A 5276   6.577   9.676   9.166  0.1803 -0.0403  0.0344
  429YOPC   C3A 5277   6.574   9.827   8.816 -0.0198  0.1595  0.1942
  429YOPC   C4A 5278   6.555   9.657   8.337 -0.1259 -0.2158 -0.2910
  429YOPC   C1B 5279   6.235   9.318   9.427 -0.1082  0.4982 -0.2838
  429YOPC   C2B 5280   6.112   9.523   9.096 -0.1221  0.0147  0.2533
  429YOPC   D3B 5281   6.167   9.388   8.578  0.3496 -0.1262 -0.1048
  429YOPC   C4B 5282   5.981   9.099   8.250  0.0470 -0.2319  0.0676
  430YOPC   NC3 5283  12.414   1.239  10.064  0.2854  0.1811 -0.0179
  430YOPC   PO4 5284  12.446   0.957   9.846  0.2504 -0.1323  0.0830
  430YOPC   GL1 5285  12.534   0.882   9.455 -0.0281 -0.1918  0.0158
  430YOPC   GL2 5286  12.431   1.171   9.334  0.0298  0.0579  0.0996
  430YOPC   C1A 5287  12.281   0.695   9.099 -0.2324 -0.0974  0.1030
  430YOPC   D2A 5288  12.306   0.314   8.936  0.0510 -0.1157 -0.0154
  430YOPC   C3A 5289  12.251   0.183   8.480  0.0614 -0.0163 -0.0003
  430YOPC   C4A 5290  12.339   0.167   8.121  0.0762  0.1175 -0.2297
  430YOPC   C1B 5291  12.333   1.489   9.136  0.0435 -0.0720 -0.1877
  430YOPC   C2B 5292  12.487   1.826   8.864 -0.0266  0.0796  0.0387
  430YOPC   D3B 5293  12.640   1.803   8.440  0.3083 -0.0788 -0.3818
  430YOPC   C4B 5294  12.420   2.140   8.307  0.2062  0.2738  0.1883
  431YOPC   NC3 5295   0.877  17.577  10.570 -0.0800  0.0016 -0.0613
  431YOPC   PO4 5296   0.980  17.988  10.435 -0.1472 -0.2453  0.3570
  431YOPC   GL1 5297   1.216  17.922  10.032 -0.0686  0.1976 -0.4096
  431YOPC   GL2 5298   1.387  18.076   9.896  0.0809 -0.1898 -0.4019
  431YOPC   C1A 5299   1.222  17.520   9.821  0.2102  0.3277  0.1801
  431YOPC   D2A 5300   1.455  17.187   9.767 -0.1671  0.0601  0.2437
  431YOPC   C3A 5301   1.572  17.187   9.351  0.0155 -0.1971  0.2072
  431YOPC   C4A 5302   1.812  17.210   8.887  0.1272  0.0250  0.0533
  431YOPC   C1B 5303   1.538  18.274   9.552 -0.0004 -0.4184 -0.1448
  431YOPC   C2B 5304   1.598  18.188   9.155  0.0766 -0.1467  0.1166
  431YOPC   D3B 5305   1.727  18.159   8.693  0.3999 -0.2278  0.0347
  431YOPC   C4B 5306   2.098  18.251   8.465  0.2771  0.1364  0.0403
  432YOPC   NC3 5307   4.554   9.653  10.640  0.1916  0.2063 -0.3276
  432YOPC   PO4 5308   4.946   9.448  10.442  0.2381  0.2176 -0.0867
  432YOPC   GL1 5309   4.837   9.255  10.000  0.0534 -0.0337 -0.1351
  432YOPC   GL2 5310   4.491   9.333   9.816 -0.0824 -0.0180  0.1264
  432YOPC   C1A 5311   5.062   9.510   9.687  0.0088 -0.0228  0.1135
  432YOPC   D2A 5312   5.017   9.385   9.224 -0.1019  0.0893 -0.0193
  432YOPC   C3A 5313   5.091   9.644   8.948 -0.0327 -0.0289  0.2560
  432YOPC   C4A 5314   5.273   9.973   8.823 -0.3094  0.0037  0.2423
  432YOPC   C1B 5315   4.607   9.638   9.618 -0.0907  0.4179  0.0885
  432YOPC   C2B 5316   4.909   9.867   9.422 -0.1488 -0.2193  0.3758
  432YOPC   D3B 5317   5.358   9.783   9.350  0.2543  0.1522  0.0890
  432YOPC   C4B 5318   5.714   9.968   9.254  0.0469 -0.0533 -0.1138
  433YOPC   NC3 5319  17.439  13.153  10.362 -0.0908  0.1176  0.1180
  433YOPC   PO4 5320  17.510  13.485  10.039  0.2603  0.2944 -0.1233
  433YOPC   GL1 5321  17.407  13.532   9.581 -0.1216 -0.1066 -0.0374
  433YOPC   GL2 5322  17.211  13.724   9.431  0.0107  0.2118  0.0761
  433YOPC   C1A 5323  17.420  13.293   9.203  0.0976 -0.3817 -0.0034
  433YOPC   D2A 5324  17.329  13.376   8.781 -0.0267  0.3191 -0.3619
  433YOPC   C3A 5325  17.514  13.660   8.556  0.3019 -0.0692  0.2720
  433YOPC   C4A 5326  17.710  13.578   8.131 -0.0129 -0.0103 -0.2859
  433YOPC   C1B 5327  17.384  13.837   8.970  0.2547 -0.1149 -0.0676
  433YOPC   C2B 5328  17.100  13.917   8.574  0.2566 -0.0098  0.3017
  433YOPC   D3B 5329  16.981  13.665   8.119 -0.3052 -0.2664  0.0714
  433YOPC   C4B 5330  16.757  13.386   7.851  0.1120  0.0004 -0.0127
  434YOPC   NC3 5331  11.595   5.316  10.331 -0.0933 -0.0739 -0.0493
  434YOPC   PO4 5332  11.615   4.962  10.458 -0.0605 -0.1066 -0.3051
  434YOPC   GL1 5333  11.547   5.025   9.965 -0.5650 -0.0036  0.2031
  434YOPC   GL2 5334  11.638   5.338   9.811  0.0895 -0.2819  0.1150
  434YOPC   C1A 5335  11.398   4.810   9.491  0.0836  0.1048 -0.0081
  434YOPC   D2A 5336  11.099   4.888   9.046  0.0441  0.1272 -0.1524
  434YOPC   C3A 5337  11.146   5.127   8.583 -0.3108  0.2681 -0.3242
  434YOPC   C4A 5338  11.364   4.973   8.243 -0.0570 -0.1401  0.1641
  434YOPC   C1B 5339  11.564   5.255   9.356 -0.0753 -0.0813 -0.2545
  434YOPC   C2B 5340  11.596   5.297   8.898 -0.1790  0.3612 -0.0872
  434YOPC   D3B 5341  11.608   4.957   8.896 -0.1156  0.0835  0.0858
  434YOPC   C4B 5342  11.687   4.593   9.102 -0.1925 -0.1470  0.3299
  435YOPC   NC3 5343   3.523  16.377  10.361  0.2279 -0.2010 -0.0179
  435YOPC   PO4 5344   3.296  16.281  10.006  0.2143 -0.2920 -0.2570
  435YOPC   GL1 5345   3.407  16.318   9.619  0.1298  0.1214  0.2221
  435YOPC   GL2 5346   3.692  16.157   9.497 -0.1185 -0.2183 -0.1074
  435YOPC   C1A 5347   3.434  16.581   9.325 -0.0837  0.1205  0.4991
  435YOPC   D2A 5348   3.550  16.635   8.912 -0.0367 -0.0848 -0.0206
  435YOPC   C3A 5349   3.536  16.915   8.557 -0.0328  0.1878  0.2462
  435YOPC   C4A 5350   3.530  17.200   8.158  0.0447 -0.1982 -0.2554
  435YOPC   C1B 5351   3.801  16.227   9.118 -0.2421 -0.1429  0.0719
  435YOPC   C2B 5352   3.883  16.358   8.650 -0.0352 -0.1909 -0.1232
  435YOPC   D3B 5353   3.482  16.370   8.440  0.0077 -0.1007 -0.2683
  435YOPC   C4B 5354   3.248  16.629   8.151  0.3332  0.2577 -0.0250
  436YOPC   NC3 5355   5.533   8.838  10.241 -0.1298 -0.2571  0.1393
  436YOPC   PO4 5356   5.246   8.939   9.790 -0.1011 -0.1644  0.4247
  436YOPC   GL1 5357   5.300   8.987   9.422 -0.0770 -0.0257 -0.2532
  436YOPC   GL2 5358   5.519   9.290   9.500 -0.1558  0.0227 -0.0268
  436YOPC   C1A 5359   5.363   9.020   9.091 -0.1784 -0.0237  0.0253
  436YOPC   D2A 5360   5.232   8.828   8.750 -0.3227 -0.2189  0.0317
  436YOPC   C3A 5361   5.043   8.778   8.408 -0.2693 -0.0422  0.0171
  436YOPC   C4A 5362   5.003   8.396   8.089  0.1549  0.0706  0.2106
  436YOPC   C1B 5363   5.580   9.498   9.061 -0.2199  0.0435  0.3465
  436YOPC   C2B 5364   5.654   9.697   8.655  0.1626 -0.1110 -0.0728
  436YOPC   D3B 5365   5.618   9.472   8.260  0.1413 -0.0571  0.1206
  436YOPC   C4B 5366   5.495   9.404   7.832 -0.0043 -0.2229  0.2681
  437YOPC   NC3 5367   4.986   2.057  10.393 -0.2041 -0.2930  0.2254
  437YOPC   PO4 5368   5.349   2.235  10.367  0.1255 -0.0604 -0.0618
  437YOPC   GL1 5369   5.581   2.291  10.023  0.1881 -0.1437 -0.1915
  437YOPC   GL2 5370   5.877   2.172   9.960  0.1887 -0.2600  0.0114
  437YOPC   C1A 5371   5.590   1.972   9.632 -0.1773  0.0559  0.4016
  437YOPC   D2A 5372   5.789   1.605   9.395  0.1969  0.0661  0.0710
  437YOPC   C3A 5373   5.742   1.831   9.030 -0.1242 -0.0869  0.1523
  437YOPC   C4A 5374   6.049   2.070   8.951  0.1415  0.0388 -0.0919
  437YOPC   C1B 5375   6.012   2.254   9.508  0.0135  0.3260 -0.1447
  437YOPC   C2B 5376   6.339   2.352   9.291 -0.0469  0.1766  0.0139
  437YOPC   D3B 5377   6.438   2.333   8.797  0.1816 -0.1202  0.1027
  437YOPC   C4B 5378   6.370   2.025   8.544 -0.1369  0.0450  0.1475
  438YOPC   NC3 5379  16.874  17.459  10.222 -0.1949 -0.2300  0.1202
  438YOPC   PO4 5380  16.468  17.403  10.086 -0.2435 -0.0148  0.2718
  438YOPC   GL1 5381  16.464  17.737   9.840  0.1759 -0.1115  0.2719
  438YOPC   GL2 5382  16.158  17.661   9.739 -0.1913 -0.3104 -0.0385
  438YOPC   C1A 5383  16.678  18.005   9.591  0.1242  0.0621 -0.0965
  438YOPC   D2A 5384  17.056  18.216   9.728 -0.0560  0.0241 -0.1182
  438YOPC   C3A 5385  17.483  18.212   9.580 -0.0399  0.1439 -0.0557
  438YOPC   C4A 5386  17.790  18.342   9.364 -0.0885  0.0873 -0.0874
  438YOPC   C1B 5387  16.212  17.962   9.332 -0.0003  0.1910  0.2103
  438YOPC   C2B 5388  16.330  18.216   9.021 -0.0308 -0.1070  0.2976
  438YOPC   D3B 5389  16.550  18.202   8.632 -0.3304  0.0782  0.2770
  438YOPC   C4B 5390  16.648  18.427   8.329  0.1745  0.0037  0.0589
  439YOPC   NC3 5391  12.716   4.154   9.979 -0.0812 -0.2557  0.2763
  439YOPC   PO4 5392  13.133   4.239  10.092 -0.1375 -0.1022 -0.2147
  439YOPC   GL1 5393  13.052   4.179   9.629 -0.1362 -0.1589  0.0982
  439YOPC   GL2 5394  12.779   4.366   9.469 -0.3730 -0.0090 -0.1227
  439YOPC   C1A 5395  13.054   4.072   9.160 -0.0162 -0.1163 -0.1785
  439YOPC   D2A 5396  13.199   4.245   8.805  0.1392 -0.1603  0.3702
  439YOPC   C3A 5397  13.037   4.063   8.434  0.1529 -0.2830 -0.1695
  439YOPC   C4A 5398  12.699   3.938   8.278 -0.0476  0.0473  0.3179
  439YOPC   C1B 5399  12.643   4.398   9.052  0.1028  0.0176 -0.3060
  439YOPC   C2B 5400  12.581   4.177   8.737  0.0395  0.0619 -0.0546
  439YOPC   D3B 5401  12.222   4.256   8.532 -0.1844  0.0661 -0.0082
  439YOPC   C4B 5402  12.068   4.264   8.174  0.0198  0.0562  0.0589
  440YOPC   NC3 5403  15.443   3.621  10.552 -0.1265 -0.0450 -0.0757
  440YOPC   PO4 5404  15.407   3.981  10.268 -0.0152  0.1641  0.0466
  440YOPC   GL1 5405  15.314   3.726   9.928  0.0436  0.3312  0.0772
  440YOPC   GL2 5406  15.074   4.007   9.757 -0.2910 -0.2915 -0.1557
  440YOPC   C1A 5407  15.403   3.520   9.478 -0.3819 -0.1269  0.0868
  440YOPC   D2A 5408  15.316   3.559   9.055 -0.0111  0.0004  0.3316
  440YOPC   C3A 5409  15.533   3.629   8.706 -0.1789  0.0278  0.0578
  440YOPC   C4A 5410  15.881   3.387   8.534 -0.0339  0.2878 -0.0542
  440YOPC   C1B 5411  15.100   3.871   9.357 -0.0013 -0.0891 -0.0089
  440YOPC   C2B 5412  15.032   3.963   8.922  0.1042 -0.2594 -0.1279
  440YOPC   D3B 5413  14.774   4.187   8.682  0.3159 -0.0253 -0.0884
  440YOPC   C4B 5414  14.706   4.061   8.321 -0.3398 -0.1966 -0.2272
  441YOPC   NC3 5415  16.774  12.507  10.288  0.0216  0.0502 -0.0578
  441YOPC   PO4 5416  16.343  12.639  10.264  0.0539 -0.0755  0.0482
  441YOPC   GL1 5417  16.357  12.846   9.888 -0.0327 -0.0747 -0.0359
  441YOPC   GL2 5418  16.219  12.672   9.684  0.1234 -0.0442 -0.1445
  441YOPC   C1A 5419  16.540  12.969   9.503 -0.1627 -0.0382 -0.1762
  441YOPC   D2A 5420  16.288  12.923   9.164 -0.2621 -0.2640  0.2807
  441YOPC   C3A 5421  16.302  12.740   8.748  0.1866 -0.1933  0.2477
  441YOPC   C4A 5422  16.097  12.430   8.347  0.2206 -0.1831 -0.2730
  441YOPC   C1B 5423  15.997  12.582   9.328  0.2304  0.3424 -0.1640
  441YOPC   C2B 5424  15.911  12.413   8.960  0.0157  0.0320  0.2073
  441YOPC   D3B 5425  15.647  12.296   8.737  0.1077 -0.0202 -0.0681
  441YOPC   C4B 5426  15.601  12.005   8.431  0.0150 -0.2421 -0.4506
  442YOPC   NC3 5427  14.591  13.533   9.864  0.0706 -0.0026  0.3996
  442YOPC   PO4 5428  15.052  13.738   9.946  0.1352  0.0797 -0.0043
  442YOPC   GL1 5429  15.111  13.400   9.620 -0.0287  0.0599 -0.2069
  442YOPC   GL2 5430  14.856  13.367   9.497 -0.0683 -0.1333 -0.0445
  442YOPC   C1A 5431  15.322  13.469   9.254  0.0231 -0.2090  0.0946
  442YOPC   D2A 5432  15.397  13.207   8.948  0.0415  0.0568  0.1472
  442YOPC   C3A 5433  15.527  13.369   8.627  0.1499  0.0630  0.2493
  442YOPC   C4A 5434  15.790  13.457   8.330 -0.0180  0.0395 -0.1097
  442YOPC   C1B 5435  14.840  13.523   9.101 -0.0957  0.0945 -0.0535
  442YOPC   C2B 5436  14.532  13.298   8.799 -0.1010  0.0472 -0.0387
  442YOPC   D3B 5437  14.299  12.894   8.933 -0.1198  0.0929  0.0758
  442YOPC   C4B 5438  14.026  12.529   8.822  0.0832 -0.0330  0.2226
  443YOPC   NC3 5439  17.196  10.689  11.110  0.0431  0.1403 -0.0135
  443YOPC   PO4 5440  17.184  10.859  10.663 -0.0616 -0.0844  0.0649
  443YOPC   GL1 5441  17.094  10.909  10.192  0.0998 -0.1599 -0.2151
  443YOPC   GL2 5442  16.916  11.175   9.903 -0.1976 -0.2122 -0.0349
  443YOPC   C1A 5443  17.351  11.055   9.759  0.3177  0.2847 -0.2738
  443YOPC   D2A 5444  17.628  10.923   9.398  0.3734  0.0594 -0.1993
  443YOPC   C3A 5445  17.413  11.060   9.034  0.2584 -0.2123  0.1642
  443YOPC   C4A 5446  17.071  11.077   8.928  0.0050 -0.0041 -0.2042
  443YOPC   C1B 5447  16.583  11.189   9.562 -0.3185 -0.0128 -0.1116
  443YOPC   C2B 5448  16.302  11.154   9.207  0.1193 -0.0629 -0.0910
  443YOPC   D3B 5449  15.997  10.809   9.191 -0.0251  0.1718  0.5803
  443YOPC   C4B 5450  15.605  10.960   8.926  0.2432 -0.0451  0.2703
  444YOPC   NC3 5451   5.623   4.044   9.958  0.1688  0.0199  0.1113
  444YOPC   PO4 5452   5.207   3.853  10.058  0.2450  0.1567  0.1883
  444YOPC   GL1 5453   5.136   4.114   9.723  0.4553 -0.2127  0.2062
  444YOPC   GL2 5454   5.205   4.373   9.816 -0.0556 -0.2649  0.3803
  444YOPC   C1A 5455   5.368   4.132   9.300  0.2909 -0.1470 -0.3228
  444YOPC   D2A 5456   5.787   4.087   9.160 -0.0602 -0.0030 -0.0915
  444YOPC   C3A 5457   5.926   4.043   8.680 -0.2289 -0.1121 -0.1676
  444YOPC   C4A 5458   5.983   3.889   8.308  0.1418  0.2097 -0.1144
  444YOPC   C1B 5459   4.927   4.379   9.375 -0.1408  0.0882  0.0309
  444YOPC   C2B 5460   4.765   4.194   8.978 -0.2718 -0.2385 -0.0960
  444YOPC   D3B 5461   4.557   3.784   8.979 -0.2079  0.1544  0.1239
  444YOPC   C4B 5462   4.305   3.469   8.764 -0.0136  0.5605  0.2100
  445YOPC   NC3 5463  11.272  11.462  10.181  0.3263  0.0442  0.1127
  445YOPC   PO4 5464  11.673  11.314  10.266  0.0102 -0.1807 -0.0575
  445YOPC   GL1 5465  11.624  11.442   9.811 -0.0261 -0.2043 -0.0530
  445YOPC   GL2 5466  11.410  11.735   9.711  0.2724  0.1673 -0.0129
  445YOPC   C1A 5467  11.808  11.538   9.407  0.2478 -0.2409  0.0930
  445YOPC   D2A 5468  11.733  11.869   9.158  0.0950  0.0721 -0.1699
  445YOPC   C3A 5469  11.652  11.852   8.758  0.1460 -0.2936 -0.0263
  445YOPC   C4A 5470  11.588  11.737   8.353 -0.0024  0.1764  0.0467
  445YOPC   C1B 5471  11.327  12.018   9.345  0.1335  0.2352 -0.0240
  445YOPC   C2B 5472  11.272  12.053   8.958  0.2422 -0.1612 -0.2171
  445YOPC   D3B 5473  11.143  11.827   8.659 -0.1015 -0.1087  0.0360
  445YOPC   C4B 5474  11.069  11.959   8.165  0.1103 -0.0952  0.0823
  446YOPC   NC3 5475   0.478  12.799  10.080 -0.0538 -0.3186 -0.0287
  446YOPC   PO4 5476   0.774  13.113  10.187 -0.0885 -0.0494  0.1613
  446YOPC   GL1 5477   0.568  13.276   9.912 -0.1725  0.0782  0.1481
  446YOPC   GL2 5478   0.352  13.087   9.690  0.0367 -0.2794  0.0844
  446YOPC   C1A 5479   0.678  13.349   9.329  0.1780  0.1222  0.0996
  446YOPC   D2A 5480   0.926  13.332   8.992  0.2832  0.0231  0.0487
  446YOPC   C3A 5481   0.688  13.399   8.706 -0.1083 -0.2125 -0.3074
  446YOPC   C4A 5482   0.547  13.502   8.311  0.1299 -0.0121 -0.1560
  446YOPC   C1B 5483   0.243  13.062   9.279  0.1418 -0.1797  0.0043
  446YOPC   C2B 5484   0.313  12.941   8.894 -0.1529  0.1734 -0.0104
  446YOPC   D3B 5485   0.357  13.091   8.443 -0.4590  0.2128 -0.1938
  446YOPC   C4B 5486   0.334  13.058   7.958  0.0299  0.3052  0.0752
  447YOPC   NC3 5487   4.093  10.222  10.057 -0.1028  0.1262 -0.1012
  447YOPC   PO4 5488   4.507  10.230  10.029 -0.1776  0.1430 -0.0315
  447YOPC   GL1 5489   4.431  10.109   9.665  0.0856  0.3496 -0.1762
  447YOPC   GL2 5490   4.158  10.034   9.640  0.2282 -0.0003  0.2262
  447YOPC   C1A 5491   4.525  10.125   9.289 -0.3180  0.1301  0.1140
  447YOPC   D2A 5492   4.459   9.821   8.983  0.1386  0.0451  0.0517
  447YOPC   C3A 5493   4.700   9.729   8.583 -0.0583 -0.0008  0.0680
  447YOPC   C4A 5494   4.773   9.713   8.162 -0.1160 -0.4537  0.0599
  447YOPC   C1B 5495   4.042  10.395   9.366 -0.0853  0.2419 -0.3362
  447YOPC   C2B 5496   3.893  10.728   9.050  0.0363 -0.2228  0.2554
  447YOPC   D3B 5497   3.618  10.627   8.656 -0.2648  0.0387  0.2561
  447YOPC   C4B 5498   3.460  10.580   8.289 -0.0201 -0.1461 -0.0674
  448YOPC   NC3 5499  17.655  11.008  10.515  0.2589 -0.2491 -0.1635
  448YOPC   PO4 5500  17.969  10.666  10.425 -0.2511 -0.0573 -0.0048
  448YOPC   GL1 5501  18.070  10.345  10.071  0.1494 -0.2820 -0.1121
  448YOPC   GL2 5502  17.854  10.166  10.100 -0.4362  0.1048 -0.0667
  448YOPC   C1A 5503  17.965  10.376   9.636 -0.1513 -0.0002  0.0459
  448YOPC   D2A 5504  17.945  10.473   9.238 -0.0572 -0.0951 -0.2277
  448YOPC   C3A 5505  18.148  10.249   8.953  0.2720 -0.0878 -0.0966
  448YOPC   C4A 5506  18.168  10.150   8.502  0.2089  0.0664 -0.0246
  448YOPC   C1B 5507  17.656   9.962   9.701  0.1522  0.0653 -0.0491
  448YOPC   C2B 5508  17.512   9.556   9.464 -0.1081 -0.0119  0.0504
  448YOPC   D3B 5509  17.518   9.652   9.064 -0.1727  0.1381  0.0775
  448YOPC   C4B 5510  17.759   9.927   8.769  0.1381  0.1824 -0.2216
  449YOPC   NC3 5511   1.052   8.517  10.888 -0.0178 -0.0083  0.0550
  449YOPC   PO4 5512   1.063   8.548  10.482  0.1909 -0.1441 -0.4370
  449YOPC   GL1 5513   1.000   8.686  10.143 -0.2409  0.0865 -0.0914
  449YOPC   GL2 5514   0.727   8.556  10.048  0.3942 -0.1100 -0.2040
  449YOPC   C1A 5515   1.019   8.626   9.642  0.0931  0.0021 -0.0595
  449YOPC   D2A 5516   1.246   8.857   9.343  0.0170  0.0847  0.2049
  449YOPC   C3A 5517   1.044   9.040   8.949  0.0229 -0.3609 -0.2522
  449YOPC   C4A 5518   0.693   9.319   8.710  0.1634 -0.3854  0.1332
  449YOPC   C1B 5519   0.504   8.525   9.621 -0.0666 -0.2375 -0.2587
  449YOPC   C2B 5520   0.294   8.527   9.247  0.1970  0.6332 -0.1729
  449YOPC   D3B 5521   0.211   8.324   8.748  0.1226 -0.1743 -0.0277
  449YOPC   C4B 5522   0.057   8.525   8.226  0.0959  0.2827  0.3671
  450YOPC   NC3 5523  16.634   8.906  10.805 -0.1408 -0.2949  0.0274
  450YOPC   PO4 5524  16.556   8.840  10.314  0.2624  0.1524  0.3032
  450YOPC   GL1 5525  16.712   8.909   9.946 -0.0765  0.1641 -0.2088
  450YOPC   GL2 5526  17.068   9.046   9.908 -0.1599 -0.0277  0.3002
  450YOPC   C1A 5527  16.872   8.795   9.501 -0.1877 -0.0493  0.0547
  450YOPC   D2A 5528  17.194   8.686   9.215 -0.0590 -0.0765 -0.1123
  450YOPC   C3A 5529  17.437   8.751   8.931  0.2648 -0.1316 -0.1626
  450YOPC   C4A 5530  17.658   8.575   8.527  0.0468  0.2319  0.2729
  450YOPC   C1B 5531  17.260   9.132   9.524 -0.0361 -0.1214  0.0265
  450YOPC   C2B 5532  17.273   9.194   9.104  0.0190  0.1353  0.1189
  450YOPC   D3B 5533  17.395   9.280   8.727  0.2850  0.0770  0.1823
  450YOPC   C4B 5534  17.410   9.685   8.512  0.2014 -0.3261  0.0071
  451YOPC   NC3 5535  10.800   2.466   9.979 -0.0457 -0.0836  0.0957
  451YOPC   PO4 5536  10.428   2.414  10.024 -0.2461  0.1359  0.0629
  451YOPC   GL1 5537  10.560   2.393   9.473 -0.0448 -0.0462  0.0289
  451YOPC   GL2 5538  10.407   2.493   9.246  0.4036  0.1115 -0.1962
  451YOPC   C1A 5539  10.634   2.113   9.030 -0.1193 -0.0695  0.0296
  451YOPC   D2A 5540  10.867   1.727   8.912 -0.1682  0.1893 -0.0689
  451YOPC   C3A 5541  10.801   1.339   8.739 -0.1230 -0.0222  0.0957
  451YOPC   C4A 5542  10.470   1.057   8.540 -0.0558  0.1289 -0.3006
  451YOPC   C1B 5543  10.300   2.637   8.865  0.0651  0.1016  0.2319
  451YOPC   C2B 5544  10.243   2.783   8.484 -0.0737  0.1173  0.2440
  451YOPC   D3B 5545   9.852   2.642   8.201  0.1187 -0.1933 -0.1307
  451YOPC   C4B 5546   9.628   2.706   7.797  0.2045 -0.1825  0.1589
  452YOPC   NC3 5547   1.664   8.489  10.243  0.0411  0.0072  0.1335
  452YOPC   PO4 5548   1.742   8.880  10.334 -0.4116  0.2880 -0.1639
  452YOPC   GL1 5549   2.110   8.931  10.078 -0.1099  0.0815  0.0600
  452YOPC   GL2 5550   2.453   9.265  10.113 -0.3533 -0.0117 -0.1100
  452YOPC   C1A 5551   1.998   8.771   9.703 -0.1339  0.0451  0.1557
  452YOPC   D2A 5552   1.786   8.650   9.447 -0.1153  0.0937  0.0169
  452YOPC   C3A 5553   1.917   8.503   9.005  0.1005  0.2492  0.1138
  452YOPC   C4A 5554   1.959   8.308   8.654 -0.3566  0.1556 -0.0651
  452YOPC   C1B 5555   2.201   9.279   9.732  0.1639 -0.1804  0.3043
  452YOPC   C2B 5556   2.338   9.229   9.200 -0.0382 -0.3027 -0.2262
  452YOPC   D3B 5557   2.188   9.562   8.931 -0.1879 -0.3736  0.0193
  452YOPC   C4B 5558   2.329   9.614   8.530 -0.0000 -0.1661 -0.0033
  453YOPC   NC3 5559  17.982  13.968   9.843 -0.0027  0.3542 -0.0527
  453YOPC   PO4 5560  18.350  13.906  10.023 -0.2905  0.2501 -0.1231
  453YOPC   GL1 5561  18.406  14.132   9.643 -0.2281 -0.1285  0.3729
  453YOPC   GL2 5562  18.193  14.228   9.477  0.1923 -0.0982  0.1499
  453YOPC   C1A 5563  18.675  14.383   9.346  0.0362 -0.1735 -0.5261
  453YOPC   D2A 5564  18.736  14.451   8.882 -0.2938 -0.3730 -0.0527
  453YOPC   C3A 5565  18.617  14.390   8.529  0.1582 -0.3515  0.3606
  453YOPC   C4A 5566  18.430  14.691   8.277 -0.0348 -0.1457 -0.2007
  453YOPC   C1B 5567  18.211  14.357   9.135  0.1853  0.3098  0.1814
  453YOPC   C2B 5568  18.108  14.587   8.709 -0.1301  0.0567  0.1800
  453YOPC   D3B 5569  18.087  14.337   8.295  0.1440  0.2240 -0.0200
  453YOPC   C4B 5570  18.417  14.317   7.959 -0.2091 -0.0077  0.3317
  454YOPC   NC3 5571   2.974   6.488  10.049 -0.1328  0.0730  0.0029
  454YOPC   PO4 5572   2.701   6.271  10.280  0.0236  0.3762  0.1783
  454YOPC   GL1 5573   2.499   6.424   9.972 -0.0472  0.0756  0.1535
  454YOPC   GL2 5574   2.146   6.423   9.812  0.1613  0.1780 -0.1524
  454YOPC   C1A 5575   2.515   6.396   9.475 -0.0264  0.2441  0.0792
  454YOPC   D2A 5576   2.373   6.624   9.112 -0.0388 -0.1319 -0.0748
  454YOPC   C3A 5577   2.109   6.374   8.794  0.0267  0.4963  0.1360
  454YOPC   C4A 5578   1.847   5.983   8.632  0.1951  0.1892  0.2487
  454YOPC   C1B 5579   1.881   6.358   9.369 -0.0740 -0.1482  0.0467
  454YOPC   C2B 5580   1.670   6.550   8.976  0.1363  0.0425  0.0970
  454YOPC   D3B 5581   1.424   6.282   8.731  0.2567  0.0330 -0.2631
  454YOPC   C4B 5582   1.312   6.106   8.459 -0.0763 -0.1803 -0.0971
  455YOPC   NC3 5583   2.917  12.790   9.991 -0.0376 -0.1024  0.0150
  455YOPC   PO4 5584   2.467  12.894   9.970  0.0455  0.1997 -0.1834
  455YOPC   GL1 5585   2.225  12.721   9.688 -0.0618  0.4574  0.1961
  455YOPC   GL2 5586   2.104  12.866   9.510 -0.2343 -0.0742  0.1505
  455YOPC   C1A 5587   2.196  12.415   9.343  0.0552 -0.1746  0.1807
  455YOPC   D2A 5588   2.146  12.360   8.859 -0.2242 -0.0608 -0.1370
  455YOPC   C3A 5589   2.304  12.458   8.509  0.0285  0.0986 -0.2772
  455YOPC   C4A 5590   2.263  12.467   8.150  0.0329  0.3559 -0.3127
  455YOPC   C1B 5591   2.125  12.847   9.031  0.0220 -0.1776  0.1463
  455YOPC   C2B 5592   2.133  12.943   8.491  0.2709 -0.2704 -0.2724
  455YOPC   D3B 5593   2.368  13.254   8.323  0.0260  0.3256 -0.1607
  455YOPC   C4B 5594   2.429  13.373   7.912  0.0006  0.3765  0.1718
  456YOPC   NC3 5595  14.858   6.616  10.840  0.2076 -0.1743 -0.1432
  456YOPC   PO4 5596  15.270   6.596  10.667 -0.0321 -0.0447 -0.1761
  456YOPC   GL1 5597  15.478   6.535  10.247  0.1781  0.0798 -0.2119
  456YOPC   GL2 5598  15.480   6.296  10.084  0.1381  0.0949 -0.1618
  456YOPC   C1A 5599  15.493   6.720   9.848 -0.0779  0.0974 -0.3193
  456YOPC   D2A 5600  15.357   6.719   9.479 -0.1671  0.3357 -0.1512
  456YOPC   C3A 5601  15.499   7.054   9.282  0.1252 -0.0582  0.1914
  456YOPC   C4A 5602  15.574   7.327   9.066 -0.0019 -0.0409 -0.0207
  456YOPC   C1B 5603  15.536   6.247   9.638  0.1265  0.1936 -0.0845
  456YOPC   C2B 5604  15.347   6.255   9.210 -0.0190 -0.1261  0.0443
  456YOPC   D3B 5605  15.317   6.634   8.966  0.2875 -0.1627 -0.2768
  456YOPC   C4B 5606  15.354   6.914   8.735 -0.2232 -0.1740 -0.0037
  457YOPC   NC3 5607  18.446  10.409  10.494 -0.0156  0.0782  0.0481
  457YOPC   PO4 5608  18.641  10.460  10.226  0.2158 -0.0639 -0.1286
  457YOPC   GL1 5609  18.955  10.614   9.919 -0.0327  0.1803  0.2259
  457YOPC   GL2 5610  19.204  10.694  10.137 -0.0329  0.3439 -0.1515
  457YOPC   C1A 5611  19.078  10.599   9.448 -0.5479  0.0386 -0.0606
  457YOPC   D2A 5612  19.174  10.807   9.170  0.1112 -0.1591 -0.0578
  457YOPC   C3A 5613  18.994  10.812   8.720  0.5274  0.0615  0.0835
  457YOPC   C4A 5614  18.708  11.064   8.392  0.1647  0.4688  0.0142
  457YOPC   C1B 5615  19.357  10.300   9.998 -0.2553  0.3060  0.0251
  457YOPC   C2B 5616  19.550  10.055   9.664 -0.2558 -0.0128 -0.4031
  457YOPC   D3B 5617  19.801   9.651   9.686  0.3375 -0.0381 -0.1438
  457YOPC   C4B 5618  19.598   9.216   9.775 -0.0150 -0.2406  0.1857
  458YOPC   NC3 5619   5.855   7.142  10.199 -0.0228  0.3720  0.0456
  458YOPC   PO4 5620   5.504   7.192   9.938 -0.1951  0.0044  0.0825
  458YOPC   GL1 5621   5.556   7.471   9.586  0.0062 -0.0336  0.1439
  458YOPC   GL2 5622   5.112   7.514   9.465  0.2005 -0.1848  0.0153
  458YOPC   C1A 5623   5.711   7.673   9.237  0.0483  0.0483 -0.1859
  458YOPC   D2A 5624   5.673   7.820   8.835 -0.1546 -0.1389  0.0742
  458YOPC   C3A 5625   5.440   8.160   8.775 -0.3909  0.1947  0.0677
  458YOPC   C4A 5626   5.324   8.398   8.435 -0.4272  0.1336 -0.3090
  458YOPC   C1B 5627   4.981   7.422   9.009  0.0081 -0.1370 -0.1032
  458YOPC   C2B 5628   4.762   7.540   8.597 -0.1198  0.2447  0.0020
  458YOPC   D3B 5629   5.067   7.492   8.349 -0.2793 -0.0790  0.0025
  458YOPC   C4B 5630   5.293   7.477   8.033 -0.0297 -0.1852  0.2016
  459YOPC   NC3 5631   6.355   0.796  10.284  0.1799  0.1980  0.1882
  459YOPC   PO4 5632   6.735   1.128  10.332  0.2418 -0.0293 -0.0730
  459YOPC   GL1 5633   6.736   1.160   9.898  0.2075 -0.0849  0.1444
  459YOPC   GL2 5634   6.920   1.440   9.694 -0.2965 -0.1412  0.2609
  459YOPC   C1A 5635   6.743   1.028   9.435 -0.1403 -0.0504 -0.0677
  459YOPC   D2A 5636   6.792   0.957   9.066  0.1507  0.1903 -0.0534
  459YOPC   C3A 5637   7.172   0.941   8.763  0.1544  0.2519 -0.1430
  459YOPC   C4A 5638   7.252   0.984   8.426  0.3033 -0.0726  0.1984
  459YOPC   C1B 5639   6.769   1.506   9.227  0.3143 -0.0636  0.1126
  459YOPC   C2B 5640   6.896   1.333   8.779 -0.1229 -0.0514 -0.2675
  459YOPC   D3B 5641   6.757   1.619   8.498 -0.1621 -0.0669  0.0445
  459YOPC   C4B 5642   6.945   1.825   8.213  0.0019  0.1799 -0.2567
  460YOPC   NC3 5643  13.302  16.951  10.216  0.3227  0.1311 -0.0885
  460YOPC   PO4 5644  13.330  16.654   9.932  0.0559  0.0998 -0.0968
  460YOPC   GL1 5645  13.471  16.641   9.551  0.0266  0.4363  0.0329
  460YOPC   GL2 5646  13.440  16.863   9.376  0.0281 -0.2773 -0.0300
  460YOPC   C1A 5647  13.147  16.503   9.229 -0.0844 -0.4059 -0.2663
  460YOPC   D2A 5648  13.101  16.519   8.820 -0.4199  0.2344  0.2605
  460YOPC   C3A 5649  12.952  16.643   8.449  0.0792  0.1007 -0.1000
  460YOPC   C4A 5650  12.855  16.789   7.963 -0.0945 -0.1594 -0.1110
  460YOPC   C1B 5651  13.308  17.034   8.943  0.0337  0.1034 -0.1993
  460YOPC   C2B 5652  13.315  17.165   8.445 -0.0270 -0.0956 -0.1850
  460YOPC   D3B 5653  13.416  16.866   8.145  0.0292 -0.3650  0.0425
  460YOPC   C4B 5654  13.664  17.073   7.850 -0.0172 -0.1303  0.1933
  461YOPC   NC3 5655   9.469   1.893  10.145  0.0845 -0.0568 -0.3509
  461YOPC   PO4 5656   9.306   2.260   9.849 -0.3981 -0.2029 -0.0755
  461YOPC   GL1 5657   9.497   2.579   9.502  0.0689 -0.0425  0.1558
  461YOPC   GL2 5658   9.666   2.890   9.552 -0.2311 -0.0638  0.5313
  461YOPC   C1A 5659   9.865   2.514   9.218 -0.0170 -0.0179 -0.0108
  461YOPC   D2A 5660  10.110   2.097   9.020 -0.1539 -0.2709  0.1793
  461YOPC   C3A 5661  10.312   2.165   8.561 -0.2696 -0.0796 -0.2018
  461YOPC   C4A 5662  10.183   2.282   8.144  0.3858 -0.3384 -0.2473
  461YOPC   C1B 5663   9.563   2.926   9.035 -0.0079  0.2149  0.0420
  461YOPC   C2B 5664   9.757   2.706   8.782 -0.1787 -0.0586  0.1810
  461YOPC   D3B 5665   9.863   2.300   8.680  0.0602 -0.1141 -0.0228
  461YOPC   C4B 5666   9.749   2.142   8.328 -0.0394  0.0329 -0.0094
  462YOPC   NC3 5667  14.981  17.530   9.810 -0.1038  0.1401 -0.1903
  462YOPC   PO4 5668  14.850  17.106   9.939 -0.0253  0.0175 -0.3521
  462YOPC   GL1 5669  14.669  17.056   9.554 -0.2804  0.0732 -0.2558
  462YOPC   GL2 5670  14.414  17.095   9.365  0.1668  0.0826  0.1690
  462YOPC   C1A 5671  14.978  17.010   9.201  0.1513 -0.2681  0.0798
  462YOPC   D2A 5672  15.311  16.865   8.909  0.0313 -0.2158 -0.2205
  462YOPC   C3A 5673  15.109  16.870   8.555 -0.2474 -0.1564  0.0227
  462YOPC   C4A 5674  15.133  16.711   8.247 -0.1269  0.1427  0.2221
  462YOPC   C1B 5675  14.525  17.165   8.947 -0.0390 -0.0681  0.0583
  462YOPC   C2B 5676  14.803  17.186   8.720 -0.1144 -0.0424  0.1076
  462YOPC   D3B 5677  14.745  17.054   8.202  0.1269  0.0524  0.1570
  462YOPC   C4B 5678  14.606  17.122   7.804  0.0923  0.3221  0.1850
  463YOPC   NC3 5679   3.910   9.217  10.523 -0.3841 -0.0219  0.4263
  463YOPC   PO4 5680   3.875   9.340  10.141 -0.4898 -0.1263  0.1504
  463YOPC   GL1 5681   4.030   9.488   9.761 -0.0585 -0.0312 -0.2196
  463YOPC   GL2 5682   3.775   9.328   9.654 -0.0754 -0.0983 -0.0633
  463YOPC   C1A 5683   4.084   9.663   9.283 -0.2194 -0.0202  0.1657
  463YOPC   D2A 5684   3.902   9.693   8.856  0.3324  0.0891 -0.1919
  463YOPC   C3A 5685   4.118   9.832   8.549  0.0079 -0.2005  0.1436
  463YOPC   C4A 5686   4.305   9.935   8.113 -0.0070  0.2015 -0.0418
  463YOPC   C1B 5687   3.861   9.250   9.117  0.0132 -0.1939 -0.1379
  463YOPC   C2B 5688   3.674   9.155   8.716 -0.2410 -0.2819 -0.0985
  463YOPC   D3B 5689   3.795   9.438   8.402 -0.3205 -0.0077  0.1104
  463YOPC   C4B 5690   3.866   9.609   8.036 -0.1146  0.3377 -0.0060
  464YOPC   NC3 5691  13.211  14.236  10.393  0.2826  0.2066 -0.3487
  464YOPC   PO4 5692  13.250  13.863  10.162  0.0225  0.1985 -0.1724
  464YOPC   GL1 5693  13.171  13.844   9.726  0.3495  0.2072  0.1157
  464YOPC   GL2 5694  13.204  13.498   9.678 -0.0071 -0.0096  0.0973
  464YOPC   C1A 5695  12.984  13.904   9.413  0.2132  0.0408  0.1910
  464YOPC   D2A 5696  12.730  14.167   9.242  0.1426 -0.3374 -0.1040
  464YOPC   C3A 5697  12.735  14.194   8.811 -0.1313  0.1964  0.0533
  464YOPC   C4A 5698  12.987  14.155   8.424  0.2056 -0.2812  0.1630
  464YOPC   C1B 5699  13.179  13.477   9.262 -0.6181  0.1359 -0.1538
  464YOPC   C2B 5700  13.188  13.280   8.884 -0.1978  0.1925  0.2157
  464YOPC   D3B 5701  12.854  13.115   8.703  0.1478 -0.1615  0.0596
  464YOPC   C4B 5702  12.626  13.077   8.322 -0.2240 -0.1022  0.0899
  465YOPC   NC3 5703  12.031  16.480  10.508  0.0322 -0.1222  0.1411
  465YOPC   PO4 5704  11.962  16.484  10.041  0.1262 -0.0937  0.0143
  465YOPC   GL1 5705  12.023  16.818   9.752  0.1814  0.1110 -0.1314
  465YOPC   GL2 5706  12.314  16.988   9.718 -0.0728  0.2484 -0.2341
  465YOPC   C1A 5707  12.010  16.759   9.289 -0.0115  0.2899 -0.3512
  465YOPC   D2A 5708  11.967  16.637   8.887 -0.0682 -0.1044 -0.0926
  465YOPC   C3A 5709  11.901  16.455   8.562 -0.1208  0.2400 -0.1703
  465YOPC   C4A 5710  11.649  16.152   8.731  0.0311  0.0170 -0.0001
  465YOPC   C1B 5711  12.496  16.709   9.416  0.0777  0.5111  0.0682
  465YOPC   C2B 5712  12.681  16.489   9.185 -0.0520  0.3526  0.3079
  465YOPC   D3B 5713  12.611  16.663   8.775  0.2080 -0.1968  0.1102
  465YOPC   C4B 5714  12.486  16.611   8.397  0.1341 -0.2455 -0.0148
  466YOPC   NC3 5715  11.372   4.510  10.293  0.0310  0.2166 -0.1628
  466YOPC   PO4 5716  11.104   4.742  10.401 -0.2727  0.0161 -0.0670
  466YOPC   GL1 5717  10.985   4.650   9.877 -0.2669  0.2186  0.0762
  466YOPC   GL2 5718  11.175   4.439   9.816  0.0558  0.2854  0.2530
  466YOPC   C1A 5719  10.879   4.601   9.456  0.2057  0.1386  0.0923
  466YOPC   D2A 5720  10.671   4.402   9.154  0.1253  0.1169  0.3419
  466YOPC   C3A 5721  10.753   4.513   8.726 -0.2750  0.3141  0.0273
  466YOPC   C4A 5722  10.684   4.369   8.318  0.2296 -0.1625  0.1553
  466YOPC   C1B 5723  11.549   4.216   9.556 -0.1866  0.1908 -0.0388
  466YOPC   C2B 5724  11.859   4.043   9.279 -0.0797 -0.2237 -0.1676
  466YOPC   D3B 5725  11.765   3.990   8.835  0.1187  0.1367  0.1744
  466YOPC   C4B 5726  11.689   4.024   8.429 -0.2774 -0.1130  0.3665
  467YOPC   NC3 5727   0.146  12.036  10.461 -0.4357  0.1677 -0.1459
  467YOPC   PO4 5728  -0.195  12.127  10.250  0.1857  0.3216 -0.1373
  467YOPC   GL1 5729  -0.475  11.995   9.852  0.1995 -0.1259 -0.1057
  467YOPC   GL2 5730  -0.359  11.712   9.770 -0.2084 -0.1259 -0.1950
  467YOPC   C1A 5731  -0.605  11.934   9.361  0.0072  0.0040 -0.0870
  467YOPC   D2A 5732  -0.736  11.926   8.925  0.0074 -0.1589 -0.1591
  467YOPC   C3A 5733  -0.808  11.646   8.686  0.0412 -0.2491 -0.1283
  467YOPC   C4A 5734  -0.578  11.407   8.377 -0.1584 -0.1713 -0.0659
  467YOPC   C1B 5735  -0.766  11.559   9.792 -0.2640 -0.2871 -0.0985
  467YOPC   C2B 5736  -1.014  11.645   9.550  0.1142 -0.2687 -0.0868
  467YOPC   D3B 5737  -1.225  11.662   9.134 -0.0167  0.2026 -0.1061
  467YOPC   C4B 5738  -1.347  11.458   8.707  0.2185 -0.0658 -0.0136
  468YOPC   NC3 5739   6.528  14.177   9.949 -0.1297 -0.1236 -0.0958
  468YOPC   PO4 5740   6.989  14.235   9.967 -0.3059  0.1519 -0.0911
  468YOPC   GL1 5741   7.024  14.270   9.591 -0.0107  0.0882  0.2175
  468YOPC   GL2 5742   7.215  14.546   9.551 -0.4275 -0.0769  0.2613
  468YOPC   C1A 5743   6.876  14.375   9.161  0.1724  0.0743  0.1591
  468YOPC   D2A 5744   6.487  14.533   8.977  0.1742  0.0288  0.3504
  468YOPC   C3A 5745   6.531  14.933   8.708 -0.2179 -0.0158  0.1208
  468YOPC   C4A 5746   6.650  15.229   8.348 -0.3506 -0.0661 -0.2080
  468YOPC   C1B 5747   7.413  14.356   9.217  0.2422  0.2645 -0.1040
  468YOPC   C2B 5748   7.253  14.267   8.821 -0.0554 -0.0574 -0.1429
  468YOPC   D3B 5749   6.868  14.460   8.669  0.3833 -0.0362  0.1566
  468YOPC   C4B 5750   6.621  14.603   8.264  0.0512 -0.2082  0.1802
  469YOPC   NC3 5751   6.382  12.171  10.718 -0.2751  0.1266 -0.3714
  469YOPC   PO4 5752   6.315  12.111  10.263 -0.3748  0.2866 -0.0470
  469YOPC   GL1 5753   6.259  12.128   9.870 -0.0811  0.1195 -0.1866
  469YOPC   GL2 5754   6.384  12.363   9.588  0.2377  0.0396 -0.0866
  469YOPC   C1A 5755   5.976  12.086   9.439 -0.2828 -0.0055  0.0381
  469YOPC   D2A 5756   5.907  12.189   8.996 -0.2139 -0.4629 -0.2140
  469YOPC   C3A 5757   5.627  12.013   8.758 -0.0279  0.3796  0.3246
  469YOPC   C4A 5758   5.598  11.725   8.365 -0.3643 -0.1768  0.0992
  469YOPC   C1B 5759   6.513  12.292   9.216  0.1299 -0.1493  0.0068
  469YOPC   C2B 5760   6.350  12.328   8.759 -0.2449  0.2599  0.1761
  469YOPC   D3B 5761   6.285  12.479   8.284 -0.1578 -0.3082  0.0425
  469YOPC   C4B 5762   6.489  12.482   7.853  0.0068 -0.0315 -0.0566
  470ERGO   ROH 5763   1.717   9.210   9.970 -0.0749 -0.0939  0.0171
  470ERGO    R1 5764   1.649   9.163   9.700  0.0199 -0.0080 -0.0211
  470ERGO    R2 5765   1.684   9.353   9.502  0.3069 -0.0289  0.0143
  470ERGO    R3 5766   1.824   9.154   9.381  0.1767 -0.1554  0.0657
  470ERGO    R4 5767   1.758   9.339   9.164 -0.0594 -0.3660 -0.0614
  470ERGO    R5 5768   1.717   9.126   9.169 -0.0598 -0.3705  0.2024
  470ERGO    C1 5769   1.933   9.145   8.855 -0.3950 -0.6811 -0.0571
  470ERGO    C2 5770   2.167   9.140   8.590  0.4622  0.0220  0.3264
  471ERGO   ROH 5771   9.821  11.190   9.604  0.1179 -0.3768  0.0998
  471ERGO    R1 5772   9.981  11.287   9.392  0.1031 -0.1090  0.2074
  471ERGO    R2 5773  10.239  11.199   9.348  0.0852 -0.0867  0.0546
  471ERGO    R3 5774  10.145  11.147   9.099  0.0459  0.2643 -0.0094
  471ERGO    R4 5775  10.435  11.166   9.066  0.0950 -0.2085  0.0751
  471ERGO    R5 5776  10.285  11.277   8.954  0.3044  0.1401  0.1219
  471ERGO    C1 5777  10.461  11.098   8.667  0.0638  0.0501  0.0270
  471ERGO    C2 5778  10.496  10.980   8.219 -0.1206  0.0382 -0.1859
  472ERGO   ROH 5779  12.756  16.028   9.370  0.0284  0.1798  0.0406
  472ERGO    R1 5780  12.883  16.028   9.117  0.0103  0.0803  0.0301
  472ERGO    R2 5781  12.776  15.900   8.896 -0.0733  0.1038  0.0518
  472ERGO    R3 5782  12.804  16.145   8.782  0.0429  0.0762  0.0221
  472ERGO    R4 5783  12.780  15.960   8.556 -0.0281  0.0647  0.0462
  472ERGO    R5 5784  12.939  16.105   8.588  0.0331 -0.0051  0.0353
  472ERGO    C1 5785  12.808  16.224   8.250  0.1074  0.0159  0.0149
  472ERGO    C2 5786  12.625  16.329   8.009  0.3344 -0.0229 -0.0016
  473ERGO   ROH 5787   2.037  16.911   9.874  0.1713  0.0908  0.1048
  473ERGO    R1 5788   1.896  16.814   9.648  0.1442 -0.0202  0.1667
  473ERGO    R2 5789   1.966  16.881   9.389 -0.0868  0.1259  0.1316
  473ERGO    R3 5790   1.972  16.611   9.356  0.2103  0.1370  0.0758
  473ERGO    R4 5791   1.905  16.716   9.091  0.0435  0.1058  0.1168
  473ERGO    R5 5792   1.795  16.566   9.202  0.2362 -0.0387  0.1044
  473ERGO    C1 5793   1.876  16.367   8.887  0.3982  0.1046  0.0557
  473ERGO    C2 5794   1.789  16.327   8.589 -0.1619 -0.3291 -0.0708
  474ERGO   ROH 5795   0.950   5.746   9.824  0.1125  0.1046  0.1188
  474ERGO    R1 5796   1.075   5.569   9.641  0.1129  0.0160  0.2040
  474ERGO    R2 5797   1.095   5.297   9.687 -0.1080  0.0009  0.2210
  474ERGO    R3 5798   0.976   5.280   9.444  0.0431  0.0835  0.1401
  474ERGO    R4 5799   1.144   5.041   9.460 -0.1344 -0.0343  0.2544
  474ERGO    R5 5800   1.145   5.189   9.300  0.0762 -0.0351  0.2530
  474ERGO    C1 5801   1.060   4.877   9.098 -0.0081  0.0227  0.1980
  474ERGO    C2 5802   0.879   4.779   8.893 -0.0494 -0.1417  0.0553
  475ERGO   ROH 5803   4.738   6.573   9.729 -0.1458 -0.2717  0.1185
  475ERGO    R1 5804   4.813   6.572   9.456 -0.1615 -0.0954  0.1117
  475ERGO    R2 5805   4.789   6.348   9.296  0.0563 -0.0666  0.0293
  475ERGO    R3 5806   4.648   6.516   9.137 -0.1290 -0.1488  0.1053
  475ERGO    R4 5807   4.770   6.324   8.952  0.1086  0.0928  0.0148
  475ERGO    R5 5808   4.784   6.541   8.941 -0.1453  0.1139  0.1277
  475ERGO    C1 5809   4.626   6.468   8.602 -0.0350  0.1084  0.0777
  475ERGO    C2 5810   4.744   6.280   8.228 -0.4377  0.3722  0.0962
  476ERGO   ROH 5811   0.590   9.045  10.228  0.0077  0.0382 -0.0441
  476ERGO    R1 5812   0.644   9.142   9.967  0.1475 -0.1383 -0.0828
  476ERGO    R2 5813   0.719   8.976   9.759 -0.1565 -0.3408 -0.0373
  476ERGO    R3 5814   0.509   9.093   9.633  0.0237 -0.0186 -0.0510
  476ERGO    R4 5815   0.656   8.955   9.420 -0.2038 -0.3011 -0.0312
  476ERGO    R5 5816   0.598   9.165   9.423  0.1367 -0.2008 -0.0679
  476ERGO    C1 5817   0.421   9.052   9.104 -0.0621  0.0246 -0.0405
  476ERGO    C2 5818   0.372   8.900   8.846 -0.0730 -0.2286 -0.4256
  477ERGO   ROH 5819   1.629  14.827   9.603 -0.0361  0.1913  0.1054
  477ERGO    R1 5820   1.620  14.970   9.359 -0.1824  0.0921  0.0502
  477ERGO    R2 5821   1.738  15.218   9.327 -0.2883  0.1315 -0.0931
  477ERGO    R3 5822   1.862  15.097   9.118 -0.3184  0.0905 -0.0860
  477ERGO    R4 5823   1.762  15.349   9.008  0.0764  0.2740 -0.0119
  477ERGO    R5 5824   1.726  15.149   8.929 -0.1323  0.3685 -0.1422
  477ERGO    C1 5825   1.892  15.311   8.626  0.2605  0.3186  0.0421
  477ERGO    C2 5826   1.857  15.597   8.353 -0.0927  0.1173  0.0365
  478ERGO   ROH 5827  17.931   1.562   9.969  0.1347  0.1306  0.0324
  478ERGO    R1 5828  18.068   1.753   9.811  0.2771 -0.0636 -0.0834
  478ERGO    R2 5829  18.185   1.690   9.569 -0.0271 -0.2354 -0.1892
  478ERGO    R3 5830  18.032   1.894   9.478  0.1879 -0.0052 -0.0498
  478ERGO    R4 5831  18.167   1.792   9.240 -0.1493 -0.1950 -0.1709
  478ERGO    R5 5832  18.165   1.999   9.309  0.2047 -0.1882 -0.1542
  478ERGO    C1 5833  18.013   2.044   8.962 -0.0188  0.0447 -0.0295
  478ERGO    C2 5834  17.890   2.208   8.553 -0.2616  0.1194 -0.3999
  479ERGO   ROH 5835   9.055  11.183   9.589  0.0693 -0.1194 -0.0443
  479ERGO    R1 5836   8.920  11.164   9.341  0.1178 -0.2631 -0.0613
  479ERGO    R2 5837   8.858  11.385   9.188 -0.2125 -0.3117 -0.0080
  479ERGO    R3 5838   8.990  11.249   8.994  0.0212 -0.0590 -0.0318
  479ERGO    R4 5839   8.770  11.384   8.854 -0.1768 -0.3620 -0.0170
  479ERGO    R5 5840   8.817  11.171   8.848  0.1548 -0.2917 -0.0689
  479ERGO    C1 5841   8.844  11.255   8.477  0.0635 -0.1540 -0.0446
  479ERGO    C2 5842   8.718  11.152   8.175  0.3908  0.2543 -0.0615
  480ERGO   ROH 5843   5.180   2.034   9.857  0.2264 -0.0891 -0.1227
  480ERGO    R1 5844   5.100   1.939   9.602  0.1647 -0.2778 -0.0339
  480ERGO    R2 5845   5.152   2.077   9.368 -0.2564 -0.2407 -0.1115
  480ERGO    R3 5846   5.265   1.841   9.293  0.0674 -0.0793 -0.1510
  480ERGO    R4 5847   5.215   1.983   9.042 -0.4256 -0.2284 -0.1489
  480ERGO    R5 5848   5.150   1.781   9.092 -0.0399 -0.3310 -0.0200
  480ERGO    C1 5849   5.357   1.707   8.781 -0.2202 -0.0698 -0.2078
  480ERGO    C2 5850   5.377   1.634   8.460 -0.2163 -0.3852 -0.2682
  481ERGO   ROH 5851   4.270  11.214   9.694 -0.1146 -0.3874  0.1957
  481ERGO    R1 5852   4.379  11.095   9.461 -0.1605 -0.1258  0.0363
  481ERGO    R2 5853   4.470  10.834   9.456  0.2144  0.0004 -0.1652
  481ERGO    R3 5854   4.298  10.813   9.246  0.0398 -0.1480 -0.0112
  481ERGO    R4 5855   4.474  10.581   9.221  0.3852  0.1373 -0.3119
  481ERGO    R5 5856   4.433  10.729   9.067  0.0025  0.1637 -0.1912
  481ERGO    C1 5857   4.316  10.414   8.887  0.3207  0.0778 -0.2528
  481ERGO    C2 5858   4.137  10.130   8.929 -0.0794 -0.0628 -0.4592
  482ERGO   ROH 5859   6.387   5.007   9.305  0.2361  0.1298 -0.0819
  482ERGO    R1 5860   6.479   5.069   9.044  0.2107  0.0438 -0.1121
  482ERGO    R2 5861   6.623   4.889   8.891  0.2458  0.0109 -0.0471
  482ERGO    R3 5862   6.428   4.939   8.708  0.2234 -0.1075 -0.0552
  482ERGO    R4 5863   6.646   4.817   8.554  0.3026  0.0382 -0.0488
  482ERGO    R5 5864   6.547   5.007   8.512  0.1853 -0.0261 -0.0473
  482ERGO    C1 5865   6.477   4.821   8.186  0.3146 -0.0571 -0.0572
  482ERGO    C2 5866   6.429   4.814   7.849 -0.0994  0.2133 -0.0074
  483ERGO   ROH 5867   3.409   8.504   9.783  0.1434 -0.1028 -0.0802
  483ERGO    R1 5868   3.453   8.583   9.514  0.0444 -0.0097 -0.0707
  483ERGO    R2 5869   3.386   8.422   9.299  0.1336 -0.0172 -0.1000
  483ERGO    R3 5870   3.248   8.642   9.220 -0.0480 -0.1025 -0.0237
  483ERGO    R4 5871   3.275   8.482   8.977 -0.0274 -0.0402 -0.0492
  483ERGO    R5 5872   3.331   8.691   9.001 -0.1656 -0.0099 -0.0437
  483ERGO    C1 5873   3.081   8.724   8.716 -0.2917 -0.1337  0.0522
  483ERGO    C2 5874   2.925   8.835   8.535  0.0980 -0.3429  0.2553
  484ERGO   ROH 5875  13.399  10.059   9.740 -0.0817  0.1653  0.0670
  484ERGO    R1 5876  13.449  10.231   9.521 -0.1520  0.0902 -0.0091
  484ERGO    R2 5877  13.687  10.368   9.491 -0.1973  0.1513 -0.0839
  484ERGO    R3 5878  13.687  10.248   9.247 -0.1783  0.0505 -0.0350
  484ERGO    R4 5879  13.850  10.489   9.211 -0.3486  0.1525 -0.1727
  484ERGO    R5 5880  13.678  10.430   9.091 -0.3415 -0.0149 -0.1069
  484ERGO    C1 5881  13.945  10.448   8.820 -0.4187  0.0587 -0.1784
  484ERGO    C2 5882  14.210  10.601   8.624 -0.3241  0.1686 -0.2614
  485ERGO   ROH 5883  12.920   8.714  10.067 -0.0109 -0.1873 -0.0212
  485ERGO    R1 5884  12.849   8.899   9.865  0.0077 -0.1952 -0.0368
  485ERGO    R2 5885  13.015   9.106   9.788 -0.0459 -0.1000  0.0762
  485ERGO    R3 5886  12.980   8.999   9.540  0.1377 -0.0954  0.0478
  485ERGO    R4 5887  13.012   9.286   9.493  0.0280 -0.0865  0.0846
  485ERGO    R5 5888  12.848   9.160   9.423  0.1278 -0.1540 -0.0134
  485ERGO    C1 5889  12.978   9.290   9.089  0.2434 -0.0743  0.0628
  485ERGO    C2 5890  12.873   9.675   8.941  0.1723 -0.1277 -0.1404
  486ERGO   ROH 5891   5.011  14.365   9.344 -0.1737  0.0614  0.1327
  486ERGO    R1 5892   4.890  14.422   9.095 -0.3558 -0.0824  0.1871
  486ERGO    R2 5893   5.022  14.389   8.854 -0.3915  0.1615  0.1385
  486ERGO    R3 5894   4.805  14.237   8.793 -0.1847 -0.1644  0.1863
  486ERGO    R4 5895   4.972  14.230   8.552 -0.3369  0.3176  0.0446
  486ERGO    R5 5896   4.762  14.286   8.563 -0.4381 -0.0459  0.2511
  486ERGO    C1 5897   4.740  13.994   8.318 -0.1109  0.1027  0.0350
  486ERGO    C2 5898   4.711  13.792   8.129  0.0864  0.1537 -0.1127
  487ERGO   ROH 5899  12.252   2.834   9.365  0.1411  0.0484 -0.1194
  487ERGO    R1 5900  12.277   2.888   9.088  0.0988  0.0305 -0.1262
  487ERGO    R2 5901  12.521   2.890   8.958  0.0702 -0.0337 -0.1732
  487ERGO    R3 5902  12.398   2.712   8.794 -0.0028 -0.0096 -0.1461
  487ERGO    R4 5903  12.618   2.819   8.634  0.0290 -0.0911 -0.1734
  487ERGO    R5 5904  12.409   2.812   8.577  0.0168 -0.0271 -0.1576
  487ERGO    C1 5905  12.560   2.610   8.292 -0.0633 -0.1021 -0.1482
  487ERGO    C2 5906  12.731   2.522   8.083 -0.1093  0.0879 -0.0353
  488ERGO   ROH 5907   2.266  11.547   9.717  0.0026 -0.0268 -0.0792
  488ERGO    R1 5908   2.343  11.529   9.446  0.0098 -0.0180 -0.0780
  488ERGO    R2 5909   2.466  11.305   9.341  0.0213 -0.0132 -0.0808
  488ERGO    R3 5910   2.263  11.317   9.161  0.0231 -0.0151 -0.0827
  488ERGO    R4 5911   2.453  11.125   9.046  0.0001 -0.0391 -0.0641
  488ERGO    R5 5912   2.371  11.302   8.948  0.0166 -0.0457 -0.0808
  488ERGO    C1 5913   2.254  11.031   8.706 -0.0106 -0.0560 -0.0562
  488ERGO    C2 5914   2.038  10.962   8.493 -0.2054 -0.2308 -0.2242
  489ERGO   ROH 5915   5.573  12.506   9.366  0.0903  0.0907 -0.1271
  489ERGO    R1 5916   5.625  12.554   9.091  0.0028  0.0736 -0.1461
  489ERGO    R2 5917   5.461  12.458   8.890 -0.1305  0.1710 -0.0790
  489ERGO    R3 5918   5.455  12.720   8.816 -0.0205  0.1772 -0.0720
  489ERGO    R4 5919   5.360  12.575   8.580  0.0336  0.2050 -0.1218
  489ERGO    R5 5920   5.522  12.719   8.587  0.0792  0.1598 -0.0472
  489ERGO    C1 5921   5.295  12.888   8.331  0.2326  0.2307 -0.1400
  489ERGO    C2 5922   5.177  12.943   8.050 -0.2600  0.2542 -0.0101
  490ERGO   ROH 5923   0.014   5.604  10.167 -0.2852 -0.0252 -0.0229
  490ERGO    R1 5924  -0.042   5.558   9.893  0.0261  0.0275 -0.1006
  490ERGO    R2 5925  -0.284   5.622   9.777 -0.0209 -0.3707 -0.2599
  490ERGO    R3 5926  -0.128   5.760   9.603 -0.1304  0.0442 -0.0402
  490ERGO    R4 5927  -0.384   5.729   9.464  0.0032 -0.2048 -0.2105
  490ERGO    R5 5928  -0.188   5.673   9.388  0.1271  0.1716 -0.1605
  490ERGO    C1 5929  -0.296   5.920   9.118 -0.0852  0.2812  0.0244
  490ERGO    C2 5930  -0.462   6.183   8.873  0.1130 -0.2028 -0.1423
  491ERGO   ROH 5931   0.241  10.982   9.715  0.1967  0.0307 -0.0640
  491ERGO    R1 5932   0.285  10.992   9.435  0.3298  0.2220 -0.0394
  491ERGO    R2 5933   0.080  11.028   9.254  0.3308 -0.1849 -0.1400
  491ERGO    R3 5934   0.235  11.234   9.168 -0.0817  0.2104  0.0219
  491ERGO    R4 5935   0.058  11.174   8.941  0.2754 -0.2104 -0.1477
  491ERGO    R5 5936   0.276  11.184   8.937  0.2626  0.3239  0.0575
  491ERGO    C1 5937   0.192  11.452   8.678 -0.1440  0.1459 -0.0002
  491ERGO    C2 5938  -0.122  11.560   8.326 -0.1875  0.0381  0.4271
  492ERGO   ROH 5939   0.277   7.509  10.118  0.1217 -0.0515  0.0686
  492ERGO    R1 5940   0.231   7.711   9.926  0.1862  0.0324  0.1403
  492ERGO    R2 5941   0.433   7.872   9.828  0.2717 -0.1159  0.0657
  492ERGO    R3 5942   0.342   7.784   9.587  0.0619  0.0123  0.0952
  492ERGO    R4 5943   0.500   8.024   9.525  0.1282 -0.0434  0.0696
  492ERGO    R5 5944   0.293   7.985   9.466  0.0696  0.0754  0.1995
  492ERGO    C1 5945   0.454   8.031   9.123 -0.1524  0.1193  0.0995
  492ERGO    C2 5946   0.728   8.076   8.891  0.1757  0.0202  0.0815
  493ERGO   ROH 5947  18.241  13.684   9.495  0.2472 -0.0074 -0.1085
  493ERGO    R1 5948  18.226  13.841   9.260 -0.0257 -0.0447 -0.1205
  493ERGO    R2 5949  18.450  13.943   9.134 -0.1870  0.3042 -0.1583
  493ERGO    R3 5950  18.346  13.816   8.918 -0.0187  0.1113 -0.1265
  493ERGO    R4 5951  18.516  14.025   8.805 -0.0694  0.0893 -0.1886
  493ERGO    R5 5952  18.307  13.990   8.759 -0.0178 -0.0319 -0.2713
  493ERGO    C1 5953  18.457  13.953   8.410  0.1573 -0.2168 -0.1765
  493ERGO    C2 5954  18.724  13.924   8.146 -0.0288 -0.1146 -0.1623
  494ERGO   ROH 5955  17.260   5.437  10.218 -0.0240 -0.0094  0.0813
  494ERGO    R1 5956  17.111   5.465   9.980 -0.0553 -0.0188  0.0998
  494ERGO    R2 5957  17.162   5.664   9.795 -0.1232  0.0151  0.1177
  494ERGO    R3 5958  17.180   5.456   9.622 -0.0889  0.0392  0.0916
  494ERGO    R4 5959  17.200   5.694   9.453  0.1194  0.0613  0.1462
  494ERGO    R5 5960  17.060   5.529   9.428  0.0701  0.1209  0.0226
  494ERGO    C1 5961  17.239   5.516   9.091  0.2927  0.1109  0.1386
  494ERGO    C2 5962  17.453   5.534   8.788 -0.0714  0.0734 -0.0102
  495ERGO   ROH 5963  16.565  14.800   9.236 -0.2030  0.0866  0.1248
  495ERGO    R1 5964  16.662  14.869   8.979 -0.0085 -0.1092  0.1423
  495ERGO    R2 5965  16.773  14.683   8.807 -0.2037 -0.3113  0.2267
  495ERGO    R3 5966  16.586  14.779   8.635 -0.0102 -0.0849  0.1369
  495ERGO    R4 5967  16.802  14.682   8.462 -0.0420 -0.3342  0.2395
  495ERGO    R5 5968  16.713  14.881   8.459  0.1934 -0.2284  0.1992
  495ERGO    C1 5969  16.643  14.772   8.100  0.2338 -0.1351  0.1627
  495ERGO    C2 5970  16.418  14.698   7.873 -0.5847 -0.1307 -0.0122
  496ERGO   ROH 5971   8.080   7.450   9.840 -0.2963  0.0736 -0.0212
  496ERGO    R1 5972   8.244   7.432   9.610 -0.1894 -0.0325  0.0610
  496ERGO    R2 5973   8.147   7.471   9.354 -0.0486 -0.0342  0.0013
  496ERGO    R3 5974   8.347   7.654   9.341  0.0321 -0.1180  0.0746
  496ERGO    R4 5975   8.356   7.516   9.083 -0.2145  0.1792 -0.0929
  496ERGO    R5 5976   8.522   7.543   9.221 -0.1054 -0.0643 -0.1774
  496ERGO    C1 5977   8.667   7.715   8.913 -0.2353  0.2248 -0.0790
  496ERGO    C2 5978   8.775   7.779   8.563 -0.1459  0.3717  0.0334
  497ERGO   ROH 5979  11.837   0.276   9.153  0.1271 -0.0553 -0.0884
  497ERGO    R1 5980  11.761   0.416   8.919  0.1117  0.1114  0.0128
  497ERGO    R2 5981  11.940   0.566   8.771  0.1550  0.0543 -0.0142
  497ERGO    R3 5982  11.850   0.411   8.567 -0.0648  0.2030 -0.0311
  497ERGO    R4 5983  12.026   0.607   8.438  0.0453  0.0741 -0.0385
  497ERGO    R5 5984  11.820   0.563   8.384 -0.0058  0.2771  0.0316
  497ERGO    C1 5985  11.992   0.484   8.053 -0.2247  0.2253 -0.0687
  497ERGO    C2 5986  12.107   0.489   7.757 -0.1802  0.0556 -0.0937
  498ERGO   ROH 5987  12.021   5.014   9.790  0.0635  0.3373  0.1288
  498ERGO    R1 5988  11.988   4.973   9.512  0.0249  0.1999  0.1538
  498ERGO    R2 5989  12.046   5.167   9.324  0.0259  0.0964  0.0493
  498ERGO    R3 5990  12.201   4.971   9.218 -0.0114  0.0233  0.1265
  498ERGO    R4 5991  12.097   5.117   8.986  0.0889  0.0134  0.0701
  498ERGO    R5 5992  12.084   4.903   9.020  0.0108  0.0221  0.1116
  498ERGO    C1 5993  12.273   4.905   8.689  0.0905 -0.1037  0.1548
  498ERGO    C2 5994  12.466   4.697   8.567  0.2032 -0.1895  0.2332
  499ERGO   ROH 5995  15.461   4.321   9.810  0.0357  0.1452  0.0086
  499ERGO    R1 5996  15.618   4.268   9.581  0.0404  0.1205  0.0175
  499ERGO    R2 5997  15.574   4.049   9.418  0.0744  0.0761  0.0672
  499ERGO    R3 5998  15.561   4.237   9.223  0.0384  0.0307  0.0256
  499ERGO    R4 5999  15.532   3.982   9.082  0.2010 -0.0113  0.0679
  499ERGO    R5 6000  15.676   4.139   9.038  0.1379  0.0491  0.0774
  499ERGO    C1 6001  15.495   4.120   8.702  0.2409 -0.1049  0.0293
  499ERGO    C2 6002  15.200   3.994   8.409  0.0187 -0.0906  0.0116
  500ERGO   ROH 6003  14.329   0.990   9.049  0.1846  0.2444 -0.0597
  500ERGO    R1 6004  14.193   0.939   8.806  0.2444  0.1724 -0.0777
  500ERGO    R2 6005  13.950   1.055   8.745  0.1373 -0.0457 -0.0597
  500ERGO    R3 6006  14.081   1.134   8.520  0.0700  0.1340 -0.0378
  500ERGO    R4 6007  13.798   1.187   8.464  0.0134 -0.1081 -0.0234
  500ERGO    R5 6008  13.935   1.071   8.341  0.1245  0.0462 -0.0553
  500ERGO    C1 6009  13.832   1.339   8.090 -0.1218  0.0242  0.0184
  500ERGO    C2 6010  13.561   1.491   7.813  0.2372  0.1355  0.1730
  501ERGO   ROH 6011  16.128   9.346  10.097 -0.1897  0.0087 -0.0503
  501ERGO    R1 6012  16.179   9.365   9.819 -0.0894 -0.0005 -0.0315
  501ERGO    R2 6013  16.342   9.187   9.684 -0.2371 -0.1461 -0.0067
  501ERGO    R3 6014  16.124   9.158   9.525 -0.2193  0.1027 -0.0831
  501ERGO    R4 6015  16.346   9.060   9.363 -0.2893 -0.3903  0.0851
  501ERGO    R5 6016  16.202   9.212   9.306 -0.0182 -0.1808 -0.0923
  501ERGO    C1 6017  16.144   8.960   9.026 -0.3029 -0.2989  0.0668
  501ERGO    C2 6018  15.987   8.810   8.706 -0.0212  0.0461 -0.4175
  502ERGO   ROH 6019  15.094  10.030   9.912  0.1735  0.0738 -0.0255
  502ERGO    R1 6020  15.116  10.203   9.689  0.0733  0.0772 -0.0332
  502ERGO    R2 6021  15.060  10.121   9.431 -0.0864  0.0941 -0.0041
  502ERGO    R3 6022  14.893  10.336   9.434 -0.0520  0.1203  0.0970
  502ERGO    R4 6023  15.027  10.349   9.173 -0.1572  0.1358  0.0413
  502ERGO    R5 6024  15.016  10.508   9.322 -0.0701  0.1168  0.0701
  502ERGO    C1 6025  14.851  10.683   9.025 -0.1661  0.1847  0.1627
  502ERGO    C2 6026  14.759  10.924   8.852 -0.0744 -0.1205  0.0951
  503ERGO   ROH 6027  11.641  10.698   9.758 -0.1027 -0.0605  0.0195
  503ERGO    R1 6028  11.546  10.576   9.521 -0.0651  0.0766 -0.0659
  503ERGO    R2 6029  11.634  10.652   9.269  0.3374 -0.1022  0.0172
  503ERGO    R3 6030  11.690  10.387   9.245 -0.0980 -0.2114  0.1088
  503ERGO    R4 6031  11.683  10.487   8.970  0.3548 -0.2134  0.0803
  503ERGO    R5 6032  11.570  10.318   9.050 -0.0279 -0.0181 -0.0097
  503ERGO    C1 6033  11.764  10.142   8.773 -0.0439 -0.3807  0.2030
  503ERGO    C2 6034  11.925   9.950   8.579  0.2000  0.0874 -0.1054
  504ERGO   ROH 6035   1.581   7.480   9.995  0.0522 -0.0458  0.0717
  504ERGO    R1 6036   1.690   7.564   9.747  0.0133  0.0185  0.0749
  504ERGO    R2 6037   1.845   7.398   9.589  0.0421  0.0764  0.0328
  504ERGO    R3 6038   1.662   7.462   9.399  0.0071  0.0637  0.0639
  504ERGO    R4 6039   1.886   7.347   9.250 -0.1286 -0.1612  0.0457
  504ERGO    R5 6040   1.792   7.540   9.215 -0.0246 -0.1321 -0.0389
  504ERGO    C1 6041   1.738   7.378   8.874 -0.2609 -0.3116  0.0824
  504ERGO    C2 6042   1.665   7.307   8.586  0.0684 -0.2179  0.0370
  505ERGO   ROH 6043   3.130   4.678   9.836  0.0033 -0.0459 -0.1311
  505ERGO    R1 6044   3.118   4.567   9.576 -0.1198 -0.0531 -0.1235
  505ERGO    R2 6045   3.253   4.336   9.508 -0.0682  0.0016 -0.2093
  505ERGO    R3 6046   3.007   4.254   9.428 -0.0873 -0.1012 -0.0474
  505ERGO    R4 6047   3.179   4.019   9.390 -0.0069 -0.0243 -0.1773
  505ERGO    R5 6048   3.050   4.111   9.240 -0.1495 -0.0710 -0.0855
  505ERGO    C1 6049   2.905   3.758   9.246  0.0109 -0.1359 -0.0069
  505ERGO    C2 6050   2.793   3.454   9.082 -0.1867  0.1634 -0.0346
  506ERGO   ROH 6051  14.892   7.155  10.057 -0.1326  0.1409  0.0561
  506ERGO    R1 6052  14.879   7.434  10.011  0.1599  0.1650  0.0881
  506ERGO    R2 6053  15.087   7.576   9.898  0.2277 -0.0776 -0.1200
  506ERGO    R3 6054  14.895   7.656   9.722  0.1362  0.1555  0.0817
  506ERGO    R4 6055  15.119   7.842   9.680  0.3243 -0.1302 -0.1683
  506ERGO    R5 6056  14.911   7.895   9.722  0.4369  0.1353  0.0520
  506ERGO    C1 6057  14.958   8.072   9.388  0.2948  0.0580 -0.0070
  506ERGO    C2 6058  15.175   8.346   9.289 -0.2307  0.4140  0.0578
  507ERGO   ROH 6059  16.408  12.301   9.947  0.2339  0.1578  0.0225
  507ERGO    R1 6060  16.389  12.167   9.699  0.3536  0.0240  0.0820
  507ERGO    R2 6061  16.160  12.172   9.544  0.2886 -0.3709  0.1380
  507ERGO    R3 6062  16.331  12.260   9.352  0.1142 -0.1954  0.0627
  507ERGO    R4 6063  16.168  12.056   9.219  0.3022 -0.3872  0.1462
  507ERGO    R5 6064  16.386  12.063   9.226  0.2919 -0.1386  0.0600
  507ERGO    C1 6065  16.333  12.071   8.849  0.1464 -0.2322  0.0803
  507ERGO    C2 6066  16.102  12.002   8.569 -0.0672  0.1858  0.0866
  508ERGO   ROH 6067   2.318   9.730   9.854 -0.1124  0.2518 -0.1697
  508ERGO    R1 6068   2.518   9.735   9.654 -0.0618  0.2252 -0.1216
  508ERGO    R2 6069   2.555   9.528   9.475  0.1856  0.0582  0.1064
  508ERGO    R3 6070   2.528   9.726   9.290  0.0397 -0.1609 -0.1113
  508ERGO    R4 6071   2.717   9.536   9.170  0.1974 -0.1330  0.1077
  508ERGO    R5 6072   2.748   9.750   9.197  0.0220 -0.0801 -0.1218
  508ERGO    C1 6073   2.786   9.725   8.818  0.0672 -0.4497 -0.0960
  508ERGO    C2 6074   2.957   9.733   8.533  0.0283 -0.0244  0.2401
  509ERGO   ROH 6075  14.713  12.961   9.207 -0.2561 -0.1256 -0.0962
  509ERGO    R1 6076  14.892  12.936   8.990 -0.0253  0.0261  0.0721
  509ERGO    R2 6077  14.808  12.876   8.733  0.2913 -0.3329  0.0437
  509ERGO    R3 6078  14.945  13.102   8.670 -0.0651 -0.1257 -0.0144
  509ERGO    R4 6079  14.922  12.958   8.417  0.5109 -0.4364  0.0942
  509ERGO    R5 6080  15.105  13.032   8.507  0.2701  0.0097  0.2458
  509ERGO    C1 6081  15.117  13.218   8.174  0.3042 -0.3021  0.0690
  509ERGO    C2 6082  15.397  13.368   7.966 -0.1712  0.2016 -0.1044
  510ERGO   ROH 6083   5.680   5.092   9.301 -0.2195 -0.0470  0.0453
  510ERGO    R1 6084   5.500   5.082   9.083 -0.1886 -0.0841  0.0213
  510ERGO    R2 6085   5.567   5.172   8.830 -0.2324  0.0956  0.0721
  510ERGO    R3 6086   5.490   4.922   8.756 -0.0241  0.0673 -0.0596
  510ERGO    R4 6087   5.476   5.080   8.510 -0.1469  0.1833  0.0217
  510ERGO    R5 6088   5.316   4.959   8.596 -0.0501  0.0065 -0.0450
  510ERGO    C1 6089   5.349   4.792   8.254  0.0983  0.2079 -0.1312
  510ERGO    C2 6090   5.246   4.915   7.985  0.2515  0.1722 -0.3393
  511ERGO   ROH 6091   7.277   1.652   9.450  0.0975  0.0863  0.0492
  511ERGO    R1 6092   7.337   1.715   9.181 -0.0528  0.1608  0.0323
  511ERGO    R2 6093   7.151   1.690   8.977 -0.1416  0.1359  0.1160
  511ERGO    R3 6094   7.216   1.950   8.931 -0.2552  0.1682  0.1351
  511ERGO    R4 6095   7.231   1.821   8.668  0.2239  0.0966  0.1885
  511ERGO    R5 6096   7.387   1.940   8.763  0.0033  0.2361  0.3869
  511ERGO    C1 6097   7.338   2.142   8.443  0.3300  0.1041  0.2487
  511ERGO    C2 6098   7.409   2.104   8.183  0.1545 -0.1399 -0.3177
  512ERGO   ROH 6099   1.937   1.968   9.866 -0.0999  0.0187 -0.0473
  512ERGO    R1 6100   1.999   1.999   9.591 -0.0690  0.1447 -0.0271
  512ERGO    R2 6101   2.183   2.184   9.499  0.1426  0.0053  0.1027
  512ERGO    R3 6102   2.294   1.966   9.381 -0.1060 -0.0418 -0.0510
  512ERGO    R4 6103   2.371   2.191   9.210  0.2266  0.0058  0.1574
  512ERGO    R5 6104   2.272   2.008   9.146  0.0065  0.1840 -0.0227
  512ERGO    C1 6105   2.586   1.991   8.930  0.0421 -0.0381  0.0450
  512ERGO    C2 6106   2.777   1.989   8.645 -0.3033  0.2072 -0.1049
  513ERGO   ROH 6107  12.057   0.024   9.598  0.0995 -0.2901  0.1072
  513ERGO    R1 6108  12.202  -0.006   9.356  0.0519 -0.2522  0.0733
  513ERGO    R2 6109  12.285  -0.251   9.261  0.0612 -0.2349  0.0335
  513ERGO    R3 6110  12.152  -0.174   9.037  0.0037 -0.2307  0.0694
  513ERGO    R4 6111  12.337  -0.383   8.946  0.3194  0.0954 -0.0659
  513ERGO    R5 6112  12.319  -0.181   8.865  0.0586  0.1426  0.0979
  513ERGO    C1 6113  12.244  -0.386   8.552  0.4155  0.2917 -0.0903
  513ERGO    C2 6114  12.197  -0.302   8.247  0.2004  0.0689 -0.3208
  514ERGO   ROH 6115   5.941   7.112   9.618 -0.0621 -0.2339  0.0559
  514ERGO    R1 6116   5.953   7.271   9.385  0.1581 -0.1453  0.1259
  514ERGO    R2 6117   6.163   7.258   9.206  0.0744 -0.4642  0.0524
  514ERGO    R3 6118   5.964   7.214   9.026 -0.0778 -0.0045  0.0922
  514ERGO    R4 6119   6.172   7.354   8.874  0.2688 -0.5319  0.0360
  514ERGO    R5 6120   5.962   7.411   8.889  0.3934 -0.0037  0.0625
  514ERGO    C1 6121   5.991   7.369   8.511  0.2391 -0.1397  0.0640
  514ERGO    C2 6122   5.835   7.333   8.161 -0.1026 -0.0939 -0.2610
  515ERGO   ROH 6123   0.593   3.188  10.078 -0.0394  0.0842 -0.1195
  515ERGO    R1 6124   0.724   3.167   9.828  0.2198  0.0564  0.0164
  515ERGO    R2 6125   0.625   3.283   9.597  0.2769 -0.2530 -0.1652
  515ERGO    R3 6126   0.872   3.396   9.586  0.1454  0.0611 -0.0262
  515ERGO    R4 6127   0.777   3.397   9.309  0.4356 -0.3990 -0.1417
  515ERGO    R5 6128   0.966   3.315   9.381  0.4754 -0.0684  0.1657
  515ERGO    C1 6129   1.098   3.570   9.130  0.4046 -0.1891  0.0023
  515ERGO    C2 6130   1.031   3.747   8.935 -0.1487  0.3083 -0.1087
  516ERGO   ROH 6131   8.281  17.169   9.537  0.0374 -0.0683 -0.0436
  516ERGO    R1 6132   8.150  17.012   9.342 -0.0133 -0.0188 -0.0491
  516ERGO    R2 6133   7.922  17.097   9.211  0.0043  0.0516 -0.0318
  516ERGO    R3 6134   8.069  17.043   8.988 -0.0212  0.0282 -0.0435
  516ERGO    R4 6135   7.803  17.114   8.887 -0.0056  0.1204 -0.0251
  516ERGO    R5 6136   7.915  16.933   8.841 -0.0625  0.0891 -0.0478
  516ERGO    C1 6137   7.871  17.073   8.489 -0.0353  0.1384 -0.0322
  516ERGO    C2 6138   8.030  16.965   8.126  0.1910  0.0402 -0.2053
  517ERGO   ROH 6139   9.829   6.795   9.935 -0.2921  0.0164  0.0996
  517ERGO    R1 6140   9.983   6.599   9.800 -0.0465  0.1907  0.1207
  517ERGO    R2 6141   9.907   6.490   9.558 -0.0543 -0.1248  0.2586
  517ERGO    R3 6142  10.154   6.571   9.480 -0.2545  0.2702  0.0009
  517ERGO    R4 6143  10.053   6.414   9.254 -0.0888 -0.2417  0.2710
  517ERGO    R5 6144  10.242   6.385   9.358  0.0425  0.2746  0.2008
  517ERGO    C1 6145  10.370   6.446   9.004 -0.2970  0.0610  0.0362
  517ERGO    C2 6146  10.368   6.401   8.734 -0.0811  0.1298  0.2775
  518ERGO   ROH 6147   7.609   8.474   9.632 -0.1270 -0.0618  0.0323
  518ERGO    R1 6148   7.406   8.392   9.452 -0.1915  0.0821  0.0390
  518ERGO    R2 6149   7.282   8.568   9.278  0.0359  0.1417 -0.0618
  518ERGO    R3 6150   7.359   8.386   9.091 -0.1408 -0.0364  0.0330
  518ERGO    R4 6151   7.249   8.609   8.936  0.2380  0.0823 -0.0900
  518ERGO    R5 6152   7.191   8.400   8.921 -0.0570  0.1513 -0.0422
  518ERGO    C1 6153   7.303   8.463   8.562  0.1898 -0.1193 -0.0175
  518ERGO    C2 6154   7.539   8.502   8.278 -0.1315  0.0394  0.3308
  519ERGO   ROH 6155  17.812   4.414  10.228  0.1514  0.2695 -0.0428
  519ERGO    R1 6156  17.705   4.405   9.966  0.1357  0.0816 -0.0337
  519ERGO    R2 6157  17.702   4.626   9.799 -0.2414  0.0793 -0.0525
  519ERGO    R3 6158  17.830   4.458   9.628  0.0238  0.2708 -0.0439
  519ERGO    R4 6159  17.654   4.616   9.457 -0.2203 -0.0274 -0.0513
  519ERGO    R5 6160  17.665   4.399   9.466  0.1232 -0.0050 -0.0401
  519ERGO    C1 6161  17.746   4.453   9.098  0.0410  0.0904 -0.0425
  519ERGO    C2 6162  17.879   4.605   8.753  0.0509 -0.1643 -0.0508
  520ERGO   ROH 6163   7.247   3.268   9.471  0.0555 -0.0746 -0.1885
  520ERGO    R1 6164   7.314   3.233   9.198  0.0488 -0.0785 -0.1896
  520ERGO    R2 6165   7.208   3.031   9.043 -0.0438 -0.0113 -0.2148
  520ERGO    R3 6166   7.139   3.236   8.879  0.0613  0.0404 -0.1958
  520ERGO    R4 6167   7.202   3.014   8.698 -0.0634  0.0215 -0.2160
  520ERGO    R5 6168   7.286   3.215   8.692  0.0445 -0.0231 -0.2019
  520ERGO    C1 6169   7.132   3.197   8.343  0.0239  0.0890 -0.1990
  520ERGO    C2 6170   7.044   3.238   8.036  0.2336  0.0401  0.2262
  521ERGO   ROH 6171  18.410  10.486   9.744 -0.0841  0.1605 -0.0628
  521ERGO    R1 6172  18.508  10.609   9.509  0.0872 -0.0920 -0.1270
  521ERGO    R2 6173  18.643  10.468   9.312 -0.3193 -0.4346 -0.1745
  521ERGO    R3 6174  18.453  10.576   9.150 -0.1622 -0.0226 -0.0971
  521ERGO    R4 6175  18.672  10.502   8.970 -0.3181 -0.3388 -0.1652
  521ERGO    R5 6176  18.577  10.698   8.986  0.0307 -0.1701 -0.0650
  521ERGO    C1 6177  18.510  10.623   8.618 -0.1700  0.1036 -0.0872
  521ERGO    C2 6178  18.561  10.408   8.338 -0.3731 -0.0385  0.0423
  522ERGO   ROH 6179   4.033   1.402   9.961  0.0034  0.1013 -0.0838
  522ERGO    R1 6180   4.109   1.522   9.716 -0.0601  0.1757 -0.0674
  522ERGO    R2 6181   4.251   1.387   9.522  0.0817  0.3017 -0.0539
  522ERGO    R3 6182   4.044   1.464   9.363  0.0391  0.1378 -0.0796
  522ERGO    R4 6183   4.214   1.300   9.189  0.1543  0.2118 -0.0386
  522ERGO    R5 6184   4.145   1.503   9.149  0.0254  0.1604 -0.0821
  522ERGO    C1 6185   3.999   1.323   8.846  0.1566  0.0057 -0.0539
  522ERGO    C2 6186   4.040   1.161   8.528 -0.3527 -0.2327  0.1405
  523ERGO   ROH 6187  11.833   5.752  10.157  0.0036  0.0673  0.0618
  523ERGO    R1 6188  11.889   5.821   9.888  0.0496  0.0689  0.0721
  523ERGO    R2 6189  12.110   5.724   9.753 -0.0252 -0.0757  0.0535
  523ERGO    R3 6190  11.924   5.643   9.572 -0.0900  0.0932  0.0422
  523ERGO    R4 6191  12.171   5.670   9.417 -0.1048  0.0707  0.0140
  523ERGO    R5 6192  11.980   5.763   9.372 -0.0749  0.1735  0.0934
  523ERGO    C1 6193  12.032   5.562   9.052 -0.2118  0.3145 -0.0196
  523ERGO    C2 6194  12.023   5.483   8.594  0.2691 -0.0754 -0.2962
  524ERGO   ROH 6195  10.214  13.234   9.266  0.1365  0.0244 -0.0466
  524ERGO    R1 6196  10.392  13.125   9.076  0.0891 -0.0556 -0.0450
  524ERGO    R2 6197  10.307  12.970   8.862  0.0139  0.0476 -0.0874
  524ERGO    R3 6198  10.446  13.153   8.717  0.1580 -0.0159 -0.0325
  524ERGO    R4 6199  10.355  12.957   8.520 -0.1131  0.1773 -0.1115
  524ERGO    R5 6200  10.560  13.024   8.551 -0.0285 -0.0500 -0.1390
  524ERGO    C1 6201  10.514  13.121   8.185 -0.0515  0.1931 -0.0742
  524ERGO    C2 6202  10.687  13.372   8.000  0.1385 -0.1845 -0.1137
  525ERGO   ROH 6203   8.232  17.904   9.236 -0.1249  0.0587 -0.0410
  525ERGO    R1 6204   8.096  18.017   9.014 -0.0039  0.1599 -0.0669
  525ERGO    R2 6205   8.227  18.098   8.784  0.0871 -0.0504 -0.1020
  525ERGO    R3 6206   8.047  17.934   8.663 -0.1096  0.1171 -0.0401
  525ERGO    R4 6207   8.153  18.100   8.447  0.0503 -0.0723 -0.0927
  525ERGO    R5 6208   7.943  18.071   8.497  0.0274  0.1789 -0.0674
  525ERGO    C1 6209   7.942  17.947   8.137 -0.1560  0.0724 -0.0293
  525ERGO    C2 6210   7.996  17.772   7.834  0.2464 -0.2733  0.1581
  526ERGO   ROH 6211   2.398  11.031   9.849  0.1012  0.0087 -0.0893
  526ERGO    R1 6212   2.446  10.908   9.599  0.0854  0.0638 -0.1216
  526ERGO    R2 6213   2.365  10.650   9.541  0.2461  0.0014 -0.1111
  526ERGO    R3 6214   2.244  10.770   9.329  0.0675 -0.0591 -0.0432
  526ERGO    R4 6215   2.265  10.489   9.252  0.0507 -0.0608 -0.0090
  526ERGO    R5 6216   2.335  10.660   9.138 -0.0646 -0.0753 -0.0920
  526ERGO    C1 6217   2.094  10.509   8.885 -0.2308 -0.1538  0.1142
  526ERGO    C2 6218   1.900  10.494   8.613  0.6363  0.0718 -0.2275
  527ERGO   ROH 6219   2.767  15.598   9.661  0.0591  0.2688 -0.0713
  527ERGO    R1 6220   2.662  15.620   9.399  0.0540  0.1448 -0.0798
  527ERGO    R2 6221   2.670  15.855   9.254 -0.2186  0.1598 -0.0739
  527ERGO    R3 6222   2.790  15.698   9.068 -0.0105  0.3066 -0.0680
  527ERGO    R4 6223   2.685  15.925   8.916 -0.2771  0.1863 -0.0715
  527ERGO    R5 6224   2.648  15.714   8.876 -0.0183  0.1386 -0.0790
  527ERGO    C1 6225   2.805  15.817   8.544 -0.1157  0.3396 -0.0645
  527ERGO    C2 6226   2.875  15.721   8.324  0.1248 -0.0261  0.0907
  528ERGO   ROH 6227   9.317  15.280   9.170  0.0220 -0.0952 -0.0323
  528ERGO    R1 6228   9.486  15.247   8.945 -0.1267 -0.1173 -0.1431
  528ERGO    R2 6229   9.399  15.136   8.708 -0.3619  0.1185 -0.1725
  528ERGO    R3 6230   9.496  15.367   8.602 -0.1938  0.0957 -0.0726
  528ERGO    R4 6231   9.451  15.191   8.371 -0.2471  0.2007 -0.1422
  528ERGO    R5 6232   9.636  15.294   8.421 -0.1950  0.0699 -0.0628
  528ERGO    C1 6233   9.572  15.439   8.074 -0.0224  0.2270 -0.0307
  528ERGO    C2 6234   9.319  15.355   7.710  0.1064  0.1855 -0.2069
  529ERGO   ROH 6235  17.657  15.830   9.645 -0.1217 -0.1843 -0.1079
  529ERGO    R1 6236  17.600  16.006   9.431  0.1315 -0.0669 -0.0804
  529ERGO    R2 6237  17.746  16.006   9.196  0.0554 -0.3315 -0.1233
  529ERGO    R3 6238  17.502  15.974   9.082 -0.0495  0.1316 -0.0513
  529ERGO    R4 6239  17.659  16.122   8.882  0.1548 -0.0649 -0.0563
  529ERGO    R5 6240  17.465  16.179   8.963  0.2705  0.2505  0.0329
  529ERGO    C1 6241  17.379  16.159   8.592  0.1141  0.5248  0.0501
  529ERGO    C2 6242  17.293  16.244   8.236  0.1572 -0.3283 -0.0567
  530ERGO   ROH 6243  14.576  12.990   9.714  0.0436  0.0541 -0.0009
  530ERGO    R1 6244  14.383  13.054   9.518  0.0310 -0.0170 -0.0123
  530ERGO    R2 6245  14.265  13.303   9.501 -0.1086 -0.0786  0.0215
  530ERGO    R3 6246  14.353  13.292   9.244 -0.0689  0.0199  0.0305
  530ERGO    R4 6247  14.113  13.461   9.233 -0.1016 -0.0265  0.0484
  530ERGO    R5 6248  14.152  13.283   9.113 -0.0475  0.0196 -0.0014
  530ERGO    C1 6249  14.107  13.541   8.836 -0.0603  0.0966  0.0725
  530ERGO    C2 6250  13.942  13.817   8.730 -0.0737 -0.2477  0.0625
  531ERGO   ROH 6251   8.307   4.794   9.464 -0.1677  0.1786  0.1459
  531ERGO    R1 6252   8.282   4.679   9.207 -0.1250  0.0956  0.1789
  531ERGO    R2 6253   8.156   4.808   8.997 -0.0862  0.0291  0.1166
  531ERGO    R3 6254   8.391   4.760   8.869 -0.0660 -0.0165  0.1699
  531ERGO    R4 6255   8.235   4.919   8.680 -0.0957 -0.1982  0.0325
  531ERGO    R5 6256   8.329   4.727   8.641 -0.0466 -0.2104  0.1891
  531ERGO    C1 6257   8.502   4.939   8.375 -0.0822 -0.3733  0.0335
  531ERGO    C2 6258   8.610   5.180   8.204 -0.2731  0.0306 -0.3431
  532ERGO   ROH 6259  13.907  17.325   9.420 -0.4187  0.0710 -0.0293
  532ERGO    R1 6260  13.838  17.198   9.176 -0.3677  0.1017 -0.0597
  532ERGO    R2 6261  13.696  17.326   8.977 -0.1592  0.1884 -0.1528
  532ERGO    R3 6262  13.907  17.249   8.823 -0.1235  0.0247 -0.0256
  532ERGO    R4 6263  13.708  17.350   8.632 -0.0486 -0.0893 -0.1707
  532ERGO    R5 6264  13.806  17.155   8.627 -0.0812 -0.1146  0.0169
  532ERGO    C1 6265  13.912  17.291   8.287  0.0493 -0.4044 -0.0617
  532ERGO    C2 6266  14.034  17.404   7.926 -0.1042  0.2644  0.1606
  533ERGO   ROH 6267   5.887  11.565   9.639 -0.0662 -0.4680 -0.0236
  533ERGO    R1 6268   5.862  11.517   9.361 -0.0856 -0.0384 -0.1042
  533ERGO    R2 6269   5.910  11.712   9.171  0.2929  0.1590  0.1724
  533ERGO    R3 6270   6.080  11.526   9.071  0.0048 -0.0003 -0.0330
  533ERGO    R4 6271   5.951  11.643   8.835 -0.0345  0.2321  0.1143
  533ERGO    R5 6272   5.963  11.431   8.885 -0.2392  0.2037  0.0188
  533ERGO    C1 6273   6.136  11.428   8.545 -0.4956  0.1251 -0.1125
  533ERGO    C2 6274   6.205  11.543   8.321 -0.2337  0.1982 -0.3169
  534ERGO   ROH 6275  10.555  10.442   9.644  0.4582 -0.0052  0.0813
  534ERGO    R1 6276  10.541  10.421   9.362  0.2864  0.0618  0.0841
  534ERGO    R2 6277  10.724  10.277   9.215  0.0793 -0.0710 -0.0439
  534ERGO    R3 6278  10.502  10.155   9.118 -0.0826  0.1428  0.0480
  534ERGO    R4 6279  10.695  10.144   8.897 -0.1747 -0.0513 -0.0309
  534ERGO    R5 6280  10.491  10.223   8.888 -0.1058  0.1493  0.0490
  534ERGO    C1 6281  10.468   9.952   8.621 -0.4747  0.1610  0.0630
  534ERGO    C2 6282  10.495   9.780   8.295 -0.1723  0.3505  0.4029
  535ERGO   ROH 6283  10.981   5.181   9.795 -0.1898  0.2166  0.0048
  535ERGO    R1 6284  11.047   5.179   9.519 -0.2653  0.0599 -0.0130
  535ERGO    R2 6285  10.884   5.291   9.326 -0.2073  0.1593 -0.0066
  535ERGO    R3 6286  11.110   5.426   9.260 -0.0878 -0.0861 -0.1111
  535ERGO    R4 6287  10.944   5.437   9.019 -0.1994  0.1144 -0.0260
  535ERGO    R5 6288  11.150   5.367   9.031 -0.2682 -0.1156 -0.1356
  535ERGO    C1 6289  11.191   5.650   8.778 -0.0826 -0.1420 -0.1355
  535ERGO    C2 6290  11.187   5.819   8.549 -0.0761  0.1753  0.0560
  536ERGO   ROH 6291   7.323  12.051   9.202 -0.0629  0.2290 -0.1158
  536ERGO    R1 6292   7.501  11.848   9.117 -0.1677  0.1119 -0.0534
  536ERGO    R2 6293   7.422  11.644   8.949 -0.2141  0.2409 -0.1801
  536ERGO    R3 6294   7.633  11.729   8.799 -0.0256  0.1127  0.0030
  536ERGO    R4 6295   7.567  11.463   8.692 -0.3628  0.3072 -0.3148
  536ERGO    R5 6296   7.763  11.530   8.762 -0.2877 -0.0405 -0.1513
  536ERGO    C1 6297   7.849  11.437   8.402 -0.2725  0.2255 -0.2211
  536ERGO    C2 6298   8.045  11.283   8.047  0.1015 -0.2000 -0.0777
  537ERGO   ROH 6299  16.430   3.733  10.198  0.1994 -0.1661  0.0880
  537ERGO    R1 6300  16.485   3.772   9.923 -0.0556 -0.0240  0.0529
  537ERGO    R2 6301  16.583   3.571   9.761  0.1917  0.1652 -0.0457
  537ERGO    R3 6302  16.368   3.634   9.608 -0.0340 -0.1857  0.1166
  537ERGO    R4 6303  16.554   3.501   9.424  0.1411  0.3169 -0.0734
  537ERGO    R5 6304  16.462   3.696   9.396 -0.2860  0.1456  0.0988
  537ERGO    C1 6305  16.335   3.518   9.084 -0.1000  0.0758  0.0628
  537ERGO    C2 6306  16.236   3.346   8.853  0.2312  0.1801 -0.3062
  538ERGO   ROH 6307   9.708  13.639   9.495  0.0178  0.0255  0.0414
  538ERGO    R1 6308   9.827  13.451   9.320 -0.1191 -0.0196 -0.0053
  538ERGO    R2 6309   9.728  13.399   9.068 -0.1546  0.1216 -0.0246
  538ERGO    R3 6310   9.982  13.457   8.990 -0.1069 -0.0464  0.0009
  538ERGO    R4 6311   9.839  13.398   8.740 -0.1584  0.2089 -0.0263
  538ERGO    R5 6312  10.025  13.306   8.809 -0.2339  0.0180 -0.0815
  538ERGO    C1 6313  10.142  13.452   8.477 -0.1157  0.1022 -0.0033
  538ERGO    C2 6314  10.105  13.505   8.118 -0.2204  0.1428 -0.0670
  539ERGO   ROH 6315   9.391   4.434   9.427  0.0520  0.2241  0.0885
  539ERGO    R1 6316   9.360   4.623   9.218 -0.0424  0.1394  0.0253
  539ERGO    R2 6317   9.574   4.749   9.097 -0.1012  0.1499 -0.0689
  539ERGO    R3 6318   9.461   4.652   8.870 -0.1274  0.0367 -0.0085
  539ERGO    R4 6319   9.557   4.919   8.797 -0.1151 -0.0089 -0.1593
  539ERGO    R5 6320   9.355   4.842   8.770 -0.1223 -0.0090 -0.1013
  539ERGO    C1 6321   9.442   4.927   8.408 -0.1477 -0.2076 -0.1552
  539ERGO    C2 6322   9.441   5.209   8.109  0.0710 -0.0405 -0.3507
  540ERGO   ROH 6323   6.279  14.420   9.550 -0.0062  0.0481 -0.0164
  540ERGO    R1 6324   6.110  14.285   9.368 -0.0010 -0.0332  0.0398
  540ERGO    R2 6325   5.947  14.419   9.188 -0.0014 -0.1146 -0.0147
  540ERGO    R3 6326   6.075  14.263   9.006 -0.0011 -0.1888  0.0470
  540ERGO    R4 6327   5.841  14.365   8.864  0.0645 -0.1284 -0.0346
  540ERGO    R5 6328   5.900  14.157   8.884 -0.0092 -0.1498  0.0174
  540ERGO    C1 6329   5.901  14.188   8.503  0.1031 -0.2059  0.0118
  540ERGO    C2 6330   5.871  14.004   8.123 -0.1309 -0.3716  0.1225
  541ERGO   ROH 6331  14.297   4.922  10.192 -0.0129 -0.0060  0.1406
  541ERGO    R1 6332  14.088   5.070  10.072 -0.0122 -0.0034  0.1443
  541ERGO    R2 6333  14.098   5.345  10.044  0.0210 -0.0146  0.0847
  541ERGO    R3 6334  14.050   5.287   9.783 -0.0342 -0.0594  0.1035
  541ERGO    R4 6335  14.031   5.580   9.799 -0.3314 -0.0692  0.1217
  541ERGO    R5 6336  13.881   5.444   9.717 -0.2315 -0.2281  0.1837
  541ERGO    C1 6337  13.948   5.662   9.411 -0.5886 -0.1430  0.1610
  541ERGO    C2 6338  14.004   5.875   9.089 -0.0752 -0.1965 -0.0120
  542ERGO   ROH 6339   7.509  12.326   9.507  0.1671 -0.0896  0.0817
  542ERGO    R1 6340   7.557  12.413   9.242  0.2748 -0.1764  0.0711
  542ERGO    R2 6341   7.683  12.254   9.054  0.0810 -0.3580  0.0841
  542ERGO    R3 6342   7.460  12.307   8.907  0.1397 -0.0965  0.0856
  542ERGO    R4 6343   7.660  12.224   8.710  0.0857 -0.1538  0.0654
  542ERGO    R5 6344   7.542  12.407   8.707  0.2388 -0.0579  0.1493
  542ERGO    C1 6345   7.437  12.256   8.373  0.1437  0.2105  0.0559
  542ERGO    C2 6346   7.401  12.217   7.993 -0.0143  0.0559  0.0887
  543ERGO   ROH 6347  16.456  10.697   9.763 -0.3822 -0.2578 -0.1383
  543ERGO    R1 6348  16.616  10.649   9.534 -0.2110 -0.1804 -0.0362
  543ERGO    R2 6349  16.514  10.543   9.301 -0.0275 -0.1456 -0.1326
  543ERGO    R3 6350  16.627  10.764   9.189  0.0162 -0.1026 -0.0057
  543ERGO    R4 6351  16.595  10.576   8.966 -0.1425  0.0767 -0.1403
  543ERGO    R5 6352  16.779  10.678   9.026 -0.0790 -0.0398 -0.1307
  543ERGO    C1 6353  16.747  10.803   8.667 -0.1683  0.2464 -0.0257
  543ERGO    C2 6354  16.834  10.993   8.354 -0.0768  0.0788 -0.0941
  544ERGO   ROH 6355   6.147   2.783   9.533 -0.3136 -0.0574  0.0340
  544ERGO    R1 6356   6.026   2.778   9.277 -0.2331 -0.1042 -0.0031
  544ERGO    R2 6357   6.172   2.794   9.043 -0.1793  0.1205  0.0457
  544ERGO    R3 6358   6.040   2.565   8.982  0.0755 -0.0009 -0.0681
  544ERGO    R4 6359   6.125   2.672   8.723 -0.1434  0.2915 -0.0264
  544ERGO    R5 6360   5.922   2.616   8.780 -0.0593  0.0045  0.0092
  544ERGO    C1 6361   5.973   2.386   8.480  0.1167  0.2772 -0.1752
  544ERGO    C2 6362   6.054   2.290   8.119 -0.0707  0.0303 -0.1614
  545ERGO   ROH 6363  14.914  15.890   9.406  0.0216 -0.1461 -0.0489
  545ERGO    R1 6364  15.100  15.969   9.207  0.0282 -0.1633 -0.0489
  545ERGO    R2 6365  15.360  15.876   9.201 -0.0083 -0.2536 -0.0995
  545ERGO    R3 6366  15.294  15.806   8.947 -0.0566 -0.1670 -0.1120
  545ERGO    R4 6367  15.585  15.837   8.942 -0.0765  0.0915 -0.2162
  545ERGO    R5 6368  15.442  15.934   8.809 -0.2222  0.0456 -0.1027
  545ERGO    C1 6369  15.655  15.749   8.553 -0.1617  0.3739 -0.2959
  545ERGO    C2 6370  15.806  15.754   8.182 -0.3616 -0.3142 -0.1929
  546ERGO   ROH 6371  18.292  15.793   9.666 -0.1837 -0.0619  0.0405
  546ERGO    R1 6372  18.335  15.776   9.387 -0.0627 -0.0529  0.0588
  546ERGO    R2 6373  18.148  15.860   9.202 -0.0098 -0.1134 -0.0187
  546ERGO    R3 6374  18.354  16.010   9.108 -0.0169 -0.0522  0.0612
  546ERGO    R4 6375  18.168  15.989   8.882  0.1336 -0.2234 -0.0552
  546ERGO    R5 6376  18.381  15.939   8.881  0.1618 -0.1271  0.1017
  546ERGO    C1 6377  18.374  16.205   8.608  0.2108 -0.2302 -0.0014
  546ERGO    C2 6378  18.422  16.332   8.335 -0.1757  0.0661  0.0846
  547ERGO   ROH 6379  14.434  14.330   9.450  0.0496 -0.0444  0.0477
  547ERGO    R1 6380  14.289  14.290   9.210  0.0341 -0.0475  0.0574
  547ERGO    R2 6381  14.272  14.483   9.012 -0.0158 -0.0329  0.0751
  547ERGO    R3 6382  14.364  14.282   8.854  0.0033 -0.0044  0.0500
  547ERGO    R4 6383  14.289  14.495   8.668 -0.2390 -0.0777  0.0612
  547ERGO    R5 6384  14.222  14.288   8.662 -0.1215 -0.1186  0.1373
  547ERGO    C1 6385  14.386  14.314   8.318 -0.3512 -0.0769  0.0294
  547ERGO    C2 6386  14.611  14.345   8.112  0.0267 -0.1172 -0.0777
  548ERGO   ROH 6387   9.134   0.261   9.520  0.1106  0.1640  0.0150
  548ERGO    R1 6388   9.097   0.185   9.250  0.0406  0.1045  0.0404
  548ERGO    R2 6389   8.877   0.263   9.102  0.0053  0.0812  0.0750
  548ERGO    R3 6390   9.066   0.355   8.930 -0.0311  0.0351  0.0113
  548ERGO    R4 6391   8.865   0.226   8.759  0.0940 -0.2872  0.1077
  548ERGO    R5 6392   9.079   0.185   8.761  0.1210 -0.1323  0.1898
  548ERGO    C1 6393   9.036   0.291   8.397  0.1117 -0.5450  0.0671
  548ERGO    C2 6394   8.917   0.246   8.082  0.0530  0.3031 -0.1951
  549ERGO   ROH 6395   7.870  15.188   9.373  0.2975 -0.2939  0.1416
  549ERGO    R1 6396   7.957  15.234   9.107  0.1139 -0.1588  0.1014
  549ERGO    R2 6397   7.960  15.035   8.916  0.1017 -0.0962  0.0281
  549ERGO    R3 6398   7.812  15.213   8.774 -0.0805 -0.1226  0.1843
  549ERGO    R4 6399   7.874  14.999   8.583  0.2162  0.1556 -0.0302
  549ERGO    R5 6400   7.911  15.212   8.556 -0.0335  0.2288  0.2028
  549ERGO    C1 6401   7.684  15.145   8.257  0.1117  0.2775  0.0825
  549ERGO    C2 6402   7.404  15.280   8.107  0.0294 -0.0755 -0.1290
  550ERGO   ROH 6403  15.640  14.173   9.513 -0.0683 -0.0136 -0.1461
  550ERGO    R1 6404  15.794  14.097   9.288  0.0502  0.0111 -0.0722
  550ERGO    R2 6405  15.724  14.167   9.030  0.0773 -0.1337 -0.1113
  550ERGO    R3 6406  15.977  14.268   9.023  0.0124  0.0384 -0.0837
  550ERGO    R4 6407  15.904  14.231   8.742  0.1823 -0.3432 -0.0961
  550ERGO    R5 6408  16.082  14.154   8.841  0.1907 -0.1081  0.0988
  550ERGO    C1 6409  16.246  14.364   8.568  0.1825 -0.3036 -0.0614
  550ERGO    C2 6410  16.411  14.367   8.287  0.1222 -0.0461  0.1718
  551ERGO   ROH 6411  17.125   9.792   9.802 -0.1913 -0.0329  0.0831
  551ERGO    R1 6412  16.997   9.798   9.550  0.0427  0.0706 -0.0367
  551ERGO    R2 6413  17.137   9.821   9.312  0.2986 -0.2342  0.0749
  551ERGO    R3 6414  16.999   9.596   9.247  0.0067 -0.0522  0.0455
  551ERGO    R4 6415  17.070   9.716   8.990  0.1782 -0.1246  0.0634
  551ERGO    R5 6416  16.871   9.658   9.055  0.0974  0.1296  0.0438
  551ERGO    C1 6417  16.902   9.443   8.741 -0.1661  0.1100  0.0292
  551ERGO    C2 6418  16.905   9.310   8.429  0.2420  0.0562 -0.0854
  552ERGO   ROH 6419   8.892  15.088   9.277 -0.1503 -0.2597 -0.0467
  552ERGO    R1 6420   8.823  15.070   9.003 -0.1883 -0.2201 -0.0403
  552ERGO    R2 6421   8.952  15.217   8.807 -0.2724 -0.1237 -0.0296
  552ERGO    R3 6422   8.989  14.973   8.694 -0.1996 -0.0852 -0.0884
  552ERGO    R4 6423   9.003  15.161   8.470 -0.2429 -0.0349 -0.0397
  552ERGO    R5 6424   8.874  14.986   8.484 -0.1919 -0.0711 -0.0879
  552ERGO    C1 6425   9.068  14.899   8.168 -0.1575  0.0529 -0.1008
  552ERGO    C2 6426   9.199  14.868   7.913 -0.0494 -0.1666 -0.2164
  553ERGO   ROH 6427  11.072  16.656   9.615 -0.0421  0.0533  0.0040
  553ERGO    R1 6428  10.992  16.579   9.354 -0.2407  0.0653  0.0594
  553ERGO    R2 6429  10.774  16.690   9.226 -0.0617  0.4157  0.0475
  553ERGO    R3 6430  10.956  16.740   9.030  0.0024 -0.0284 -0.0173
  553ERGO    R4 6431  10.698  16.723   8.891 -0.1050  0.5813  0.0731
  553ERGO    R5 6432  10.879  16.611   8.844 -0.3793  0.1369  0.0147
  553ERGO    C1 6433  10.823  16.790   8.511 -0.0701  0.2609  0.0272
  553ERGO    C2 6434  10.594  16.702   8.327 -0.0350  0.1661 -0.1627
  554ERGO   ROH 6435  16.145   6.434  10.041  0.0179 -0.0332  0.0002
  554ERGO    R1 6436  15.966   6.449   9.822 -0.0417  0.0403  0.0535
  554ERGO    R2 6437  15.953   6.669   9.656  0.1420 -0.0353 -0.0615
  554ERGO    R3 6438  15.993   6.484   9.461 -0.1265 -0.1879  0.0232
  554ERGO    R4 6439  15.859   6.707   9.326  0.0701 -0.1066 -0.0495
  554ERGO    R5 6440  15.796   6.498   9.325 -0.1616 -0.0438  0.0843
  554ERGO    C1 6441  15.841   6.555   8.950 -0.2237 -0.2912  0.0371
  554ERGO    C2 6442  15.715   6.639   8.555  0.1845  0.1489  0.1092
  555ERGO   ROH 6443   3.666  13.634   9.482 -0.1172 -0.1713 -0.0406
  555ERGO    R1 6444   3.853  13.665   9.272  0.0443 -0.1698  0.1004
  555ERGO    R2 6445   4.100  13.541   9.273 -0.0559 -0.3795  0.1688
  555ERGO    R3 6446   4.018  13.448   9.031  0.0141 -0.1321  0.0466
  555ERGO    R4 6447   4.276  13.316   9.078 -0.0127 -0.1936 -0.0100
  555ERGO    R5 6448   4.219  13.432   8.903  0.0492 -0.0136  0.0899
  555ERGO    C1 6449   4.301  13.098   8.738  0.0781  0.1470 -0.2288
  555ERGO    C2 6450   4.447  12.967   8.483 -0.0246 -0.3306 -0.0385
  556ERGO   ROH 6451  12.622   0.082   9.262  0.0459 -0.3336 -0.2546
  556ERGO    R1 6452  12.800   0.126   9.047  0.0443 -0.0442 -0.2021
  556ERGO    R2 6453  12.768   0.006   8.800  0.2000  0.0615 -0.2791
  556ERGO    R3 6454  12.780   0.262   8.710 -0.0273  0.1270 -0.1291
  556ERGO    R4 6455  12.743   0.100   8.468  0.0907  0.2436 -0.2198
  556ERGO    R5 6456  12.900   0.247   8.503 -0.0337  0.3562 -0.1485
  556ERGO    C1 6457  12.740   0.396   8.191 -0.1862  0.4110 -0.0444
  556ERGO    C2 6458  12.628   0.414   7.832  0.2246 -0.0983 -0.0155
  557ERGO   ROH 6459   5.363   3.572   9.615 -0.0817  0.1984 -0.0345
  557ERGO    R1 6460   5.478   3.647   9.367  0.0894  0.2192  0.0501
  557ERGO    R2 6461   5.743   3.595   9.305  0.0851  0.0451  0.1497
  557ERGO    R3 6462   5.635   3.476   9.086  0.0886  0.2198  0.0517
  557ERGO    R4 6463   5.883   3.598   8.989  0.0940  0.2638  0.1536
  557ERGO    R5 6464   5.683   3.626   8.906  0.1080  0.3434  0.1649
  557ERGO    C1 6465   5.862   3.487   8.599  0.1024  0.5552  0.0639
  557ERGO    C2 6466   5.769   3.385   8.206 -0.2207  0.1953 -0.2369
  558ERGO   ROH 6467  16.676   7.259   9.939 -0.0045 -0.0988  0.0123
  558ERGO    R1 6468  16.812   7.222   9.694  0.0307 -0.0329  0.0217
  558ERGO    R2 6469  16.755   7.014   9.521  0.1082 -0.0308 -0.0063
  558ERGO    R3 6470  16.725   7.215   9.340  0.0684 -0.0206  0.0119
  558ERGO    R4 6471  16.769   6.974   9.178  0.2488  0.0213 -0.0070
  558ERGO    R5 6472  16.880   7.162   9.166  0.1580  0.0818  0.0582
  558ERGO    C1 6473  16.749   7.139   8.809  0.2930  0.0612  0.0094
  558ERGO    C2 6474  16.706   6.995   8.497  0.0011 -0.0065  0.0654
  559ERGO   ROH 6475  13.739  17.791   9.305 -0.0310  0.1563 -0.0413
  559ERGO    R1 6476  13.680  17.738   9.033  0.0302  0.0823 -0.0408
  559ERGO    R2 6477  13.677  17.936   8.840 -0.0621  0.0534 -0.0702
  559ERGO    R3 6478  13.852  17.771   8.715  0.0486  0.1356 -0.0256
  559ERGO    R4 6479  13.805  17.987   8.524  0.0780  0.1689  0.0039
  559ERGO    R5 6480  13.783  17.774   8.485  0.1591  0.1712 -0.0590
  559ERGO    C1 6481  14.044  17.862   8.221  0.2633  0.3131  0.0889
  559ERGO    C2 6482  14.163  17.944   7.896 -0.0647  0.0075  0.3700
  560ERGO   ROH 6483   8.633   2.702   9.247 -0.4026  0.1258 -0.0198
  560ERGO    R1 6484   8.491   2.681   9.004 -0.2503 -0.0964 -0.0917
  560ERGO    R2 6485   8.579   2.798   8.770 -0.3094  0.0333 -0.0477
  560ERGO    R3 6486   8.555   2.546   8.671  0.1228 -0.0108 -0.0598
  560ERGO    R4 6487   8.664   2.703   8.448 -0.2893  0.2329 -0.1030
  560ERGO    R5 6488   8.485   2.578   8.444 -0.0587 -0.1145 -0.0220
  560ERGO    C1 6489   8.691   2.411   8.169  0.1282  0.3075 -0.1468
  560ERGO    C2 6490   8.832   2.484   7.764  0.1075 -0.2148  0.0755
  561ERGO   ROH 6491  12.099   6.169  10.195 -0.0154  0.2943 -0.0746
  561ERGO    R1 6492  12.115   6.272   9.932 -0.1761  0.1065 -0.1603
  561ERGO    R2 6493  12.334   6.228   9.768 -0.1124  0.2983 -0.1251
  561ERGO    R3 6494  12.145   6.135   9.596  0.0197 -0.1257 -0.0525
  561ERGO    R4 6495  12.392   6.145   9.438 -0.0125  0.2830 -0.1036
  561ERGO    R5 6496  12.201   6.237   9.386 -0.2072 -0.0912 -0.1032
  561ERGO    C1 6497  12.250   6.009   9.084  0.1695 -0.1239 -0.0231
  561ERGO    C2 6498  12.306   5.964   8.833 -0.2273  0.1734  0.1634
  562ERGO   ROH 6499   1.182  10.885  10.195  0.0094 -0.2218 -0.0580
  562ERGO    R1 6500   1.160  10.852   9.915 -0.0024 -0.1557 -0.0631
  562ERGO    R2 6501   1.344  10.710   9.766 -0.0114 -0.1139 -0.0997
  562ERGO    R3 6502   1.124  10.574   9.682 -0.0100 -0.0995 -0.1330
  562ERGO    R4 6503   1.318  10.544   9.464  0.1821 -0.4511  0.0614
  562ERGO    R5 6504   1.113  10.618   9.447  0.2245 -0.3603 -0.2034
  562ERGO    C1 6505   1.095  10.320   9.210  0.2961 -0.6338  0.1241
  562ERGO    C2 6506   1.016  10.198   8.831 -0.0220  0.2171 -0.1620
  563ERGO   ROH 6507   3.515  14.887   9.850 -0.0868 -0.0633 -0.0287
  563ERGO    R1 6508   3.466  15.002   9.596  0.0321  0.0091 -0.0210
  563ERGO    R2 6509   3.647  15.167   9.469  0.2190 -0.1868 -0.0214
  563ERGO    R3 6510   3.618  14.988   9.266  0.0067 -0.1473 -0.0264
  563ERGO    R4 6511   3.647  15.248   9.133  0.1702 -0.1625 -0.0146
  563ERGO    R5 6512   3.486  15.104   9.103  0.0455 -0.0298  0.0278
  563ERGO    C1 6513   3.619  15.128   8.747 -0.0574 -0.1111 -0.0154
  563ERGO    C2 6514   3.679  15.136   8.422 -0.1327  0.1668 -0.1851
  564ERGO   ROH 6515   6.627  12.800   9.658  0.0927  0.1439  0.0096
  564ERGO    R1 6516   6.538  12.826   9.391  0.0430  0.2621  0.0378
  564ERGO    R2 6517   6.648  13.008   9.215  0.2607  0.0883 -0.0070
  564ERGO    R3 6518   6.682  12.788   9.059 -0.1213  0.0238 -0.0091
  564ERGO    R4 6519   6.621  13.005   8.870  0.4837  0.1986 -0.0274
  564ERGO    R5 6520   6.518  12.813   8.885  0.0407  0.4138 -0.1184
  564ERGO    C1 6521   6.637  12.796   8.523  0.2550  0.2022 -0.0413
  564ERGO    C2 6522   6.690  12.850   8.240 -0.0347  0.1132  0.0577
  565ERGO   ROH 6523   2.879  17.544   9.989 -0.0212 -0.1080  0.1507
  565ERGO    R1 6524   2.984  17.406   9.766 -0.0666  0.0456  0.0324
  565ERGO    R2 6525   3.040  17.532   9.526  0.0273  0.2439  0.1524
  565ERGO    R3 6526   3.286  17.423   9.563 -0.0340  0.0815  0.0855
  565ERGO    R4 6527   3.314  17.589   9.323  0.0500  0.1679  0.1617
  565ERGO    R5 6528   3.365  17.378   9.341 -0.0743  0.1322  0.0636
  565ERGO    C1 6529   3.704  17.520   9.240  0.0056 -0.0289  0.1044
  565ERGO    C2 6530   3.772  17.500   8.908  0.1043  0.1135 -0.1519
  566ERGO   ROH 6531   9.180   1.693   9.736 -0.2806 -0.0107  0.0043
  566ERGO    R1 6532   9.307   1.693   9.483 -0.2837  0.0886  0.0020
  566ERGO    R2 6533   9.213   1.545   9.269 -0.1500 -0.0175  0.0118
  566ERGO    R3 6534   9.217   1.786   9.142 -0.3775 -0.0202 -0.0024
  566ERGO    R4 6535   9.152   1.591   8.932  0.1135 -0.1348 -0.0541
  566ERGO    R5 6536   9.313   1.738   8.928 -0.0952  0.1023  0.0949
  566ERGO    C1 6537   9.120   1.843   8.617  0.0533 -0.2057 -0.1058
  566ERGO    C2 6538   8.843   1.667   8.425  0.0216  0.2969 -0.0492
  567ERGO   ROH 6539   7.308  15.917   9.642  0.1804  0.1877  0.0980
  567ERGO    R1 6540   7.278  15.883   9.362 -0.0243 -0.0229  0.1424
  567ERGO    R2 6541   7.034  15.831   9.244 -0.1748  0.2444  0.3265
  567ERGO    R3 6542   7.098  16.049   9.093  0.0834  0.0160  0.0931
  567ERGO    R4 6543   6.951  15.873   8.911 -0.3440  0.0914  0.3481
  567ERGO    R5 6544   7.148  15.959   8.877 -0.2167 -0.2604  0.1294
  567ERGO    C1 6545   6.962  16.101   8.576 -0.2002 -0.2119  0.1415
  567ERGO    C2 6546   6.990  16.136   8.259  0.1723 -0.3162 -0.1821
  568ERGO   ROH 6547  10.863  18.348   9.213  0.0292  0.1171  0.0855
  568ERGO    R1 6548  10.916  18.357   8.935  0.0950  0.1964  0.0996
  568ERGO    R2 6549  11.169  18.397   8.833  0.1552  0.0276  0.1697
  568ERGO    R3 6550  11.116  18.168   8.698 -0.0147  0.1298  0.0607
  568ERGO    R4 6551  11.360  18.273   8.573  0.0618  0.0022  0.1136
  568ERGO    R5 6552  11.176  18.217   8.471  0.0233  0.1882  0.0859
  568ERGO    C1 6553  11.421  17.984   8.295 -0.1523  0.0833 -0.0213
  568ERGO    C2 6554  11.733  17.977   8.057 -0.0368  0.3069 -0.0356
  569ERGO   ROH 6555  12.920  17.040   9.314 -0.0629  0.0455  0.0315
  569ERGO    R1 6556  12.811  17.024   9.053 -0.0235  0.0319  0.0161
  569ERGO    R2 6557  12.741  17.249   8.906  0.1075  0.0271 -0.0505
  569ERGO    R3 6558  12.905  17.137   8.720  0.0877 -0.0939  0.0029
  569ERGO    R4 6559  12.729  17.315   8.567  0.1786 -0.0549 -0.0696
  569ERGO    R5 6560  12.764  17.103   8.530  0.0950 -0.0846 -0.0076
  569ERGO    C1 6561  12.875  17.249   8.195  0.2016 -0.2161 -0.0305
  569ERGO    C2 6562  13.048  17.367   7.931 -0.1397  0.0829  0.0421
  570ERGO   ROH 6563   9.009   3.659   9.327 -0.1387  0.0161 -0.0086
  570ERGO    R1 6564   8.975   3.639   9.047  0.0791  0.0075 -0.0350
  570ERGO    R2 6565   8.810   3.809   8.905  0.1393 -0.0461 -0.1537
  570ERGO    R3 6566   9.034   3.852   8.757  0.2334  0.0237  0.0042
  570ERGO    R4 6567   8.814   3.938   8.584  0.2812 -0.3329 -0.2725
  570ERGO    R5 6568   8.970   3.795   8.534  0.4676 -0.2460 -0.0077
  570ERGO    C1 6569   9.026   4.054   8.259  0.4522 -0.4343 -0.1934
  570ERGO    C2 6570   9.016   4.300   8.041 -0.4339  0.0947  0.1373
  571ERGO   ROH 6571   2.774  16.271   9.657  0.0795  0.1543  0.1255
  571ERGO    R1 6572   2.911  16.295   9.410  0.0111  0.0731  0.0784
  571ERGO    R2 6573   2.781  16.285   9.166 -0.0692  0.0810  0.1194
  571ERGO    R3 6574   2.906  16.524   9.127 -0.0020  0.0342  0.0474
  571ERGO    R4 6575   2.902  16.397   8.863  0.0819 -0.1021  0.1108
  571ERGO    R5 6576   3.077  16.476   8.967  0.0550 -0.0858  0.1431
  571ERGO    C1 6577   3.090  16.686   8.649  0.2329 -0.2528  0.0381
  571ERGO    C2 6578   3.032  16.990   8.457 -0.1058 -0.0337  0.1406
  572ERGO   ROH 6579  11.671   8.328  10.103 -0.1228  0.0430 -0.1383
  572ERGO    R1 6580  11.825   8.282   9.871 -0.1312  0.0763 -0.1504
  572ERGO    R2 6581  11.758   8.091   9.683 -0.0741  0.0234 -0.1160
  572ERGO    R3 6582  11.775   8.302   9.511 -0.1818  0.0069 -0.1475
  572ERGO    R4 6583  11.823   8.065   9.344  0.0111  0.0073 -0.0988
  572ERGO    R5 6584  11.951   8.241   9.360 -0.1094  0.0981 -0.1021
  572ERGO    C1 6585  11.876   8.247   8.986 -0.0403 -0.0173 -0.1183
  572ERGO    C2 6586  11.972   8.023   8.744  0.1767 -0.0822 -0.0975
  573ERGO   ROH 6587   0.019   9.955  10.144 -0.0157  0.2203 -0.1335
  573ERGO    R1 6588  -0.046   9.896   9.874  0.1124  0.0014 -0.1191
  573ERGO    R2 6589  -0.100  10.093   9.688 -0.1324 -0.1596 -0.2203
  573ERGO    R3 6590   0.095   9.968   9.547  0.0702  0.0466 -0.1284
  573ERGO    R4 6591  -0.063  10.110   9.345 -0.2182 -0.4067 -0.2438
  573ERGO    R5 6592  -0.013   9.898   9.345  0.1540 -0.3303 -0.0529
  573ERGO    C1 6593   0.142  10.003   9.012 -0.0777 -0.3571 -0.1711
  573ERGO    C2 6594   0.124  10.094   8.742  0.0054  0.3231 -0.0689
  574ERGO   ROH 6595  11.856  14.850   9.292  0.0987 -0.0301 -0.0715
  574ERGO    R1 6596  11.732  14.818   9.040 -0.0629 -0.0393  0.0090
  574ERGO    R2 6597  11.870  14.736   8.815 -0.1624  0.1573 -0.1217
  574ERGO    R3 6598  11.677  14.545   8.806 -0.0150  0.0007 -0.0514
  574ERGO    R4 6599  11.813  14.526   8.546 -0.0054  0.0309 -0.0588
  574ERGO    R5 6600  11.599  14.551   8.579 -0.0299 -0.1261 -0.0547
  574ERGO    C1 6601  11.598  14.225   8.381  0.2244 -0.1898  0.0438
  574ERGO    C2 6602  11.518  14.079   8.077 -0.2067 -0.0028  0.3600
  575ERGO   ROH 6603  10.171   2.978   9.446  0.3384  0.0015 -0.1354
  575ERGO    R1 6604  10.026   2.987   9.203  0.3807 -0.3735 -0.1788
  575ERGO    R2 6605   9.967   3.224   9.072 -0.3074 -0.4968 -0.1207
  575ERGO    R3 6606  10.087   3.100   8.862  0.1524 -0.0764 -0.1281
  575ERGO    R4 6607   9.963   3.337   8.745 -0.4290 -0.3184 -0.0600
  575ERGO    R5 6608   9.936   3.131   8.680  0.1522 -0.3755 -0.1911
  575ERGO    C1 6609  10.072   3.285   8.358 -0.0681  0.1801 -0.0315
  575ERGO    C2 6610  10.209   3.207   8.012  0.0795  0.0138  0.1225
  576ERGO   ROH 6611   3.205  15.877   9.623  0.1093  0.1008 -0.0683
  576ERGO    R1 6612   3.116  15.941   9.362 -0.0350 -0.1504 -0.0840
  576ERGO    R2 6613   3.263  16.098   9.189 -0.3731  0.1468 -0.1180
  576ERGO    R3 6614   3.233  15.885   9.022  0.0967  0.0302 -0.0685
  576ERGO    R4 6615   3.295  16.111   8.845 -0.2840  0.0981 -0.1120
  576ERGO    R5 6616   3.124  15.976   8.829 -0.0194 -0.2425 -0.1324
  576ERGO    C1 6617   3.285  15.919   8.488  0.2088 -0.0394 -0.0620
  576ERGO    C2 6618   3.309  16.022   8.126 -0.1107 -0.1435  0.2944
  577ERGO   ROH 6619  16.478  15.606   9.637 -0.1031  0.2042  0.1141
  577ERGO    R1 6620  16.471  15.623   9.354 -0.1078  0.0947  0.1074
  577ERGO    R2 6621  16.468  15.864   9.219 -0.0766  0.0422  0.0134
  577ERGO    R3 6622  16.684  15.758   9.092 -0.0951 -0.0382  0.0477
  577ERGO    R4 6623  16.520  15.873   8.878 -0.0214  0.0252  0.0212
  577ERGO    R5 6624  16.595  15.669   8.889 -0.0984 -0.0048  0.0331
  577ERGO    C1 6625  16.753  15.780   8.559 -0.0066 -0.0603  0.0579
  577ERGO    C2 6626  16.889  16.062   8.413  0.0748  0.1349  0.1975
  578ERGO   ROH 6627   8.323  12.093   9.379  0.1866  0.0489 -0.1285
  578ERGO    R1 6628   8.325  12.228   9.131  0.1064 -0.0964 -0.2102
  578ERGO    R2 6629   8.547  12.363   9.037 -0.0086  0.0844 -0.2338
  578ERGO    R3 6630   8.511  12.205   8.819  0.2128 -0.0889 -0.1471
  578ERGO    R4 6631   8.698  12.413   8.730 -0.1519  0.1863 -0.2884
  578ERGO    R5 6632   8.510  12.357   8.634 -0.0822 -0.1800 -0.2243
  578ERGO    C1 6633   8.753  12.292   8.347 -0.0275  0.0831 -0.2388
  578ERGO    C2 6634   8.741  12.160   8.027  0.2200  0.1003  0.0967
  579ERGO   ROH 6635  15.096   1.868   9.892 -0.0996 -0.2674  0.2226
  579ERGO    R1 6636  15.103   1.946   9.620  0.0638 -0.1610  0.2556
  579ERGO    R2 6637  15.253   1.812   9.430  0.0487 -0.1890  0.2624
  579ERGO    R3 6638  15.016   1.796   9.300  0.0882  0.0281  0.1593
  579ERGO    R4 6639  15.206   1.662   9.123  0.0043 -0.3483  0.3457
  579ERGO    R5 6640  15.072   1.825   9.069  0.2399 -0.2084  0.1642
  579ERGO    C1 6641  14.956   1.559   8.821  0.0157 -0.2372  0.2975
  579ERGO    C2 6642  14.906   1.598   8.460 -0.0368  0.2814  0.2265
  580ERGO   ROH 6643   7.281   4.174   9.461  0.1158 -0.2101  0.0299
  580ERGO    R1 6644   7.362   4.282   9.213  0.1218 -0.1117  0.0732
  580ERGO    R2 6645   7.542   4.153   9.046  0.0784 -0.0790 -0.0061
  580ERGO    R3 6646   7.343   4.184   8.863  0.0668  0.0567  0.0297
  580ERGO    R4 6647   7.583   4.134   8.703  0.0153  0.0044 -0.0182
  580ERGO    R5 6648   7.446   4.302   8.682  0.0848  0.0643  0.0495
  580ERGO    C1 6649   7.421   4.152   8.332 -0.0325  0.1804  0.0083
  580ERGO    C2 6650   7.360   4.036   7.952 -0.0330 -0.2651 -0.0354
  581ERGO   ROH 6651   2.471   6.859   9.685 -0.1040 -0.0390  0.2296
  581ERGO    R1 6652   2.215   6.796   9.581 -0.0146 -0.0838  0.0301
  581ERGO    R2 6653   1.985   6.924   9.665 -0.1418 -0.3412  0.0868
  581ERGO    R3 6654   1.953   6.971   9.400 -0.0447 -0.0290  0.1261
  581ERGO    R4 6655   1.684   7.003   9.513 -0.1116 -0.3043  0.0462
  581ERGO    R5 6656   1.740   6.873   9.347  0.0277 -0.0726 -0.0906
  581ERGO    C1 6657   1.480   7.092   9.175 -0.0029  0.0102  0.0594
  581ERGO    C2 6658   1.243   7.308   9.111  0.3683  0.0252  0.2288
  582ERGO   ROH 6659   6.746   3.347   7.651 -0.1430 -0.0303 -0.0605
  582ERGO    R1 6660   6.476   3.313   7.730 -0.1950  0.0010 -0.2199
  582ERGO    R2 6661   6.274   3.258   7.550 -0.0461 -0.2952 -0.3055
  582ERGO    R3 6662   6.227   3.048   7.716 -0.1075 -0.0900 -0.0584
  582ERGO    R4 6663   5.973   3.090   7.578 -0.0461 -0.2815 -0.2278
  582ERGO    R5 6664   6.003   3.081   7.793 -0.1436 -0.0070 -0.2010
  582ERGO    C1 6665   5.754   2.796   7.751 -0.1038 -0.0809  0.0495
  582ERGO    C2 6666   5.353   2.739   7.789  0.0361  0.0079  0.1440
  583ERGO   ROH 6667  16.947   6.157   9.824  0.3087  0.0691 -0.0292
  583ERGO    R1 6668  16.873   6.175   9.551 -0.0897 -0.0473  0.0648
  583ERGO    R2 6669  17.055   6.143   9.345 -0.2912  0.3242 -0.1786
  583ERGO    R3 6670  16.877   5.955   9.261 -0.0461 -0.0184  0.0426
  583ERGO    R4 6671  17.064   5.984   9.038 -0.2971  0.2568 -0.1445
  583ERGO    R5 6672  16.848   6.000   9.028 -0.3458 -0.1287  0.0531
  583ERGO    C1 6673  16.903   5.715   8.781 -0.0702 -0.1041  0.0830
  583ERGO    C2 6674  16.769   5.442   8.443 -0.0330 -0.0146 -0.0808
  584ERGO   ROH 6675  13.438   1.958   9.642  0.0600 -0.0063  0.0201
  584ERGO    R1 6676  13.589   1.934   9.404 -0.1144 -0.1775 -0.0776
  584ERGO    R2 6677  13.479   1.846   9.166 -0.3936  0.0391 -0.0394
  584ERGO    R3 6678  13.581   2.079   9.070 -0.1020 -0.0832 -0.0358
  584ERGO    R4 6679  13.527   1.919   8.832 -0.2184 -0.0393 -0.0319
  584ERGO    R5 6680  13.715   2.014   8.884 -0.1257 -0.2496  0.0079
  584ERGO    C1 6681  13.650   2.180   8.547  0.1574 -0.1999 -0.0239
  584ERGO    C2 6682  13.737   2.449   8.300 -0.1045 -0.2336  0.0657
  585ERGO   ROH 6683   9.988  18.223   9.195  0.3138  0.2578 -0.0411
  585ERGO    R1 6684   9.984  18.274   8.917  0.1616  0.2696 -0.0373
  585ERGO    R2 6685  10.066  18.088   8.730  0.2215  0.3383 -0.0805
  585ERGO    R3 6686   9.819  18.132   8.625  0.1433  0.1640  0.0239
  585ERGO    R4 6687   9.979  18.031   8.400  0.1465  0.3687 -0.0661
  585ERGO    R5 6688   9.863  18.216   8.405 -0.0085  0.2705  0.0334
  585ERGO    C1 6689   9.697  18.040   8.109  0.0295  0.2226  0.0401
  585ERGO    C2 6690   9.391  18.044   7.839  0.2092  0.0285  0.0081
  586ERGO   ROH 6691   9.325  16.100   9.267  0.3013  0.3060 -0.1542
  586ERGO    R1 6692   9.208  16.235   9.048  0.0352  0.1724 -0.0997
  586ERGO    R2 6693   9.327  16.245   8.799 -0.0168  0.4395 -0.1178
  586ERGO    R3 6694   9.087  16.147   8.717  0.1290  0.0551 -0.1028
  586ERGO    R4 6695   9.238  16.190   8.469  0.0310  0.3424 -0.1145
  586ERGO    R5 6696   9.040  16.267   8.515 -0.0943  0.0101 -0.0785
  586ERGO    C1 6697   8.962  16.065   8.200  0.1957 -0.0750 -0.0984
  586ERGO    C2 6698   8.822  16.245   7.964 -0.1755 -0.0490 -0.2315
  587ERGO   ROH 6699   6.388   1.340   9.452 -0.0834 -0.0339  0.0301
  587ERGO    R1 6700   6.271   1.124   9.312 -0.0901  0.0008 -0.0191
  587ERGO    R2 6701   6.137   1.157   9.072 -0.0236  0.0478 -0.0516
  587ERGO    R3 6702   6.312   0.968   8.986 -0.0373  0.0225 -0.0228
  587ERGO    R4 6703   6.088   0.950   8.799 -0.1078 -0.0969  0.0724
  587ERGO    R5 6704   6.174   0.786   8.913 -0.0466 -0.0294  0.1229
  587ERGO    C1 6705   6.224   0.652   8.560 -0.1699 -0.2050  0.1717
  587ERGO    C2 6706   6.103   0.583   8.270  0.0364 -0.1809  0.1143
  588ERGO   ROH 6707   8.051   6.103   9.836 -0.3454  0.0410 -0.0000
  588ERGO    R1 6708   8.054   5.921   9.620 -0.3731 -0.0679  0.0909
  588ERGO    R2 6709   7.823   5.832   9.497 -0.3738  0.1684 -0.0790
  588ERGO    R3 6710   7.947   5.921   9.272 -0.0471 -0.0966 -0.0134
  588ERGO    R4 6711   7.757   5.717   9.177 -0.3059  0.1672 -0.0934
  588ERGO    R5 6712   7.972   5.725   9.136 -0.2511 -0.1875  0.0730
  588ERGO    C1 6713   7.835   5.734   8.780  0.0404 -0.0823 -0.0399
  588ERGO    C2 6714   7.840   5.701   8.393  0.0386 -0.2673  0.0236
  589ERGO   ROH 6715   0.783  17.721   9.967  0.1219  0.0961  0.0816
  589ERGO    R1 6716   0.805  17.884   9.736  0.0689 -0.0919 -0.0582
  589ERGO    R2 6717   0.696  17.812   9.492 -0.0949 -0.2351  0.0551
  589ERGO    R3 6718   0.577  18.055   9.511  0.0217 -0.1671 -0.0681
  589ERGO    R4 6719   0.578  17.995   9.224 -0.2151 -0.4222 -0.0216
  589ERGO    R5 6720   0.655  18.175   9.319 -0.0675 -0.3679 -0.2351
  589ERGO    C1 6721   0.397  18.330   9.086 -0.1757 -0.4672 -0.1819
  589ERGO    C2 6722   0.473  18.367   8.833 -0.1465  0.0046 -0.0388
  590ERGO   ROH 6723  11.924  17.229   9.503  0.0884  0.0009 -0.0336
  590ERGO    R1 6724  11.760  17.206   9.273  0.0308 -0.2100  0.0271
  590ERGO    R2 6725  11.802  17.355   9.044 -0.2897 -0.0951  0.0371
  590ERGO    R3 6726  11.805  17.111   8.925  0.0446 -0.0743 -0.0083
  590ERGO    R4 6727  11.777  17.301   8.704 -0.2465 -0.0733  0.0301
  590ERGO    R5 6728  11.648  17.131   8.745 -0.0027 -0.2658  0.0115
  590ERGO    C1 6729  11.764  17.040   8.394  0.0925 -0.0412 -0.0166
  590ERGO    C2 6730  11.857  16.829   8.117  0.1268 -0.2066 -0.0817
  591ERGO   ROH 6731  12.704  10.685   9.789 -0.0695 -0.2987 -0.2918
  591ERGO    R1 6732  12.625  10.802   9.543 -0.1280 -0.3758 -0.3097
  591ERGO    R2 6733  12.785  10.981   9.407 -0.3478 -0.0737 -0.1787
  591ERGO    R3 6734  12.750  10.806   9.201  0.0631 -0.0933 -0.2406
  591ERGO    R4 6735  12.897  11.031   9.084 -0.1898  0.1588 -0.0906
  591ERGO    R5 6736  12.710  10.946   9.011 -0.0142 -0.1146 -0.2413
  591ERGO    C1 6737  12.930  10.896   8.703  0.2881  0.2758 -0.0973
  591ERGO    C2 6738  13.205  11.043   8.510 -0.0347 -0.2115  0.2333
  592ERGO   ROH 6739   7.468  12.806   9.482 -0.0617  0.1277  0.0680
  592ERGO    R1 6740   7.590  12.925   9.256 -0.0742  0.0995  0.0467
  592ERGO    R2 6741   7.659  12.781   9.031 -0.0973  0.0735  0.0572
  592ERGO    R3 6742   7.509  12.968   8.904 -0.0990  0.0667  0.0481
  592ERGO    R4 6743   7.700  12.876   8.701 -0.1033  0.0526  0.0500
  592ERGO    R5 6744   7.664  13.083   8.762 -0.1008  0.0570  0.0376
  592ERGO    C1 6745   7.582  13.108   8.390 -0.1082  0.0339  0.0372
  592ERGO    C2 6746   7.413  13.252   8.229 -0.1626  0.1985  0.1740
  593ERGO   ROH 6747  15.211   3.266  10.081  0.2025  0.0770  0.0095
  593ERGO    R1 6748  15.330   3.230   9.826 -0.0191  0.0206 -0.0876
  593ERGO    R2 6749  15.576   3.109   9.792  0.0827  0.2670 -0.2466
  593ERGO    R3 6750  15.438   2.949   9.622  0.0800 -0.0148  0.0120
  593ERGO    R4 6751  15.719   2.903   9.554  0.0664  0.3042 -0.2893
  593ERGO    R5 6752  15.560   2.960   9.417 -0.1734  0.0204 -0.1417
  593ERGO    C1 6753  15.672   2.633   9.256  0.0544  0.0613 -0.0714
  593ERGO    C2 6754  15.852   2.367   9.035  0.1701 -0.1955 -0.0427
  594ERGO   ROH 6755   8.984  14.589   7.485  0.4065 -0.0565 -0.0269
  594ERGO    R1 6756   8.846  14.832   7.526  0.3190 -0.1361  0.1649
  594ERGO    R2 6757   8.972  15.078   7.517  0.2040 -0.0738  0.2023
  594ERGO    R3 6758   8.780  15.135   7.334  0.0705 -0.0771  0.3392
  594ERGO    R4 6759   8.868  15.396   7.433  0.1673 -0.0755  0.2404
  594ERGO    R5 6760   8.663  15.322   7.427  0.1563 -0.0565  0.4032
  594ERGO    C1 6761   8.627  15.635   7.212  0.0206 -0.0795  0.3913
  594ERGO    C2 6762   8.548  15.894   7.362 -0.1251  0.0426 -0.1162
  595ERGO   ROH 6763  10.307   4.146   8.789 -0.2120 -0.1409  0.1674
  595ERGO    R1 6764  10.296   4.092   8.511  0.0615 -0.0499  0.1359
  595ERGO    R2 6765  10.064   4.120   8.363  0.0960 -0.4170  0.0053
  595ERGO    R3 6766  10.220   4.280   8.208 -0.0952 -0.0602  0.1679
  595ERGO    R4 6767   9.980   4.232   8.047  0.0529 -0.3722  0.0319
  595ERGO    R5 6768  10.186   4.198   7.986  0.1440  0.0087  0.1036
  595ERGO    C1 6769  10.078   4.447   7.718 -0.1516 -0.0112  0.2001
  595ERGO    C2 6770  10.003   4.624   7.501 -0.0985 -0.1703 -0.1445
  596ERGO   ROH 6771  10.307   1.557   9.407 -0.0400  0.1198 -0.0834
  596ERGO    R1 6772  10.417   1.581   9.147 -0.0062  0.0815 -0.0728
  596ERGO    R2 6773  10.324   1.434   8.932 -0.0096  0.0837 -0.0735
  596ERGO    R3 6774  10.298   1.679   8.818  0.0487  0.0811 -0.0928
  596ERGO    R4 6775  10.250   1.489   8.599 -0.2040  0.0744 -0.0332
  596ERGO    R5 6776  10.394   1.654   8.600 -0.1122 -0.0049 -0.1546
  596ERGO    C1 6777  10.183   1.752   8.298 -0.2625  0.0665 -0.0277
  596ERGO    C2 6778   9.916   1.670   8.124  0.0850 -0.2175 -0.1850
  597ERGO   ROH 6779   3.745  13.166   9.407 -0.0505  0.1842  0.0148
  597ERGO    R1 6780   3.739  13.028   9.160  0.0326  0.1200  0.0446
  597ERGO    R2 6781   3.669  13.151   8.923 -0.0996  0.0137  0.0114
  597ERGO    R3 6782   3.908  13.053   8.839 -0.0232  0.1935  0.0246
  597ERGO    R4 6783   3.743  13.066   8.596 -0.1166 -0.2533  0.0774
  597ERGO    R5 6784   3.850  12.891   8.671  0.1050 -0.0471  0.2192
  597ERGO    C1 6785   4.011  12.924   8.327 -0.0546 -0.2400  0.1282
  597ERGO    C2 6786   4.067  13.014   8.011 -0.3213 -0.3386 -0.1488
  598ERGO   ROH 6787  11.775   7.226   9.940 -0.2297 -0.1393 -0.0995
  598ERGO    R1 6788  11.737   7.129   9.677 -0.3259 -0.1085 -0.0966
  598ERGO    R2 6789  11.513   7.190   9.527 -0.2094  0.2136 -0.1423
  598ERGO    R3 6790  11.697   7.273   9.345 -0.0483 -0.0781 -0.1201
  598ERGO    R4 6791  11.475   7.169   9.184 -0.2218  0.3050 -0.1472
  598ERGO    R5 6792  11.685   7.111   9.169 -0.3102 -0.0496 -0.1352
  598ERGO    C1 6793  11.626   7.236   8.814 -0.0778  0.0843 -0.1292
  598ERGO    C2 6794  11.773   7.416   8.610  0.2816  0.0691  0.0557
  599ERGO   ROH 6795  13.438   7.798  10.278  0.2284 -0.1320 -0.0871
  599ERGO    R1 6796  13.598   7.795  10.045  0.2410 -0.3343 -0.0780
  599ERGO    R2 6797  13.632   7.568   9.890 -0.2486 -0.3214 -0.2220
  599ERGO    R3 6798  13.547   7.731   9.690  0.1157  0.0025 -0.1235
  599ERGO    R4 6799  13.659   7.498   9.553 -0.3782 -0.1607 -0.2666
  599ERGO    R5 6800  13.712   7.707   9.519  0.0793 -0.2446 -0.1254
  599ERGO    C1 6801  13.595   7.611   9.169 -0.1117  0.2368 -0.2001
  599ERGO    C2 6802  13.516   7.548   8.857  0.1058 -0.1343 -0.0145
  600ERGO   ROH 6803  16.760   1.496  10.000 -0.2390  0.0972  0.0002
  600ERGO    R1 6804  16.622   1.607   9.779 -0.3195  0.0466  0.0253
  600ERGO    R2 6805  16.673   1.532   9.518 -0.1322  0.2713 -0.0044
  600ERGO    R3 6806  16.405   1.485   9.514 -0.0734 -0.0871 -0.1179
  600ERGO    R4 6807  16.472   1.556   9.238 -0.1123  0.4190 -0.0075
  600ERGO    R5 6808  16.318   1.648   9.362 -0.2646  0.0300  0.1086
  600ERGO    C1 6809  16.104   1.526   9.070 -0.0455  0.1685 -0.1159
  600ERGO    C2 6810  15.918   1.481   8.755 -0.0893  0.2038 -0.0836
  601ERGO   ROH 6811  12.301  16.240   9.316  0.0302  0.0249 -0.0936
  601ERGO    R1 6812  12.198  16.206   9.055  0.0477  0.0127 -0.0997
  601ERGO    R2 6813  12.337  16.280   8.829  0.0544  0.0249 -0.0955
  601ERGO    R3 6814  12.292  16.022   8.756  0.0837  0.0192 -0.0913
  601ERGO    R4 6815  12.339  16.164   8.503 -0.1770  0.0651 -0.1118
  601ERGO    R5 6816  12.166  16.039   8.552 -0.0915 -0.0002  0.0154
  601ERGO    C1 6817  12.297  15.855   8.245 -0.2842  0.0834 -0.1174
  601ERGO    C2 6818  12.492  15.772   8.060 -0.4017 -0.0683 -0.1090
  602ERGO   ROH 6819  13.111  15.074   9.460 -0.0618 -0.1155  0.0067
  602ERGO    R1 6820  13.219  15.232   9.252 -0.0762 -0.0924  0.0162
  602ERGO    R2 6821  13.485  15.218   9.178 -0.0627 -0.0309  0.0441
  602ERGO    R3 6822  13.380  15.172   8.931 -0.0276 -0.0601  0.0352
  602ERGO    R4 6823  13.671  15.177   8.889 -0.0236 -0.1077  0.0802
  602ERGO    R5 6824  13.522  15.296   8.783  0.0118 -0.1075  0.0357
  602ERGO    C1 6825  13.681  15.111   8.489  0.0322 -0.1798  0.0928
  602ERGO    C2 6826  13.595  15.047   8.169 -0.0790 -0.0960 -0.0501
  603ERGO   ROH 6827   0.071   0.870   9.905  0.1361 -0.1719  0.0975
  603ERGO    R1 6828   0.108   0.798   9.633  0.1074 -0.0595  0.0637
  603ERGO    R2 6829  -0.081   0.658   9.489  0.1892 -0.1985  0.0958
  603ERGO    R3 6830  -0.057   0.867   9.316 -0.0724 -0.1270  0.1396
  603ERGO    R4 6831  -0.177   0.653   9.156  0.2736 -0.2905  0.0723
  603ERGO    R5 6832   0.003   0.765   9.108  0.1296 -0.0134  0.1353
  603ERGO    C1 6833  -0.209   0.846   8.801  0.0771 -0.2769  0.0999
  603ERGO    C2 6834  -0.483   0.885   8.548  0.0179  0.1709  0.3736
  604ERGO   ROH 6835   9.527  12.553   9.266  0.1881  0.2932 -0.0026
  604ERGO    R1 6836   9.680  12.421   9.069  0.1036  0.1568  0.0204
  604ERGO    R2 6837   9.609  12.175   8.964 -0.0367  0.1618  0.0897
  604ERGO    R3 6838   9.630  12.306   8.727  0.0134  0.0926  0.0565
  604ERGO    R4 6839   9.619  12.022   8.654 -0.0955  0.0886  0.1242
  604ERGO    R5 6840   9.771  12.166   8.593 -0.0443  0.0107  0.0886
  604ERGO    C1 6841   9.643  12.056   8.251 -0.0828 -0.0190  0.1131
  604ERGO    C2 6842   9.754  12.116   7.929 -0.1797 -0.0451  0.0272
  605ERGO   ROH 6843   6.875   6.472   9.609 -0.1347  0.1037 -0.0028
  605ERGO    R1 6844   6.771   6.567   9.364 -0.0712  0.1128 -0.0255
  605ERGO    R2 6845   6.933   6.646   9.154 -0.0199 -0.0138 -0.0285
  605ERGO    R3 6846   6.785   6.466   9.014 -0.1085  0.0415 -0.0080
  605ERGO    R4 6847   6.944   6.605   8.811  0.2035 -0.2674  0.0042
  605ERGO    R5 6848   6.727   6.581   8.812  0.1681 -0.0339 -0.1388
  605ERGO    C1 6849   6.811   6.414   8.480  0.2504 -0.3630  0.0425
  605ERGO    C2 6850   6.996   6.317   8.217 -0.3286  0.0750  0.0109
  606ERGO   ROH 6851   5.140  15.360   9.400  0.2625  0.0153 -0.0800
  606ERGO    R1 6852   5.098  15.403   9.123  0.1627  0.0861 -0.0536
  606ERGO    R2 6853   5.272  15.311   8.930  0.0823  0.1204 -0.1390
  606ERGO    R3 6854   5.048  15.196   8.828  0.0359  0.1633 -0.0882
  606ERGO    R4 6855   5.210  15.264   8.593  0.0900 -0.0470 -0.1189
  606ERGO    R5 6856   5.003  15.321   8.629  0.1104  0.0710 -0.1666
  606ERGO    C1 6857   4.964  15.129   8.301  0.0509 -0.1042 -0.0594
  606ERGO    C2 6858   4.932  14.954   7.973 -0.0247 -0.2056 -0.1098
  607ERGO   ROH 6859   3.878   2.849   9.695 -0.1109 -0.1460 -0.0317
  607ERGO    R1 6860   3.991   2.928   9.447 -0.0011 -0.2519 -0.0159
  607ERGO    R2 6861   3.906   2.825   9.206 -0.0858 -0.1517 -0.0313
  607ERGO    R3 6862   3.875   3.087   9.141  0.1968 -0.1116 -0.0192
  607ERGO    R4 6863   3.844   2.943   8.887 -0.3265 -0.1018  0.0325
  607ERGO    R5 6864   3.981   3.108   8.927 -0.0419 -0.2849 -0.1577
  607ERGO    C1 6865   3.778   3.258   8.641 -0.2013 -0.0351  0.0810
  607ERGO    C2 6866   3.542   3.379   8.408 -0.0355 -0.1619 -0.2110
  608ERGO   ROH 6867  13.988   3.126   9.601 -0.1662  0.1696  0.0197
  608ERGO    R1 6868  13.948   3.256   9.353 -0.0141  0.1794 -0.0002
  608ERGO    R2 6869  13.788   3.480   9.326 -0.1434  0.0729 -0.1202
  608ERGO    R3 6870  14.012   3.587   9.215 -0.1058  0.2449  0.1129
  608ERGO    R4 6871  13.791   3.745   9.104 -0.1149  0.0837 -0.1074
  608ERGO    R5 6872  13.947   3.642   8.991  0.0807  0.2029  0.0458
  608ERGO    C1 6873  14.003   4.000   8.871 -0.0630  0.2515  0.1187
  608ERGO    C2 6874  14.230   4.240   8.699 -0.0827  0.0169  0.2574
  609ERGO   ROH 6875   3.332  14.532   9.563 -0.0602 -0.0521  0.0916
  609ERGO    R1 6876   3.227  14.560   9.302  0.0200  0.0661  0.0725
  609ERGO    R2 6877   3.218  14.802   9.170  0.2551  0.0845  0.1007
  609ERGO    R3 6878   3.351  14.664   8.976  0.1781 -0.0039  0.1074
  609ERGO    R4 6879   3.158  14.830   8.831  0.1925  0.0283  0.1058
  609ERGO    R5 6880   3.183  14.614   8.813  0.1236  0.0095  0.1521
  609ERGO    C1 6881   3.247  14.717   8.452  0.0836 -0.0873  0.1151
  609ERGO    C2 6882   3.439  14.779   8.206 -0.0181 -0.1180 -0.0696
  610ERGO   ROH 6883  18.089  17.365   9.941  0.2787  0.0201 -0.2339
  610ERGO    R1 6884  18.191  17.347   9.678  0.2368  0.1249 -0.2586
  610ERGO    R2 6885  18.028  17.307   9.458  0.2143  0.0522 -0.2327
  610ERGO    R3 6886  18.153  17.530   9.366  0.0516  0.1487 -0.2221
  610ERGO    R4 6887  18.028  17.411   9.128  0.0601  0.1297 -0.2091
  610ERGO    R5 6888  18.238  17.466   9.151  0.0300  0.2522 -0.2590
  610ERGO    C1 6889  18.146  17.682   8.850 -0.1824  0.2657 -0.1854
  610ERGO    C2 6890  18.239  17.706   8.518 -0.2944  0.0678  0.0317
  611ERGO   ROH 6891  14.875  18.375   9.507  0.0776 -0.2274 -0.1621
  611ERGO    R1 6892  14.987  18.512   9.286  0.0576 -0.2302 -0.1743
  611ERGO    R2 6893  14.881  18.496   9.032 -0.1192 -0.0290 -0.1159
  611ERGO    R3 6894  14.878  18.767   9.050  0.1285 -0.0324  0.0030
  611ERGO    R4 6895  14.947  18.712   8.770 -0.2885  0.0169 -0.1216
  611ERGO    R5 6896  15.059  18.838   8.909  0.0050 -0.1292 -0.2120
  611ERGO    C1 6897  14.984  19.093   8.636 -0.1545  0.0404 -0.0133
  611ERGO    C2 6898  14.888  19.127   8.235  0.0033  0.4294  0.0428
  612ERGO   ROH 6899  11.522   9.601  10.107 -0.0273 -0.0398  0.2022
  612ERGO    R1 6900  11.455   9.461   9.870  0.0755 -0.0789  0.1966
  612ERGO    R2 6901  11.276   9.559   9.684  0.0072 -0.1994  0.1990
  612ERGO    R3 6902  11.483   9.519   9.512  0.0386 -0.0462  0.1990
  612ERGO    R4 6903  11.261   9.606   9.342  0.0239 -0.0499  0.2179
  612ERGO    R5 6904  11.381   9.426   9.317  0.0917  0.0049  0.1467
  612ERGO    C1 6905  11.446   9.596   8.982  0.0631  0.1811  0.2285
  612ERGO    C2 6906  11.449   9.698   8.694  0.1016 -0.0290  0.1019
  613ERGO   ROH 6907   4.092  18.322   9.752  0.0731 -0.2228  0.0191
  613ERGO    R1 6908   4.049  18.372   9.477  0.1043 -0.0594  0.0427
  613ERGO    R2 6909   4.217  18.532   9.326  0.2396 -0.1359  0.1069
  613ERGO    R3 6910   4.228  18.313   9.166  0.0402 -0.0763  0.0097
  613ERGO    R4 6911   4.333  18.531   9.001  0.2114 -0.0964  0.0969
  613ERGO    R5 6912   4.171  18.395   8.948  0.0927  0.0649  0.0504
  613ERGO    C1 6913   4.411  18.324   8.661  0.0078 -0.0174 -0.0002
  613ERGO    C2 6914   4.449  18.339   8.378  0.0956  0.1799  0.4109
  614ERGO   ROH 6915   3.632  15.695   9.320 -0.0558  0.0344  0.0343
  614ERGO    R1 6916   3.766  15.731   9.073 -0.0206  0.0810  0.0612
  614ERGO    R2 6917   3.660  15.646   8.832  0.1303 -0.1020  0.0628
  614ERGO    R3 6918   3.700  15.904   8.760 -0.0980 -0.0858 -0.0175
  614ERGO    R4 6919   3.739  15.752   8.513 -0.0126 -0.1310  0.0161
  614ERGO    R5 6920   3.878  15.895   8.600 -0.1134  0.0135 -0.0460
  614ERGO    C1 6921   3.823  16.057   8.259 -0.3101 -0.1329 -0.0865
  614ERGO    C2 6922   3.822  16.047   7.849  0.0241  0.2018  0.2089
  615ERGO   ROH 6923  10.284  15.906   9.446  0.0556  0.0333  0.0792
  615ERGO    R1 6924  10.279  15.832   9.173  0.2230  0.0390  0.0732
  615ERGO    R2 6925  10.095  15.935   8.994  0.0569 -0.2739  0.0532
  615ERGO    R3 6926  10.317  16.002   8.853 -0.0341  0.1332  0.0907
  615ERGO    R4 6927  10.107  15.975   8.651  0.0082 -0.0596  0.0758
  615ERGO    R5 6928  10.300  15.874   8.651  0.1569  0.2220  0.0182
  615ERGO    C1 6929  10.322  16.061   8.319 -0.1056  0.4474  0.1240
  615ERGO    C2 6930  10.373  16.301   8.119 -0.0949 -0.1226 -0.0607
  616ERGO   ROH 6931   5.730  17.250   9.811 -0.1227 -0.2003 -0.0511
  616ERGO    R1 6932   5.724  17.178   9.538 -0.1200 -0.1092 -0.0759
  616ERGO    R2 6933   5.567  17.309   9.353 -0.1135 -0.0417 -0.0370
  616ERGO    R3 6934   5.802  17.338   9.220 -0.1088 -0.0050 -0.0201
  616ERGO    R4 6935   5.602  17.454   9.041 -0.0854  0.1222  0.0411
  616ERGO    R5 6936   5.747  17.299   8.991 -0.1102  0.1287 -0.0415
  616ERGO    C1 6937   5.844  17.565   8.735 -0.0647  0.2519  0.1023
  616ERGO    C2 6938   6.139  17.694   8.591  0.3633 -0.0464 -0.2289
  617ERGO   ROH 6939   1.421  13.590   9.503  0.3113 -0.1994  0.0042
  617ERGO    R1 6940   1.522  13.590   9.239  0.0672 -0.3904 -0.0915
  617ERGO    R2 6941   1.406  13.444   9.035 -0.4192 -0.1487  0.0108
  617ERGO    R3 6942   1.401  13.685   8.909 -0.0514 -0.1279  0.0227
  617ERGO    R4 6943   1.456  13.492   8.696 -0.4716 -0.2397 -0.0114
  617ERGO    R5 6944   1.573  13.669   8.743 -0.1343 -0.4322 -0.0499
  617ERGO    C1 6945   1.480  13.746   8.381 -0.1568 -0.2731 -0.0132
  617ERGO    C2 6946   1.563  13.644   7.992 -0.2146 -0.1289  0.2485
  618ERGO   ROH 6947  15.320  11.659   9.977  0.2558 -0.0242 -0.0718
  618ERGO    R1 6948  15.336  11.702   9.697 -0.0300  0.0446 -0.0808
  618ERGO    R2 6949  15.491  11.544   9.532  0.0889  0.3080 -0.2241
  618ERGO    R3 6950  15.258  11.513   9.396  0.0246 -0.0357 -0.0454
  618ERGO    R4 6951  15.465  11.428   9.207  0.0137  0.2714 -0.2052
  618ERGO    R5 6952  15.310  11.577   9.172 -0.2392  0.0473 -0.0876
  618ERGO    C1 6953  15.230  11.331   8.892 -0.0904 -0.0727 -0.0264
  618ERGO    C2 6954  15.234  11.271   8.560 -0.2500 -0.2982 -0.1656
  619ERGO   ROH 6955   6.073   8.341   9.801 -0.1530  0.0900 -0.0689
  619ERGO    R1 6956   6.081   8.500   9.567 -0.0481  0.0904 -0.0654
  619ERGO    R2 6957   6.297   8.662   9.504  0.0851 -0.0966 -0.0923
  619ERGO    R3 6958   6.291   8.523   9.270 -0.0709 -0.0847 -0.0966
  619ERGO    R4 6959   6.309   8.804   9.190  0.0544 -0.0868 -0.0892
  619ERGO    R5 6960   6.160   8.660   9.124 -0.0489 -0.0049 -0.0448
  619ERGO    C1 6961   6.310   8.758   8.787 -0.1099 -0.0700 -0.0913
  619ERGO    C2 6962   6.502   8.820   8.445 -0.0288  0.4073  0.0566
  620ERGO   ROH 6963   6.432   4.623   9.606  0.1350 -0.0544 -0.0711
  620ERGO    R1 6964   6.494   4.534   9.345  0.0158 -0.2941 -0.0215
  620ERGO    R2 6965   6.378   4.310   9.232 -0.4158 -0.1200  0.0487
  620ERGO    R3 6966   6.315   4.483   9.033 -0.0270 -0.0649 -0.0345
  620ERGO    R4 6967   6.377   4.232   8.895 -0.3085 -0.1856  0.0637
  620ERGO    R5 6968   6.465   4.427   8.855  0.0087 -0.3237  0.0766
  620ERGO    C1 6969   6.317   4.349   8.512  0.1189 -0.1720 -0.0058
  620ERGO    C2 6970   6.183   4.383   8.251 -0.1401 -0.0297 -0.1537
  621ERGO   ROH 6971   2.173   8.284   9.858  0.3227 -0.1594  0.0324
  621ERGO    R1 6972   2.244   8.366   9.597  0.2367 -0.2089 -0.0074
  621ERGO    R2 6973   2.469   8.272   9.467  0.1706 -0.2725 -0.0857
  621ERGO    R3 6974   2.291   8.205   9.273  0.0780 -0.2646 -0.0027
  621ERGO    R4 6975   2.552   8.132   9.162  0.0435 -0.0196 -0.2382
  621ERGO    R5 6976   2.402   8.260   9.069 -0.1067 -0.0589 -0.0483
  621ERGO    C1 6977   2.432   7.988   8.802 -0.1176  0.1352 -0.2491
  621ERGO    C2 6978   2.642   7.814   8.640  0.0809 -0.0683 -0.2421
  622ERGO   ROH 6979  14.845  17.537   9.379 -0.2137 -0.0932  0.1794
  622ERGO    R1 6980  14.874  17.519   9.098 -0.0106 -0.0829  0.1983
  622ERGO    R2 6981  14.689  17.626   8.922  0.0189 -0.2394  0.0714
  622ERGO    R3 6982  14.908  17.752   8.820 -0.0117 -0.0670  0.2113
  622ERGO    R4 6983  14.728  17.714   8.590  0.1886 -0.2645  0.0829
  622ERGO    R5 6984  14.937  17.652   8.603  0.2357 -0.0811  0.2482
  622ERGO    C1 6985  14.955  17.883   8.300  0.2587 -0.1174  0.2211
  622ERGO    C2 6986  14.936  17.939   7.998  0.1696  0.0558  0.1921
  623ERGO   ROH 6987   5.172   8.458   9.519  0.1797  0.1967 -0.1070
  623ERGO    R1 6988   5.125   8.486   9.241  0.0403  0.1834 -0.0864
  623ERGO    R2 6989   5.073   8.270   9.077  0.1206  0.1559 -0.0784
  623ERGO    R3 6990   4.853   8.415   9.010 -0.0117  0.0072  0.0269
  623ERGO    R4 6991   4.922   8.267   8.766 -0.0576  0.0199  0.0077
  623ERGO    R5 6992   4.894   8.483   8.784 -0.1851  0.0041 -0.0055
  623ERGO    C1 6993   4.628   8.402   8.522 -0.2856 -0.1988  0.1566
  623ERGO    C2 6994   4.362   8.301   8.334 -0.3990  0.2032  0.1045
  624ERGO   ROH 6995   3.431  14.010   9.609  0.2083 -0.0025 -0.1866
  624ERGO    R1 6996   3.507  14.118   9.359  0.1858 -0.0796 -0.2276
  624ERGO    R2 6997   3.525  13.964   9.130 -0.0348 -0.1123 -0.2277
  624ERGO    R3 6998   3.357  14.153   9.029  0.0680  0.0148 -0.1641
  624ERGO    R4 6999   3.498  14.047   8.795  0.0134  0.0237 -0.1981
  624ERGO    R5 7000   3.481  14.257   8.853  0.1252  0.0112 -0.1243
  624ERGO    C1 7001   3.324  14.272   8.506  0.1380  0.2223 -0.1213
  624ERGO    C2 7002   3.281  14.318   8.160  0.0541  0.0504  0.2155
  625ERGO   ROH 7003   2.966   9.576   9.762 -0.0457  0.0382 -0.0612
  625ERGO    R1 7004   3.119   9.678   9.547 -0.0755  0.0433 -0.0809
  625ERGO    R2 7005   3.337   9.543   9.442  0.0375  0.1400  0.0201
  625ERGO    R3 7006   3.202   9.574   9.209  0.0553 -0.0602 -0.0177
  625ERGO    R4 7007   3.484   9.579   9.132  0.0615  0.0131  0.0170
  625ERGO    R5 7008   3.334   9.729   9.083  0.0047 -0.0809 -0.0949
  625ERGO    C1 7009   3.443   9.629   8.731  0.0923 -0.2488 -0.0204
  625ERGO    C2 7010   3.423   9.746   8.411  0.0863  0.0348  0.0128
  626ERGO   ROH 7011  16.043   9.798  10.075  0.2354  0.0335 -0.0197
  626ERGO    R1 7012  15.930   9.793   9.816  0.1270  0.1066  0.0256
  626ERGO    R2 7013  16.072   9.862   9.590  0.0827  0.0072 -0.0330
  626ERGO    R3 7014  15.991   9.617   9.503 -0.1178  0.0601  0.0010
  626ERGO    R4 7015  16.002   9.782   9.260  0.1412 -0.0080 -0.0414
  626ERGO    R5 7016  15.832   9.665   9.330 -0.0034  0.1720 -0.0773
  626ERGO    C1 7017  15.886   9.506   8.988 -0.0129  0.0330 -0.0142
  626ERGO    C2 7018  15.976   9.430   8.629  0.0099  0.0402 -0.0507
  627ERGO   ROH 7019  10.657   8.375   9.826 -0.0579  0.2489 -0.0007
  627ERGO    R1 7020  10.645   8.468   9.558  0.0818  0.1059 -0.0586
  627ERGO    R2 7021  10.776   8.341   9.351 -0.0677 -0.1939  0.0239
  627ERGO    R3 7022  10.528   8.339   9.239 -0.0676  0.0634  0.0125
  627ERGO    R4 7023  10.711   8.283   9.016 -0.1191 -0.2382  0.0417
  627ERGO    R5 7024  10.559   8.439   9.024  0.0665 -0.0506 -0.0229
  627ERGO    C1 7025  10.441   8.247   8.717 -0.1490 -0.0226  0.0412
  627ERGO    C2 7026  10.434   8.187   8.359  0.1228  0.0058 -0.2099
  628ERGO   ROH 7027   2.820   0.635   9.902 -0.1204 -0.2113  0.2081
  628ERGO    R1 7028   2.795   0.677   9.624 -0.0546 -0.0983  0.2181
  628ERGO    R2 7029   2.802   0.469   9.441  0.0668 -0.0191  0.1273
  628ERGO    R3 7030   2.565   0.575   9.360  0.0536 -0.0628  0.1102
  628ERGO    R4 7031   2.677   0.453   9.119  0.1310  0.0409  0.0994
  628ERGO    R5 7032   2.608   0.659   9.140  0.0703  0.0127  0.1444
  628ERGO    C1 7033   2.382   0.543   8.856  0.1560  0.0350  0.0671
  628ERGO    C2 7034   2.213   0.304   8.683 -0.0395 -0.1616  0.0906
  629ERGO   ROH 7035  14.482   3.937   9.886 -0.1061  0.0851 -0.0050
  629ERGO    R1 7036  14.591   4.134   9.715  0.0083 -0.0082 -0.0415
  629ERGO    R2 7037  14.660   4.082   9.453 -0.0861 -0.0791 -0.0537
  629ERGO    R3 7038  14.497   4.294   9.402  0.0622  0.0418 -0.0321
  629ERGO    R4 7039  14.667   4.270   9.163  0.0528 -0.0467 -0.0299
  629ERGO    R5 7040  14.637   4.449   9.285  0.1741 -0.0406 -0.0086
  629ERGO    C1 7041  14.518   4.578   8.946  0.2731  0.0857  0.0044
  629ERGO    C2 7042  14.723   4.644   8.697 -0.0873 -0.0697  0.2670
  630ERGO   ROH 7043  16.063   5.455   9.951 -0.3692  0.0649  0.1804
  630ERGO    R1 7044  16.085   5.558   9.688 -0.1870  0.0259  0.1799
  630ERGO    R2 7045  15.875   5.553   9.508 -0.0560 -0.0119  0.0331
  630ERGO    R3 7046  15.924   5.820   9.493 -0.0603 -0.0108  0.0215
  630ERGO    R4 7047  15.827   5.747   9.226 -0.2202 -0.0011  0.0666
  630ERGO    R5 7048  16.013   5.852   9.273 -0.1862 -0.0044 -0.0332
  630ERGO    C1 7049  15.846   6.111   9.048 -0.3197  0.0060  0.0752
  630ERGO    C2 7050  15.702   6.121   8.782 -0.1370 -0.0759 -0.0669
  631ERGO   ROH 7051   7.940   4.096   8.115 -0.0254 -0.0576  0.0073
  631ERGO    R1 7052   7.941   3.847   7.982 -0.2137 -0.0835  0.0514
  631ERGO    R2 7053   8.148   3.666   8.006 -0.0735  0.0096 -0.3625
  631ERGO    R3 7054   7.948   3.496   8.077  0.1431 -0.0627  0.1146
  631ERGO    R4 7055   8.157   3.323   7.963 -0.0973  0.0252 -0.4972
  631ERGO    R5 7056   7.947   3.330   7.903 -0.2712 -0.0062  0.0534
  631ERGO    C1 7057   7.975   2.964   8.005  0.0924 -0.0335 -0.1277
  631ERGO    C2 7058   8.269   2.766   7.986 -0.0529  0.0628 -0.1212
  632ERGO   ROH 7059   0.126  11.410   9.524 -0.1992 -0.1170  0.1408
  632ERGO    R1 7060  -0.063  11.524   9.347 -0.1435  0.0114  0.1626
  632ERGO    R2 7061  -0.047  11.785   9.261  0.0674 -0.0206  0.0998
  632ERGO    R3 7062  -0.060  11.671   9.014 -0.0954 -0.0669  0.1280
  632ERGO    R4 7063  -0.220  11.916   8.991 -0.0934 -0.0590  0.1830
  632ERGO    R5 7064  -0.284  11.713   8.940 -0.1401 -0.0651  0.2612
  632ERGO    C1 7065  -0.332  11.885   8.603 -0.3396 -0.1249  0.2581
  632ERGO    C2 7066  -0.623  11.960   8.369  0.5334  0.2240 -0.1415
  633ERGO   ROH 7067   8.329   0.944   9.290 -0.0226  0.0443 -0.0812
  633ERGO    R1 7068   8.250   1.094   9.063 -0.0907  0.1112 -0.0136
  633ERGO    R2 7069   8.295   1.007   8.805 -0.0651  0.2414 -0.0525
  633ERGO    R3 7070   8.027   1.045   8.779 -0.0817  0.1454 -0.0269
  633ERGO    R4 7071   8.136   1.106   8.514 -0.1279  0.1846 -0.0381
  633ERGO    R5 7072   8.007   1.234   8.635 -0.1629  0.1390 -0.0255
  633ERGO    C1 7073   7.792   1.199   8.322 -0.1800  0.0614 -0.0057
  633ERGO    C2 7074   7.765   1.263   8.021 -0.0277  0.0090  0.1286
  634ERGO   ROH 7075   6.270   1.836   9.333  0.1949 -0.0036 -0.0611
  634ERGO    R1 7076   6.295   1.619   9.153  0.0266 -0.0404 -0.0417
  634ERGO    R2 7077   6.120   1.578   8.943  0.0377  0.1196 -0.0839
  634ERGO    R3 7078   6.348   1.576   8.795  0.0752 -0.1129 -0.0261
  634ERGO    R4 7079   6.173   1.379   8.665 -0.0973  0.0676 -0.0731
  634ERGO    R5 7080   6.377   1.346   8.735 -0.1468 -0.1445 -0.0217
  634ERGO    C1 7081   6.418   1.261   8.365 -0.1408 -0.1809 -0.0123
  634ERGO    C2 7082   6.342   1.082   8.145 -0.3579 -0.3216  0.3866
  635ERGO   ROH 7083   8.475  13.320   9.430 -0.2949  0.1308  0.0426
  635ERGO    R1 7084   8.363  13.435   9.197 -0.1212  0.1653 -0.0248
  635ERGO    R2 7085   8.517  13.565   9.007  0.0448  0.0383  0.0195
  635ERGO    R3 7086   8.398  13.389   8.837  0.0058  0.0864 -0.0034
  635ERGO    R4 7087   8.455  13.625   8.672  0.1534  0.0548  0.0020
  635ERGO    R5 7088   8.262  13.526   8.695  0.1026  0.1433 -0.0417
  635ERGO    C1 7089   8.307  13.494   8.318  0.1802  0.1095 -0.0297
  635ERGO    C2 7090   8.249  13.294   7.998  0.1699 -0.0846 -0.1447
  636ERGO   ROH 7091   4.473  14.555   9.527  0.3163 -0.0173 -0.1512
  636ERGO    R1 7092   4.350  14.488   9.280  0.1873 -0.2529 -0.0277
  636ERGO    R2 7093   4.331  14.666   9.070 -0.4173 -0.2604 -0.0036
  636ERGO    R3 7094   4.452  14.466   8.932 -0.1317  0.0012 -0.1404
  636ERGO    R4 7095   4.267  14.585   8.740 -0.3149 -0.1527 -0.0496
  636ERGO    R5 7096   4.280  14.375   8.794 -0.0039 -0.1675 -0.1852
  636ERGO    C1 7097   4.343  14.350   8.418  0.0127  0.1556 -0.2048
  636ERGO    C2 7098   4.460  14.231   8.001  0.0157  0.1708  0.3071
  637ERGO   ROH 7099   9.068   5.401   9.501  0.0649  0.0269 -0.0388
  637ERGO    R1 7100   8.889   5.513   9.313  0.0572  0.1611  0.0476
  637ERGO    R2 7101   8.947   5.741   9.169  0.2058  0.0563 -0.0584
  637ERGO    R3 7102   8.889   5.583   8.956 -0.1057  0.0518  0.0247
  637ERGO    R4 7103   8.838   5.857   8.863  0.3438  0.1060 -0.0902
  637ERGO    R5 7104   8.699   5.688   8.855  0.0494  0.3335  0.0147
  637ERGO    C1 7105   8.719   5.775   8.484  0.1315  0.1308 -0.0305
  637ERGO    C2 7106   8.863   6.032   8.284  0.3027  0.1911  0.0189
  638ERGO   ROH 7107   0.554  15.115   9.815  0.0976 -0.0129 -0.1772
  638ERGO    R1 7108   0.755  15.271   9.689  0.0486 -0.0314 -0.2757
  638ERGO    R2 7109   0.755  15.320   9.417 -0.1909  0.1283 -0.2449
  638ERGO    R3 7110   0.768  15.580   9.497  0.0089  0.0796 -0.1047
  638ERGO    R4 7111   0.834  15.586   9.211 -0.3204  0.2119 -0.1896
  638ERGO    R5 7112   0.952  15.671   9.374 -0.0909  0.0701 -0.2711
  638ERGO    C1 7113   0.891  15.985   9.166 -0.2082  0.2149 -0.0259
  638ERGO    C2 7114   0.903  16.190   8.852 -0.0164 -0.3070 -0.2754
  639ERGO   ROH 7115  15.977  13.143   9.446 -0.0528 -0.1190 -0.0477
  639ERGO    R1 7116  15.961  13.394   9.316  0.1497 -0.1603 -0.1561
  639ERGO    R2 7117  16.017  13.426   9.047 -0.0944 -0.3758 -0.2372
  639ERGO    R3 7118  15.769  13.538   9.042  0.0461 -0.0406 -0.0220
  639ERGO    R4 7119  15.904  13.646   8.805 -0.0775 -0.3930 -0.2607
  639ERGO    R5 7120  15.806  13.761   8.963  0.2604 -0.1436 -0.2219
  639ERGO    C1 7121  15.606  13.880   8.660  0.0643 -0.0883 -0.0724
  639ERGO    C2 7122  15.435  13.774   8.328  0.1863 -0.0654 -0.0779
  640ERGO   ROH 7123   1.863  17.394  10.114 -0.1679  0.1503 -0.0672
  640ERGO    R1 7124   2.029  17.356   9.888 -0.0383  0.1376  0.0282
  640ERGO    R2 7125   1.932  17.269   9.644  0.1141  0.0387 -0.0026
  640ERGO    R3 7126   2.053  17.494   9.552  0.0911  0.0520  0.0025
  640ERGO    R4 7127   2.051  17.313   9.322  0.2184  0.0172  0.0334
  640ERGO    R5 7128   2.225  17.414   9.405  0.1617  0.0725  0.0768
  640ERGO    C1 7129   2.234  17.549   9.049  0.2575  0.0170  0.0593
  640ERGO    C2 7130   2.233  17.469   8.729  0.0477  0.2710  0.4283
  641ERGO   ROH 7131  16.941  15.684   9.479 -0.0775 -0.0662  0.0707
  641ERGO    R1 7132  17.133  15.722   9.274 -0.0373 -0.0161  0.1169
  641ERGO    R2 7133  17.199  15.525   9.093  0.1268 -0.0317  0.1882
  641ERGO    R3 7134  17.136  15.716   8.911  0.0719 -0.1148  0.1195
  641ERGO    R4 7135  17.284  15.514   8.758  0.2707 -0.0464  0.2247
  641ERGO    R5 7136  17.328  15.728   8.768  0.1218 -0.0158  0.1959
  641ERGO    C1 7137  17.274  15.689   8.392  0.3026 -0.1331  0.1815
  641ERGO    C2 7138  17.159  15.741   8.145  0.1935  0.1754  0.2608
  642ERGO   ROH 7139   9.725  17.827   9.214 -0.3456  0.2149  0.1267
  642ERGO    R1 7140   9.714  17.876   8.935 -0.2351  0.1385  0.1083
  642ERGO    R2 7141   9.830  17.707   8.750 -0.0725  0.1405  0.2061
  642ERGO    R3 7142   9.580  17.707   8.642 -0.0227  0.0041  0.0868
  642ERGO    R4 7143   9.751  17.593   8.433  0.1465  0.1408  0.1497
  642ERGO    R5 7144   9.615  17.762   8.411  0.0534  0.0609  0.1116
  642ERGO    C1 7145   9.471  17.527   8.148  0.3208  0.0129  0.0048
  642ERGO    C2 7146   9.410  17.468   7.727 -0.0860  0.4149 -0.2215
  643ERGO   ROH 7147  11.097   4.052   9.390 -0.2608  0.0127  0.1755
  643ERGO    R1 7148  11.197   4.268   9.236 -0.1164 -0.1357  0.0573
  643ERGO    R2 7149  11.367   4.231   9.021 -0.2463 -0.3769 -0.0084
  643ERGO    R3 7150  11.178   4.376   8.889 -0.1657 -0.2362  0.0282
  643ERGO    R4 7151  11.377   4.311   8.685 -0.1495 -0.2053  0.0342
  643ERGO    R5 7152  11.303   4.509   8.734 -0.0841 -0.2018  0.1223
  643ERGO    C1 7153  11.207   4.493   8.365 -0.0175  0.0268  0.0933
  643ERGO    C2 7154  11.092   4.545   8.039 -0.4842  0.0358  0.1842
  644ERGO   ROH 7155   4.154   7.304   9.757 -0.0468  0.0349 -0.1567
  644ERGO    R1 7156   3.972   7.226   9.554 -0.1235 -0.0165 -0.0690
  644ERGO    R2 7157   3.803   7.405   9.430 -0.0638 -0.0197 -0.1558
  644ERGO    R3 7158   3.917   7.306   9.204 -0.1545 -0.2257 -0.1135
  644ERGO    R4 7159   3.664   7.426   9.114  0.1748  0.4222 -0.2388
  644ERGO    R5 7160   3.732   7.222   9.076 -0.2908  0.2583 -0.2574
  644ERGO    C1 7161   3.691   7.345   8.717  0.2285  0.4862 -0.2475
  644ERGO    C2 7162   3.550   7.384   8.513 -0.0003  0.1955  0.4644
  645ERGO   ROH 7163   1.007  11.603   9.815 -0.1342  0.2374 -0.0672
  645ERGO    R1 7164   1.109  11.687   9.565  0.0061  0.0883 -0.0613
  645ERGO    R2 7165   1.251  11.519   9.397 -0.1257 -0.0850  0.0067
  645ERGO    R3 7166   1.063  11.594   9.216 -0.0082  0.0685 -0.0561
  645ERGO    R4 7167   1.286  11.495   9.054 -0.0339 -0.1516  0.0197
  645ERGO    R5 7168   1.188  11.689   9.035  0.1407 -0.0578 -0.0279
  645ERGO    C1 7169   1.130  11.551   8.684  0.1299 -0.0463 -0.0316
  645ERGO    C2 7170   1.164  11.504   8.297  0.0420 -0.0610  0.0721
  646ERGO   ROH 7171   6.240   5.962   9.981 -0.1125 -0.4462 -0.0145
  646ERGO    R1 7172   6.213   6.007   9.703 -0.0460 -0.0928  0.0309
  646ERGO    R2 7173   6.335   6.219   9.574  0.3048 -0.1403  0.2630
  646ERGO    R3 7174   6.436   6.022   9.415 -0.0199 -0.1407  0.0504
  646ERGO    R4 7175   6.408   6.255   9.238  0.1130  0.0068  0.2357
  646ERGO    R5 7176   6.327   6.055   9.204 -0.1279  0.1229  0.1481
  646ERGO    C1 7177   6.545   6.092   8.893 -0.3036  0.0921  0.0203
  646ERGO    C2 7178   6.699   5.941   8.477  0.0890  0.0722 -0.0703
  647ERGO   ROH 7179  17.537  12.086   7.670 -0.1732 -0.1166 -0.0772
  647ERGO    R1 7180  17.421  11.966   7.898 -0.0095 -0.1679 -0.0201
  647ERGO    R2 7181  17.279  11.728   7.886 -0.0542 -0.1419  0.0203
  647ERGO    R3 7182  17.455  11.651   8.078  0.0870 -0.2274 -0.1409
  647ERGO    R4 7183  17.250  11.442   8.077  0.0049 -0.1504  0.0174
  647ERGO    R5 7184  17.319  11.556   8.250  0.2002 -0.1923 -0.0290
  647ERGO    C1 7185  17.399  11.203   8.369  0.1717 -0.2355 -0.1356
  647ERGO    C2 7186  17.669  10.937   8.426  0.2408 -0.3529  0.2613
  648ERGO   ROH 7187   2.629  12.888   9.355  0.2360 -0.3250  0.0833
  648ERGO    R1 7188   2.664  12.962   9.084  0.1405 -0.2238  0.0983
  648ERGO    R2 7189   2.819  12.815   8.908 -0.0191 -0.2245 -0.0413
  648ERGO    R3 7190   2.592  12.816   8.759 -0.0918 -0.0443  0.0655
  648ERGO    R4 7191   2.811  12.811   8.563 -0.1804 -0.1319 -0.0395
  648ERGO    R5 7192   2.646  12.954   8.570 -0.0912 -0.0279  0.0752
  648ERGO    C1 7193   2.593  12.810   8.221 -0.3426  0.0911  0.0617
  648ERGO    C2 7194   2.491  12.852   7.918  0.4092 -0.0575 -0.0288
  649ERGO   ROH 7195  11.188  15.620   9.381 -0.0890  0.0486  0.0256
  649ERGO    R1 7196  11.192  15.653   9.100 -0.0419 -0.0218  0.0181
  649ERGO    R2 7197  11.406  15.768   8.967 -0.0346 -0.0268  0.0295
  649ERGO    R3 7198  11.398  15.537   8.823  0.0244 -0.0630  0.0834
  649ERGO    R4 7199  11.466  15.744   8.627  0.0343 -0.0947  0.0461
  649ERGO    R5 7200  11.303  15.601   8.613  0.0544 -0.1226  0.0491
  649ERGO    C1 7201  11.494  15.514   8.295  0.1300 -0.1683  0.1064
  649ERGO    C2 7202  11.754  15.359   8.134  0.1836  0.1661  0.0608
  650ERGO   ROH 7203  16.862  13.320   9.668  0.0147  0.0638  0.0331
  650ERGO    R1 7204  16.961  13.258   9.410  0.0690  0.0434  0.0587
  650ERGO    R2 7205  16.998  12.998   9.324  0.1199  0.0361  0.0988
  650ERGO    R3 7206  16.840  13.078   9.118  0.1447 -0.0114  0.0613
  650ERGO    R4 7207  16.954  12.824   9.029 -0.0005 -0.1266  0.2111
  650ERGO    R5 7208  16.960  13.013   8.921  0.0908 -0.1990  0.0906
  650ERGO    C1 7209  16.780  12.798   8.663 -0.0473 -0.2659  0.2412
  650ERGO    C2 7210  16.575  12.705   8.290  0.0884 -0.3479  0.1418
  651ERGO   ROH 7211  12.990   1.045   9.243  0.1576 -0.2398 -0.1374
  651ERGO    R1 7212  12.858   1.199   9.046  0.1759 -0.1250 -0.0586
  651ERGO    R2 7213  12.920   1.183   8.778  0.1871  0.0174 -0.0606
  651ERGO    R3 7214  12.654   1.134   8.752  0.1835  0.0492 -0.1046
  651ERGO    R4 7215  12.716   1.321   8.535  0.2833 -0.1089 -0.2180
  651ERGO    R5 7216  12.561   1.344   8.686  0.2414  0.0249 -0.2768
  651ERGO    C1 7217  12.348   1.355   8.370  0.3361 -0.1525 -0.3509
  651ERGO    C2 7218  12.078   1.381   8.064 -0.3821 -0.2563 -0.1639
  652ERGO   ROH 7219  10.818  14.667   9.316 -0.1261 -0.1316 -0.0558
  652ERGO    R1 7220  10.677  14.621   9.075 -0.1656  0.0463 -0.0663
  652ERGO    R2 7221  10.610  14.825   8.901  0.1667  0.1243 -0.1011
  652ERGO    R3 7222  10.739  14.670   8.719 -0.0465 -0.0996 -0.0678
  652ERGO    R4 7223  10.554  14.833   8.560  0.2221  0.1875 -0.1100
  652ERGO    R5 7224  10.571  14.615   8.558 -0.1185  0.1508 -0.0867
  652ERGO    C1 7225  10.643  14.691   8.191  0.0543  0.0141 -0.0835
  652ERGO    C2 7226  10.636  14.535   7.875  0.0449 -0.2399  0.0263
  653ERGO   ROH 7227   5.705  16.453   9.468  0.1141  0.0767 -0.3067
  653ERGO    R1 7228   5.672  16.436   9.188  0.0473 -0.0286 -0.2917
  653ERGO    R2 7229   5.746  16.213   9.043 -0.0779 -0.1185 -0.2105
  653ERGO    R3 7230   5.489  16.223   8.956 -0.0917 -0.0499 -0.1664
  653ERGO    R4 7231   5.648  16.183   8.713 -0.1437 -0.2166 -0.1834
  653ERGO    R5 7232   5.502  16.340   8.747 -0.0769 -0.1383 -0.2202
  653ERGO    C1 7233   5.350  16.175   8.439 -0.1949 -0.2095 -0.1263
  653ERGO    C2 7234   5.091  16.063   8.215 -0.0080  0.0378  0.2422
  654ERGO   ROH 7235   3.930   6.109   9.948  0.2965 -0.1171  0.0633
  654ERGO    R1 7236   3.866   6.054   9.678  0.0675 -0.0855  0.1104
  654ERGO    R2 7237   3.619   6.116   9.569  0.0651  0.1715  0.2555
  654ERGO    R3 7238   3.770   6.247   9.384  0.0982 -0.0212  0.1422
  654ERGO    R4 7239   3.537   6.151   9.235 -0.1867  0.3474  0.3325
  654ERGO    R5 7240   3.747   6.117   9.185 -0.2760  0.0424  0.1377
  654ERGO    C1 7241   3.631   6.294   8.867 -0.3023  0.2689  0.2710
  654ERGO    C2 7242   3.660   6.402   8.555 -0.2862 -0.0017 -0.0731
  655ERGO   ROH 7243   1.786  12.394   9.721 -0.0351 -0.0740 -0.1500
  655ERGO    R1 7244   1.640  12.418   9.480 -0.0407 -0.0799 -0.1472
  655ERGO    R2 7245   1.707  12.598   9.281 -0.1136 -0.0056 -0.1033
  655ERGO    R3 7246   1.707  12.376   9.125 -0.0174  0.0315 -0.1571
  655ERGO    R4 7247   1.653  12.596   8.940 -0.3146  0.0412 -0.0723
  655ERGO    R5 7248   1.534  12.415   8.965 -0.1499 -0.0700 -0.0447
  655ERGO    C1 7249   1.620  12.386   8.594 -0.3412  0.1031 -0.1049
  655ERGO    C2 7250   1.830  12.232   8.360  0.1617  0.0877  0.0270
  656ERGO   ROH 7251  10.469   9.441   9.921  0.2683 -0.2460 -0.1555
  656ERGO    R1 7252  10.395   9.508   9.656  0.3663 -0.0936 -0.1476
  656ERGO    R2 7253  10.494   9.374   9.436  0.1371 -0.2459 -0.1723
  656ERGO    R3 7254  10.231   9.341   9.378  0.0712  0.2003 -0.1521
  656ERGO    R4 7255  10.370   9.270   9.131 -0.0761 -0.0860 -0.1406
  656ERGO    R5 7256  10.209   9.416   9.152  0.1793  0.1945 -0.1577
  656ERGO    C1 7257  10.050   9.179   8.899 -0.2621  0.4260 -0.1031
  656ERGO    C2 7258  10.056   9.181   8.626  0.1136  0.0255  0.3283
  657ERGO   ROH 7259   8.170   7.946   9.619  0.0212  0.1679  0.0067
  657ERGO    R1 7260   8.335   8.058   9.418  0.0277  0.0569 -0.0513
  657ERGO    R2 7261   8.585   8.164   9.473  0.0485  0.0432 -0.1105
  657ERGO    R3 7262   8.665   7.991   9.279  0.0096 -0.0539 -0.0397
  657ERGO    R4 7263   8.758   8.253   9.187 -0.0055 -0.1042 -0.1899
  657ERGO    R5 7264   8.635   8.112   9.074 -0.0269 -0.1581 -0.0953
  657ERGO    C1 7265   8.934   8.142   8.839 -0.0734 -0.2813 -0.1698
  657ERGO    C2 7266   9.122   8.224   8.451 -0.0024 -0.1668 -0.0341
  658ERGO   ROH 7267   4.653   7.533   9.663  0.3928 -0.1928 -0.2689
  658ERGO    R1 7268   4.602   7.453   9.397  0.0805 -0.2316 -0.2015
  658ERGO    R2 7269   4.363   7.339   9.319 -0.0418 -0.1783  0.0777
  658ERGO    R3 7270   4.364   7.539   9.136 -0.1795 -0.2134  0.0380
  658ERGO    R4 7271   4.255   7.307   8.992 -0.1466 -0.2746  0.1212
  658ERGO    R5 7272   4.423   7.431   8.930 -0.2152 -0.2276  0.0375
  658ERGO    C1 7273   4.192   7.477   8.630 -0.3368 -0.3637  0.1093
  658ERGO    C2 7274   4.024   7.412   8.337  0.0286  0.0455 -0.0066
  659ERGO   ROH 7275   8.391   9.281   9.794  0.1465  0.3492  0.1314
  659ERGO    R1 7276   8.506   9.372   9.551  0.3003 -0.0722  0.0352
  659ERGO    R2 7277   8.576   9.201   9.346 -0.2861 -0.3766  0.0577
  659ERGO    R3 7278   8.418   9.366   9.198  0.0963  0.0314  0.0852
  659ERGO    R4 7279   8.560   9.203   9.001 -0.1466 -0.1216  0.0519
  659ERGO    R5 7280   8.551   9.421   9.007  0.2797 -0.1070  0.1782
  659ERGO    C1 7281   8.403   9.359   8.661  0.2935  0.4097  0.0743
  659ERGO    C2 7282   8.226   9.490   8.425  0.2287 -0.2921 -0.1302
  660ERGO   ROH 7283  15.232  16.436   9.909 -0.3590  0.1345 -0.1830
  660ERGO    R1 7284  15.412  16.392   9.695 -0.0884  0.2062  0.0236
  660ERGO    R2 7285  15.334  16.273   9.457  0.3077 -0.1250  0.0496
  660ERGO    R3 7286  15.440  16.497   9.347  0.0771 -0.0606 -0.0467
  660ERGO    R4 7287  15.481  16.290   9.145  0.1934 -0.0793 -0.0023
  660ERGO    R5 7288  15.633  16.421   9.229  0.1071  0.0769 -0.0874
  660ERGO    C1 7289  15.666  16.511   8.860 -0.0896  0.0076 -0.1230
  660ERGO    C2 7290  15.530  16.449   8.595  0.2780 -0.0256 -0.2206
  661ERGO   ROH 7291   5.220   6.341   9.671 -0.1073  0.0002 -0.0074
  661ERGO    R1 7292   5.290   6.418   9.408 -0.2136  0.0752 -0.0150
  661ERGO    R2 7293   5.366   6.236   9.214  0.1514  0.1664  0.0305
  661ERGO    R3 7294   5.166   6.352   9.072 -0.0550 -0.2285 -0.0158
  661ERGO    R4 7295   5.364   6.276   8.871  0.1964  0.2625  0.0418
  661ERGO    R5 7296   5.278   6.474   8.899 -0.2513  0.0709  0.0648
  661ERGO    C1 7297   5.175   6.409   8.538  0.0288 -0.0522  0.0049
  661ERGO    C2 7298   5.093   6.646   8.299 -0.0318 -0.3092 -0.1634
  662ERGO   ROH 7299  11.820  14.420   9.460 -0.0990  0.1025  0.1151
  662ERGO    R1 7300  11.810  14.353   9.185 -0.0692  0.1295  0.1072
  662ERGO    R2 7301  12.036  14.291   9.039 -0.0437  0.2227  0.1054
  662ERGO    R3 7302  11.897  14.065   8.979  0.0345  0.1815  0.0773
  662ERGO    R4 7303  12.013  14.150   8.724 -0.0134  0.2676  0.0833
  662ERGO    R5 7304  11.802  14.109   8.763  0.0041  0.1838  0.0910
  662ERGO    C1 7305  11.868  13.857   8.485  0.0777  0.2550  0.0440
  662ERGO    C2 7306  12.005  13.858   8.142  0.0896 -0.2424 -0.1008
  663ERGO   ROH 7307   1.395   4.565   9.803 -0.1960  0.0668  0.0049
  663ERGO    R1 7308   1.337   4.531   9.528 -0.1770  0.1152 -0.0047
  663ERGO    R2 7309   1.412   4.716   9.336 -0.1037  0.1145  0.0256
  663ERGO    R3 7310   1.528   4.499   9.219 -0.1547  0.0947  0.0106
  663ERGO    R4 7311   1.482   4.687   8.999  0.0566  0.1993  0.0500
  663ERGO    R5 7312   1.417   4.479   9.008 -0.0573  0.2275 -0.0561
  663ERGO    C1 7313   1.631   4.467   8.693  0.1019  0.2301  0.0503
  663ERGO    C2 7314   1.631   4.417   8.358 -0.2171 -0.0272 -0.3772
  664ERGO   ROH 7315  14.139  15.898   9.456  0.0697 -0.2293 -0.2668
  664ERGO    R1 7316  14.142  15.970   9.183 -0.3416 -0.2059 -0.2711
  664ERGO    R2 7317  13.921  16.076   9.054 -0.3658  0.4223  0.2342
  664ERGO    R3 7318  14.094  16.275   8.989  0.0566 -0.0340 -0.1094
  664ERGO    R4 7319  13.905  16.264   8.765 -0.4548  0.4713  0.2710
  664ERGO    R5 7320  14.122  16.253   8.752 -0.4865 -0.1179 -0.1783
  664ERGO    C1 7321  14.058  16.560   8.535 -0.1100  0.0715 -0.0303
  664ERGO    C2 7322  13.831  16.607   8.287 -0.0349  0.0548  0.3943
  665ERGO   ROH 7323   2.272  14.246   9.110  0.0586 -0.0476 -0.0337
  665ERGO    R1 7324   2.357  14.340   8.857 -0.0437  0.1546  0.0038
  665ERGO    R2 7325   2.300  14.206   8.622  0.2083  0.1185 -0.0453
  665ERGO    R3 7326   2.197  14.446   8.548 -0.1657 -0.0190  0.0071
  665ERGO    R4 7327   2.278  14.318   8.296  0.2630  0.2622  0.0005
  665ERGO    R5 7328   2.337  14.516   8.366 -0.1464  0.3334  0.1549
  665ERGO    C1 7329   2.170  14.609   8.036 -0.0562  0.2166  0.0764
  665ERGO    C2 7330   2.068  14.836   7.871  0.3638 -0.0653 -0.0658
  666ERGO   ROH 7331   3.603   2.240   9.719  0.0869 -0.1397 -0.1771
  666ERGO    R1 7332   3.461   2.385   9.522 -0.0228 -0.1911 -0.1369
  666ERGO    R2 7333   3.530   2.642   9.448 -0.3162 -0.0506  0.0532
  666ERGO    R3 7334   3.535   2.534   9.198 -0.0842  0.1113 -0.0160
  666ERGO    R4 7335   3.410   2.797   9.163 -0.0257  0.1472  0.0337
  666ERGO    R5 7336   3.329   2.604   9.099  0.0169  0.1946 -0.1714
  666ERGO    C1 7337   3.344   2.785   8.763  0.3612  0.4145 -0.0428
  666ERGO    C2 7338   3.442   2.910   8.560 -0.0578 -0.0289  0.3160
  667ERGO   ROH 7339   6.343  15.452   9.841 -0.2806 -0.2548 -0.1683
  667ERGO    R1 7340   6.382  15.350   9.580 -0.2129 -0.2280 -0.1684
  667ERGO    R2 7341   6.177  15.241   9.430 -0.1870 -0.1559 -0.2566
  667ERGO    R3 7342   6.258  15.424   9.246 -0.0753 -0.1502 -0.2032
  667ERGO    R4 7343   6.079  15.243   9.099 -0.3791  0.1412 -0.2019
  667ERGO    R5 7344   6.283  15.297   9.044 -0.3437 -0.0736 -0.2891
  667ERGO    C1 7345   6.097  15.416   8.733 -0.3860  0.3196 -0.1200
  667ERGO    C2 7346   5.846  15.431   8.469 -0.1857 -0.1135  0.1809
  668ERGO   ROH 7347   9.563   6.208   9.890  0.0361 -0.0082 -0.0937
  668ERGO    R1 7348   9.389   6.424   9.834  0.0306  0.0010 -0.0466
  668ERGO    R2 7349   9.473   6.654   9.708  0.0242  0.0319 -0.0060
  668ERGO    R3 7350   9.269   6.598   9.538  0.0228  0.0553 -0.0098
  668ERGO    R4 7351   9.400   6.834   9.422  0.1101 -0.0297 -0.0660
  668ERGO    R5 7352   9.188   6.812   9.469  0.1029  0.0586 -0.0824
  668ERGO    C1 7353   9.165   6.884   9.095  0.1589 -0.0436 -0.1047
  668ERGO    C2 7354   9.155   7.273   8.897 -0.0963 -0.0223  0.1098
  669ERGO   ROH 7355  11.400  12.690   9.904  0.2443 -0.0513  0.0062
  669ERGO    R1 7356  11.337  12.684   9.628 -0.1648 -0.0702  0.0982
  669ERGO    R2 7357  11.162  12.864   9.512  0.0933  0.2703  0.2601
  669ERGO    R3 7358  11.371  12.909   9.344 -0.0344 -0.3173 -0.0917
  669ERGO    R4 7359  11.136  13.011   9.201 -0.0135  0.7467  0.4819
  669ERGO    R5 7360  11.282  12.867   9.126 -0.6629  0.2516  0.0096
  669ERGO    C1 7361  11.317  13.139   8.861 -0.1957  0.4726  0.2808
  669ERGO    C2 7362  11.420  13.317   8.654  0.0398 -0.1690  0.0545
  670ERGO   ROH 7363   0.584   7.346   9.888 -0.1024 -0.0288  0.1099
  670ERGO    R1 7364   0.598   7.437   9.621 -0.2336 -0.0398  0.0977
  670ERGO    R2 7365   0.770   7.638   9.541 -0.4337  0.1206  0.0472
  670ERGO    R3 7366   0.852   7.452   9.360 -0.2883  0.1748  0.0571
  670ERGO    R4 7367   0.810   7.696   9.203 -0.2661  0.1819  0.0772
  670ERGO    R5 7368   0.723   7.500   9.163 -0.1917  0.1701 -0.0032
  670ERGO    C1 7369   0.910   7.555   8.836 -0.0321  0.2683  0.1041
  670ERGO    C2 7370   1.164   7.461   8.542  0.2593 -0.1679 -0.0329
  671ERGO   ROH 7371  13.863   8.629   9.911  0.4615  0.0846 -0.1071
  671ERGO    R1 7372  13.862   8.700   9.637  0.2732  0.1151 -0.1011
  671ERGO    R2 7373  13.929   8.521   9.437  0.3078  0.1844 -0.1557
  671ERGO    R3 7374  13.687   8.593   9.336  0.2020  0.0166 -0.0245
  671ERGO    R4 7375  13.854   8.539   9.100  0.1203  0.1661 -0.1152
  671ERGO    R5 7376  13.740   8.721   9.141  0.0059  0.0771 -0.0386
  671ERGO    C1 7377  13.583   8.616   8.809 -0.0883 -0.0022  0.0316
  671ERGO    C2 7378  13.444   8.505   8.495 -0.3738  0.1676 -0.0325
  672PSPI    C1 7379   3.004  11.295   6.134  0.2392  0.1341 -0.0349
  672PSPI    C2 7380   3.208  11.263   5.792 -0.0183 -0.1747 -0.1642
  672PSPI    C3 7381   2.826  11.381   5.786  0.0325  0.0045  0.0371
  672PSPI   PO4 7382   3.113  11.485   6.274 -0.2070 -0.1393 -0.0208
  672PSPI   GL1 7383   3.200  11.573   6.717  0.1361 -0.2033  0.0839
  672PSPI   GL2 7384   2.949  11.386   6.733  0.0348  0.2998  0.1750
  672PSPI   C1A 7385   3.086  11.789   7.187 -0.2096 -0.0439  0.1488
  672PSPI   C2A 7386   2.974  11.762   7.619 -0.0108  0.0602 -0.1033
  672PSPI   C3A 7387   3.047  11.987   8.079  0.0253 -0.0481  0.4540
  672PSPI   C4A 7388   3.100  12.019   8.575 -0.1227 -0.2888 -0.0037
  672PSPI   C1B 7389   2.679  11.286   7.148 -0.0575  0.2372  0.0212
  672PSPI   C2B 7390   2.597  11.436   7.582  0.1119 -0.1618  0.2753
  672PSPI   C3B 7391   2.374  11.473   8.055 -0.1304 -0.0097  0.0597
  672PSPI   C4B 7392   2.376  11.504   8.439  0.0281  0.1315  0.0287
  673PSPI    C1 7393  18.184   3.368   6.277  0.1074 -0.0181 -0.1468
  673PSPI    C2 7394  18.018   3.669   6.482  0.4052  0.0976 -0.0708
  673PSPI    C3 7395  17.810   3.484   6.195  0.0735  0.1016  0.1610
  673PSPI   PO4 7396  18.303   3.106   6.525  0.2638  0.0815  0.0199
  673PSPI   GL1 7397  18.395   3.053   6.911 -0.0389 -0.1999 -0.2656
  673PSPI   GL2 7398  18.280   3.406   6.946 -0.3067 -0.1033  0.1574
  673PSPI   C1A 7399  18.036   3.067   7.189  0.0204  0.0437  0.0377
  673PSPI   C2A 7400  18.047   3.094   7.711 -0.2333  0.0190  0.0231
  673PSPI   C3A 7401  18.266   2.917   8.077 -0.2676 -0.0889  0.0615
  673PSPI   C4A 7402  18.137   2.600   8.437  0.3234  0.0180  0.1496
  673PSPI   C1B 7403  18.485   3.402   7.435  0.0570 -0.2427 -0.0705
  673PSPI   C2B 7404  18.332   3.439   7.961  0.1487  0.1915 -0.1850
  673PSPI   C3B 7405  18.582   3.334   8.350 -0.3139  0.1196  0.1118
  673PSPI   C4B 7406  18.972   3.164   8.493  0.0581  0.2973  0.0778
  674PSPI    C1 7407   3.260   2.838   6.177 -0.0973  0.2478 -0.0019
  674PSPI    C2 7408   3.397   2.876   6.550 -0.1998  0.1118  0.0505
  674PSPI    C3 7409   3.653   2.877   6.243 -0.1179  0.2566  0.1179
  674PSPI   PO4 7410   3.050   2.624   6.229 -0.0113  0.2518 -0.2115
  674PSPI   GL1 7411   2.881   2.689   6.584 -0.1405 -0.0921 -0.1172
  674PSPI   GL2 7412   2.609   2.497   6.600 -0.0483  0.2433 -0.2153
  674PSPI   C1A 7413   3.103   2.886   6.993 -0.0154 -0.2553 -0.1734
  674PSPI   C2A 7414   3.327   2.982   7.393 -0.2234 -0.1680  0.1004
  674PSPI   C3A 7415   3.293   3.236   7.749 -0.0098 -0.1105  0.0933
  674PSPI   C4A 7416   3.088   3.193   8.195 -0.2601 -0.0184 -0.1431
  674PSPI   C1B 7417   2.574   2.675   7.009 -0.3697  0.3141  0.3814
  674PSPI   C2B 7418   2.488   2.792   7.412  0.2172  0.0688 -0.1871
  674PSPI   C3B 7419   2.583   2.765   7.830  0.0681 -0.0518 -0.3292
  674PSPI   C4B 7420   2.518   2.837   8.275  0.0621  0.2405  0.0155
  675PSPI    C1 7421   5.553  17.296   5.989 -0.2317 -0.1357 -0.2739
  675PSPI    C2 7422   5.851  17.041   6.065 -0.0454  0.1228 -0.1233
  675PSPI    C3 7423   5.711  17.078   5.693  0.0893 -0.0226 -0.1899
  675PSPI   PO4 7424   5.674  17.513   6.221  0.1535  0.3391 -0.1991
  675PSPI   GL1 7425   5.669  17.745   6.559 -0.2772  0.4576  0.0063
  675PSPI   GL2 7426   5.637  18.048   6.711  0.1279  0.0276  0.1340
  675PSPI   C1A 7427   5.636  17.606   6.980 -0.1743 -0.4091 -0.1975
  675PSPI   C2A 7428   5.608  17.618   7.474  0.2345  0.2703 -0.1085
  675PSPI   C3A 7429   5.554  17.747   7.881  0.0371 -0.0666  0.0138
  675PSPI   C4A 7430   5.653  17.546   8.232  0.0619 -0.1513  0.2826
  675PSPI   C1B 7431   5.856  18.016   7.180  0.0964  0.1027  0.1340
  675PSPI   C2B 7432   5.823  18.030   7.584 -0.1197  0.0295 -0.0259
  675PSPI   C3B 7433   5.677  18.196   7.918 -0.0688  0.0662  0.1689
  675PSPI   C4B 7434   5.456  18.540   7.980 -0.1567 -0.5165  0.2267
  676PSPI    C1 7435   1.669   5.188   6.017  0.0406 -0.1067 -0.0570
  676PSPI    C2 7436   2.067   5.205   6.060  0.0331  0.1045 -0.0640
  676PSPI    C3 7437   1.891   5.390   5.753 -0.0849  0.1409  0.0247
  676PSPI   PO4 7438   1.609   5.318   6.313 -0.0287 -0.3406  0.1214
  676PSPI   GL1 7439   1.604   5.233   6.641 -0.1660  0.1495  0.0384
  676PSPI   GL2 7440   1.450   4.988   6.702  0.2111 -0.0786  0.1407
  676PSPI   C1A 7441   1.982   5.153   7.004  0.0831 -0.0044  0.2810
  676PSPI   C2A 7442   1.987   5.056   7.462  0.2405  0.0281  0.1296
  676PSPI   C3A 7443   1.979   4.745   7.794  0.3979  0.2977  0.1452
  676PSPI   C4A 7444   1.895   4.882   8.227 -0.3271 -0.1263  0.0349
  676PSPI   C1B 7445   1.383   5.159   7.120  0.2486  0.1565  0.1167
  676PSPI   C2B 7446   1.509   5.206   7.447  0.1259 -0.1647 -0.1960
  676PSPI   C3B 7447   1.618   5.255   7.974 -0.2563 -0.1826  0.1557
  676PSPI   C4B 7448   1.626   5.296   8.496  0.0007 -0.1023  0.1186
  677PSPI    C1 7449  15.302  15.531   5.821  0.1702  0.0925  0.0263
  677PSPI    C2 7450  15.471  15.891   5.861  0.2025  0.0890 -0.0756
  677PSPI    C3 7451  15.297  15.788   5.515  0.1755  0.0143 -0.0401
  677PSPI   PO4 7452  15.467  15.354   5.936 -0.2761  0.2499 -0.1090
  677PSPI   GL1 7453  15.755  15.615   6.217  0.0850 -0.1597 -0.0689
  677PSPI   GL2 7454  15.446  15.513   6.401  0.2425 -0.2422 -0.1323
  677PSPI   C1A 7455  15.894  15.822   6.623  0.2218  0.1719 -0.2921
  677PSPI   C2A 7456  15.772  15.889   7.053  0.1693  0.0405  0.0222
  677PSPI   C3A 7457  15.702  15.667   7.492 -0.0861 -0.2230 -0.0003
  677PSPI   C4A 7458  15.642  15.307   7.833  0.3551  0.1710 -0.0860
  677PSPI   C1B 7459  15.367  15.879   6.763 -0.1648 -0.1907 -0.1880
  677PSPI   C2B 7460  15.414  16.208   6.999  0.1891 -0.0344  0.3180
  677PSPI   C3B 7461  15.593  16.264   7.406 -0.0693  0.0086 -0.0294
  677PSPI   C4B 7462  15.485  16.435   7.723  0.2825  0.1323  0.0463
  678PSPI    C1 7463  11.232   0.696   5.261  0.2192 -0.0979  0.0541
  678PSPI    C2 7464  10.972   0.999   5.258 -0.0196 -0.2969  0.1961
  678PSPI    C3 7465  11.364   1.072   5.295 -0.0433  0.0105 -0.0993
  678PSPI   PO4 7466  11.058   0.475   5.427  0.4125 -0.3262  0.0942
  678PSPI   GL1 7467  10.984   0.290   5.894  0.2629 -0.0318  0.4256
  678PSPI   GL2 7468  10.677   0.386   6.113  0.1191  0.1351 -0.2088
  678PSPI   C1A 7469  11.233   0.423   6.234 -0.2384 -0.0528 -0.1463
  678PSPI   C2A 7470  11.229   0.162   6.604 -0.3442 -0.1407  0.3131
  678PSPI   C3A 7471  11.197   0.241   7.009 -0.0143  0.0599 -0.1805
  678PSPI   C4A 7472  11.210   0.424   7.349 -0.5196 -0.0362 -0.0909
  678PSPI   C1B 7473  10.440   0.294   6.529 -0.1358  0.0845  0.2034
  678PSPI   C2B 7474  10.233  -0.003   6.876  0.0237 -0.0974  0.1735
  678PSPI   C3B 7475   9.986   0.174   7.234 -0.0922 -0.1922 -0.0819
  678PSPI   C4B 7476   9.790   0.473   7.461 -0.0376  0.2318  0.1625
  679PSPI    C1 7477  10.213   8.559   6.183  0.1174 -0.1135  0.0925
  679PSPI    C2 7478  10.231   8.276   5.902  0.1813 -0.0136 -0.0048
  679PSPI    C3 7479   9.877   8.426   6.012  0.1782  0.1808 -0.2693
  679PSPI   PO4 7480  10.476   8.413   6.289 -0.0229  0.2200 -0.2063
  679PSPI   GL1 7481  10.516   8.382   6.654  0.0559 -0.0364  0.0377
  679PSPI   GL2 7482  10.263   8.185   6.685  0.1917  0.1690  0.0577
  679PSPI   C1A 7483  10.851   8.495   6.892  0.0402  0.1450  0.0255
  679PSPI   C2A 7484  11.064   8.577   7.184 -0.0149 -0.1220 -0.2679
  679PSPI   C3A 7485  10.917   8.611   7.530  0.2376  0.2018 -0.1050
  679PSPI   C4A 7486  10.929   8.731   7.954  0.0064 -0.0279 -0.0836
  679PSPI   C1B 7487  10.156   8.177   7.075 -0.0112  0.0345 -0.1850
  679PSPI   C2B 7488   9.913   8.259   7.428  0.3755 -0.0903 -0.0277
  679PSPI   C3B 7489   9.713   8.229   7.831  0.0308 -0.0884 -0.1361
  679PSPI   C4B 7490   9.511   8.399   8.075  0.1794  0.0073 -0.0972
  680PSPI    C1 7491  14.376   1.402   5.764  0.1654  0.0606 -0.0362
  680PSPI    C2 7492  14.191   1.076   5.624  0.0018  0.0569  0.1832
  680PSPI    C3 7493  13.985   1.414   5.679  0.1045  0.1106  0.2407
  680PSPI   PO4 7494  14.579   1.357   6.034 -0.4873  0.0732  0.2489
  680PSPI   GL1 7495  14.679   1.229   6.439 -0.0839  0.1143  0.0282
  680PSPI   GL2 7496  14.439   1.454   6.463 -0.0436  0.1107 -0.1086
  680PSPI   C1A 7497  14.846   1.263   6.968 -0.0551  0.1312  0.0623
  680PSPI   C2A 7498  14.844   1.215   7.409  0.0161  0.1225  0.0697
  680PSPI   C3A 7499  14.714   1.117   7.807 -0.1480  0.2588  0.0722
  680PSPI   C4A 7500  14.753   1.156   8.221 -0.1526 -0.1169  0.1980
  680PSPI   C1B 7501  14.384   1.122   6.838  0.3119  0.2261 -0.3316
  680PSPI   C2B 7502  14.205   0.909   7.148  0.1640  0.0807 -0.0610
  680PSPI   C3B 7503  13.830   0.768   7.372 -0.0109  0.1455  0.0334
  680PSPI   C4B 7504  13.511   0.594   7.622 -0.2333 -0.0694 -0.0120
  681PSPI    C1 7505   9.163   6.826   6.005 -0.1507  0.0476 -0.1570
  681PSPI    C2 7506   9.344   6.605   5.725 -0.0146 -0.1410  0.0764
  681PSPI    C3 7507   9.313   7.001   5.678  0.2508 -0.1356 -0.0768
  681PSPI   PO4 7508   9.178   6.679   6.211  0.1268  0.2029 -0.0708
  681PSPI   GL1 7509   8.768   6.533   6.329 -0.1387 -0.0997  0.3096
  681PSPI   GL2 7510   8.467   6.656   6.395 -0.0348 -0.1016 -0.2386
  681PSPI   C1A 7511   8.799   6.325   6.747  0.0085 -0.1077 -0.0420
  681PSPI   C2A 7512   8.897   6.243   7.149  0.3927  0.3064 -0.1500
  681PSPI   C3A 7513   9.142   6.282   7.656 -0.0031 -0.0420  0.0374
  681PSPI   C4A 7514   9.143   6.526   8.063 -0.2277  0.1156 -0.1919
  681PSPI   C1B 7515   8.289   6.808   6.712 -0.2895  0.0746  0.1884
  681PSPI   C2B 7516   8.219   6.841   7.150  0.2774 -0.1863 -0.1164
  681PSPI   C3B 7517   8.180   6.997   7.538 -0.1259  0.0267 -0.0057
  681PSPI   C4B 7518   8.341   7.355   7.711  0.2689 -0.0905  0.5685
  682PSPI    C1 7519  14.182  17.368   5.144  0.1842  0.2168  0.1025
  682PSPI    C2 7520  14.580  17.332   5.136  0.1916  0.2552  0.2639
  682PSPI    C3 7521  14.359  17.170   4.844  0.3466  0.5232 -0.0081
  682PSPI   PO4 7522  14.138  17.421   5.399 -0.2384  0.1490  0.0832
  682PSPI   GL1 7523  14.184  17.334   5.830 -0.0228  0.1726 -0.3177
  682PSPI   GL2 7524  13.815  17.552   5.806  0.1318 -0.4930  0.1258
  682PSPI   C1A 7525  14.256  17.547   6.196 -0.2130  0.0702  0.0044
  682PSPI   C2A 7526  14.250  17.899   6.467 -0.3012 -0.0248 -0.2547
  682PSPI   C3A 7527  14.284  17.977   6.963 -0.2220  0.1402  0.1036
  682PSPI   C4A 7528  14.230  17.786   7.291  0.0631  0.0761  0.1733
  682PSPI   C1B 7529  13.794  17.671   6.155 -0.0640 -0.1249 -0.0547
  682PSPI   C2B 7530  13.738  17.639   6.640 -0.0156 -0.0742  0.1594
  682PSPI   C3B 7531  13.841  17.818   6.961  0.2562 -0.1396 -0.1826
  682PSPI   C4B 7532  13.730  17.765   7.410 -0.2906  0.3654 -0.1425
  683PSPI    C1 7533   2.585   3.713   5.673 -0.2577  0.2207 -0.5003
  683PSPI    C2 7534   2.561   3.325   5.579  0.4305  0.0642 -0.0986
  683PSPI    C3 7535   2.727   3.584   5.322  0.3074  0.0294 -0.2142
  683PSPI   PO4 7536   2.585   3.784   5.919  0.0470 -0.0472 -0.1038
  683PSPI   GL1 7537   2.435   3.696   6.372  0.0312  0.1292 -0.0393
  683PSPI   GL2 7538   2.719   3.693   6.535  0.1025 -0.1946  0.1944
  683PSPI   C1A 7539   2.260   3.896   6.644 -0.3829 -0.0207  0.0953
  683PSPI   C2A 7540   1.900   3.951   6.919 -0.1522  0.0640  0.3496
  683PSPI   C3A 7541   1.600   4.238   7.024  0.0707  0.0466  0.2501
  683PSPI   C4A 7542   1.245   4.570   7.076 -0.0945  0.2381 -0.1188
  683PSPI   C1B 7543   2.664   3.753   7.043  0.2228  0.0493 -0.0897
  683PSPI   C2B 7544   2.606   3.747   7.517 -0.0350 -0.1219 -0.1420
  683PSPI   C3B 7545   2.965   3.706   7.749 -0.1078  0.0863  0.1927
  683PSPI   C4B 7546   3.360   3.602   8.024  0.0039 -0.3408 -0.1537
  684PSPI    C1 7547  15.329  13.433   5.791  0.2815 -0.0803  0.1725
  684PSPI    C2 7548  15.348  13.812   5.664 -0.0271 -0.0987  0.0636
  684PSPI    C3 7549  15.499  13.518   5.438  0.0280 -0.0624  0.0528
  684PSPI   PO4 7550  15.438  13.472   6.062 -0.0640 -0.0670 -0.0713
  684PSPI   GL1 7551  15.428  13.804   6.429 -0.0287 -0.0576  0.1164
  684PSPI   GL2 7552  15.213  13.957   6.164 -0.2658  0.1608 -0.2156
  684PSPI   C1A 7553  15.190  13.557   6.753  0.1178 -0.1265 -0.1876
  684PSPI   C2A 7554  15.047  13.500   7.159  0.0685  0.2440  0.1335
  684PSPI   C3A 7555  15.056  13.492   7.609 -0.2157 -0.2707 -0.0093
  684PSPI   C4A 7556  15.062  13.739   8.015 -0.1836 -0.0272 -0.1600
  684PSPI   C1B 7557  14.947  13.934   6.519  0.2217 -0.0585  0.0168
  684PSPI   C2B 7558  14.930  14.003   6.940  0.0270 -0.1502 -0.0460
  684PSPI   C3B 7559  15.153  14.095   7.295 -0.2269  0.0168 -0.1235
  684PSPI   C4B 7560  15.324  14.441   7.442 -0.3928  0.2381 -0.2700
  685PSPI    C1 7561  17.175  14.934   5.852  0.1073 -0.1822  0.1486
  685PSPI    C2 7562  17.109  14.546   5.778  0.0784 -0.1309 -0.1005
  685PSPI    C3 7563  16.812  14.811   5.738  0.1591 -0.0504 -0.1684
  685PSPI   PO4 7564  17.348  14.973   5.971 -0.3036  0.1447 -0.0331
  685PSPI   GL1 7565  17.709  15.214   6.237 -0.0683 -0.2449  0.1600
  685PSPI   GL2 7566  17.696  14.933   6.364  0.0607 -0.1538  0.1496
  685PSPI   C1A 7567  17.429  15.170   6.688 -0.0113  0.2009  0.0132
  685PSPI   C2A 7568  17.419  15.183   7.110 -0.1025  0.0846 -0.1977
  685PSPI   C3A 7569  17.565  15.099   7.500  0.0557 -0.1364 -0.0537
  685PSPI   C4A 7570  17.578  14.788   7.776 -0.0836  0.2415  0.2057
  685PSPI   C1B 7571  17.657  14.730   6.747  0.2609 -0.0246  0.0367
  685PSPI   C2B 7572  17.774  14.730   7.206 -0.0698  0.0875  0.0846
  685PSPI   C3B 7573  18.032  14.759   7.487  0.0503  0.2473  0.0678
  685PSPI   C4B 7574  18.319  15.048   7.735  0.0395  0.0630  0.0452
  686PSPI    C1 7575   1.557   2.338   6.386 -0.0013 -0.2042 -0.2204
  686PSPI    C2 7576   1.598   2.731   6.324  0.1350 -0.1867 -0.0283
  686PSPI    C3 7577   1.682   2.473   6.030 -0.1570 -0.0650 -0.2237
  686PSPI   PO4 7578   1.667   2.336   6.629  0.0988  0.1288  0.1211
  686PSPI   GL1 7579   1.717   2.285   7.070  0.3517 -0.1489  0.0043
  686PSPI   GL2 7580   1.733   2.714   6.969 -0.0661  0.1264  0.4388
  686PSPI   C1A 7581   1.664   2.377   7.523 -0.5098 -0.0382 -0.1920
  686PSPI   C2A 7582   1.743   2.277   7.950 -0.0006  0.0534 -0.1266
  686PSPI   C3A 7583   1.888   2.156   8.342  0.2054  0.0105  0.0519
  686PSPI   C4A 7584   2.248   2.077   8.625 -0.1485 -0.0067 -0.2277
  686PSPI   C1B 7585   1.821   2.841   7.270  0.2023 -0.1082 -0.2548
  686PSPI   C2B 7586   1.752   3.012   7.602  0.2454  0.1586  0.2661
  686PSPI   C3B 7587   1.727   3.157   8.077 -0.0617  0.1920 -0.1933
  686PSPI   C4B 7588   1.412   3.116   8.441  0.4004  0.1844 -0.2030
  687PSPI    C1 7589   7.122   0.794   5.899 -0.1994  0.0213  0.2248
  687PSPI    C2 7590   6.741   0.846   5.789 -0.0694  0.1225 -0.1949
  687PSPI    C3 7591   7.024   1.093   5.652  0.1634 -0.0142  0.0321
  687PSPI   PO4 7592   7.122   0.838   6.205 -0.1426  0.0360 -0.0109
  687PSPI   GL1 7593   7.050   0.616   6.568  0.0764 -0.0405 -0.0704
  687PSPI   GL2 7594   6.858   0.418   6.616  0.4920 -0.0530  0.0048
  687PSPI   C1A 7595   6.967   0.809   6.973 -0.2845 -0.0730  0.2529
  687PSPI   C2A 7596   7.116   0.862   7.287  0.0218  0.0448 -0.0950
  687PSPI   C3A 7597   7.301   1.183   7.411 -0.1083  0.0629 -0.1989
  687PSPI   C4A 7598   7.398   1.569   7.461 -0.1153 -0.0309 -0.0178
  687PSPI   C1B 7599   6.724   0.395   7.025  0.1743 -0.1152  0.0723
  687PSPI   C2B 7600   6.740   0.539   7.422 -0.0196  0.0128  0.0999
  687PSPI   C3B 7601   6.943   0.535   7.727  0.0964  0.3433 -0.2166
  687PSPI   C4B 7602   7.215   0.878   7.939  0.1829  0.0464  0.3899
  688PSPI    C1 7603   8.778  11.693   5.400 -0.1430 -0.0398 -0.0951
  688PSPI    C2 7604   9.002  11.667   5.070 -0.0175 -0.1505 -0.0025
  688PSPI    C3 7605   8.612  11.582   5.054 -0.0896  0.1955 -0.1980
  688PSPI   PO4 7606   9.035  11.696   5.586 -0.2744  0.1153  0.1144
  688PSPI   GL1 7607   8.995  11.732   5.999  0.0154  0.2364  0.0518
  688PSPI   GL2 7608   8.694  11.680   5.928 -0.2145 -0.1899 -0.2095
  688PSPI   C1A 7609   9.157  11.847   6.442 -0.0531 -0.0592  0.0457
  688PSPI   C2A 7610   9.172  12.135   6.807  0.2242  0.1143  0.0313
  688PSPI   C3A 7611   8.972  12.389   7.159  0.1276 -0.1007 -0.3637
  688PSPI   C4A 7612   8.948  12.322   7.574 -0.0777  0.1798  0.4009
  688PSPI   C1B 7613   8.492  11.922   6.290  0.1819  0.2887  0.1469
  688PSPI   C2B 7614   8.411  11.738   6.676 -0.3056  0.1208 -0.0958
  688PSPI   C3B 7615   8.539  11.517   7.017  0.2731  0.1260  0.1611
  688PSPI   C4B 7616   8.706  11.578   7.401  0.0102  0.1401  0.1041
  689PSPI    C1 7617  14.984   8.627   6.697 -0.0292 -0.0278 -0.0622
  689PSPI    C2 7618  15.064   8.887   6.991 -0.0600 -0.0363 -0.0464
  689PSPI    C3 7619  15.363   8.723   6.783 -0.0392 -0.0112 -0.0363
  689PSPI   PO4 7620  14.867   8.455   6.811  0.0713 -0.0391 -0.0186
  689PSPI   GL1 7621  15.053   8.105   7.070  0.3713 -0.0650  0.0669
  689PSPI   GL2 7622  14.878   8.082   7.200 -0.0908  0.0346 -0.0289
  689PSPI   C1A 7623  15.266   8.021   7.471 -0.2461 -0.2774 -0.0496
  689PSPI   C2A 7624  15.496   8.171   7.807 -0.0380  0.2107 -0.0528
  689PSPI   C3A 7625  15.609   8.443   8.160 -0.0030  0.2764 -0.1283
  689PSPI   C4A 7626  15.714   8.783   8.195 -0.2888 -0.2024  0.0027
  689PSPI   C1B 7627  14.630   8.017   7.556 -0.0599 -0.0713  0.1322
  689PSPI   C2B 7628  14.553   8.063   7.871  0.0244  0.1477 -0.3389
  689PSPI   C3B 7629  14.761   7.999   8.224  0.0910  0.2559 -0.1064
  689PSPI   C4B 7630  14.727   8.047   8.621  0.0142 -0.2036 -0.2024
  690PSPI    C1 7631   9.042   2.511   5.358 -0.0729 -0.0862 -0.1386
  690PSPI    C2 7632   8.791   2.346   5.094 -0.1745  0.1538 -0.1953
  690PSPI    C3 7633   8.725   2.717   5.226 -0.1487  0.0216  0.2024
  690PSPI   PO4 7634   9.123   2.391   5.484 -0.1313  0.3256  0.4368
  690PSPI   GL1 7635   9.300   2.543   6.002 -0.1681 -0.4577 -0.0204
  690PSPI   GL2 7636   9.210   2.240   6.157  0.2564  0.1552 -0.0095
  690PSPI   C1A 7637   9.655   2.675   6.321  0.2386  0.0983 -0.3886
  690PSPI   C2A 7638   9.721   2.676   6.762  0.1074  0.2131 -0.0328
  690PSPI   C3A 7639   9.683   2.508   7.238  0.2417 -0.0405  0.0723
  690PSPI   C4A 7640   9.796   2.268   7.673 -0.0225 -0.2185 -0.1188
  690PSPI   C1B 7641   9.492   2.275   6.506 -0.0915 -0.2935  0.5783
  690PSPI   C2B 7642   9.559   2.101   6.947 -0.2828  0.1286  0.1520
  690PSPI   C3B 7643   9.440   1.912   7.387  0.0439  0.3204 -0.0439
  690PSPI   C4B 7644   9.574   1.816   7.743  0.1759  0.0653  0.0292
  691PSPI    C1 7645   6.792  11.793   5.507 -0.1632 -0.1169  0.3853
  691PSPI    C2 7646   6.640  11.446   5.378  0.0702 -0.1358  0.1539
  691PSPI    C3 7647   7.036  11.490   5.414  0.0434  0.1134  0.1631
  691PSPI   PO4 7648   6.597  11.869   5.827  0.1470 -0.0683  0.0623
  691PSPI   GL1 7649   6.466  11.790   6.248  0.0157 -0.3187 -0.1631
  691PSPI   GL2 7650   6.776  11.763   6.434  0.1549 -0.4408  0.0670
  691PSPI   C1A 7651   6.288  11.786   6.663  0.1115 -0.0461  0.3636
  691PSPI   C2A 7652   6.274  11.736   7.054  0.1367 -0.3180  0.1814
  691PSPI   C3A 7653   6.162  11.745   7.419  0.0910  0.0824 -0.3329
  691PSPI   C4A 7654   6.098  11.804   7.841 -0.2037 -0.0574 -0.3104
  691PSPI   C1B 7655   6.680  11.585   6.884  0.2301  0.1623 -0.0312
  691PSPI   C2B 7656   6.720  11.395   7.228  0.1445  0.2104  0.0954
  691PSPI   C3B 7657   6.617  11.450   7.621 -0.2914  0.2884 -0.1036
  691PSPI   C4B 7658   6.694  11.560   8.036  0.0064  0.0740 -0.1662
  692POPI    C1 7659   1.378   0.151   6.544  0.0307 -0.1220 -0.0236
  692POPI    C2 7660   1.641   0.292   6.278  0.0714 -0.0659  0.0461
  692POPI    C3 7661   1.299   0.489   6.343  0.1272  0.0002  0.1416
  692POPI   PO4 7662   1.286  -0.135   6.429  0.4381  0.0249  0.3317
  692POPI   GL1 7663   1.281  -0.405   6.710  0.1804 -0.1428  0.2166
  692POPI   GL2 7664   1.115  -0.496   6.987 -0.2032 -0.2275 -0.1295
  692POPI   C1A 7665   1.599  -0.569   6.981 -0.1538  0.3781  0.2040
  692POPI   D2A 7666   1.988  -0.756   7.267  0.2355 -0.2256 -0.0113
  692POPI   C3A 7667   1.795  -0.856   7.621 -0.0938 -0.0070  0.0827
  692POPI   C4A 7668   1.707  -0.966   8.054 -0.3479 -0.0279  0.1307
  692POPI   C1B 7669   1.152  -0.360   7.376  0.0257 -0.0756 -0.1141
  692POPI   C2B 7670   1.117  -0.448   7.806  0.3306  0.0493  0.0062
  692POPI   C3B 7671   1.037  -0.095   8.065 -0.0826 -0.0636 -0.1232
  692POPI   C4B 7672   0.869  -0.050   8.497  0.1457 -0.0383  0.0001
  693POPI    C1 7673  14.748   6.085   6.634  0.1825  0.0591  0.1722
  693POPI    C2 7674  15.127   5.968   6.687  0.1980  0.0775  0.1024
  693POPI    C3 7675  15.021   6.159   6.352  0.0985 -0.0474  0.0620
  693POPI   PO4 7676  14.750   6.285   6.841  0.2871 -0.2148 -0.2190
  693POPI   GL1 7677  14.714   6.280   7.185 -0.1618  0.1787 -0.0787
  693POPI   GL2 7678  14.961   6.370   7.368  0.0950  0.0318  0.4603
  693POPI   C1A 7679  14.591   6.283   7.707 -0.3475  0.1301 -0.3027
  693POPI   D2A 7680  14.811   6.313   8.126 -0.1548  0.2842 -0.1466
  693POPI   C3A 7681  14.907   5.909   8.368  0.1853 -0.0009  0.2916
  693POPI   C4A 7682  15.018   5.546   8.561 -0.0668 -0.4806 -0.1552
  693POPI   C1B 7683  14.935   5.967   7.641  0.0827  0.2363  0.1934
  693POPI   C2B 7684  15.078   5.778   7.979  0.1471 -0.0912 -0.0815
  693POPI   C3B 7685  15.490   5.821   8.213 -0.3352 -0.1822  0.2294
  693POPI   C4B 7686  15.803   6.177   8.305  0.0269 -0.0916 -0.3258
  694POPI    C1 7687   0.817   6.266   6.419 -0.1538  0.0826  0.0373
  694POPI    C2 7688   0.932   6.306   6.038  0.0141 -0.0465  0.0729
  694POPI    C3 7689   0.571   6.157   6.123  0.0270 -0.1402 -0.0343
  694POPI   PO4 7690   0.855   6.495   6.524 -0.0307  0.2064 -0.1131
  694POPI   GL1 7691   1.201   6.521   6.811  0.0443 -0.1574  0.2963
  694POPI   GL2 7692   1.510   6.458   6.801 -0.0990  0.0870  0.1342
  694POPI   C1A 7693   1.115   6.725   7.108 -0.0274 -0.0276  0.0620
  694POPI   D2A 7694   1.217   6.784   7.421  0.2650  0.1528 -0.1864
  694POPI   C3A 7695   1.403   6.855   7.868  0.0027 -0.2094 -0.1382
  694POPI   C4A 7696   1.662   6.936   8.221  0.0576 -0.0590 -0.1131
  694POPI   C1B 7697   1.510   6.330   7.176 -0.0578  0.2156 -0.0644
  694POPI   C2B 7698   1.437   6.354   7.576  0.1298 -0.1709 -0.2534
  694POPI   C3B 7699   1.468   6.259   8.009  0.3984 -0.3247  0.3192
  694POPI   C4B 7700   1.707   6.416   8.265  0.0275 -0.0279  0.2856
  695POPI    C1 7701  15.259   5.397   6.480  0.0305 -0.0471 -0.0471
  695POPI    C2 7702  15.350   5.013   6.544 -0.2023 -0.0863  0.0593
  695POPI    C3 7703  15.108   5.114   6.241 -0.0827 -0.0161 -0.0132
  695POPI   PO4 7704  15.221   5.488   6.755 -0.3112  0.0335  0.2317
  695POPI   GL1 7705  15.276   5.253   7.052  0.0932 -0.1961 -0.1333
  695POPI   GL2 7706  15.008   5.313   7.210 -0.1998  0.1981 -0.0997
  695POPI   C1A 7707  15.477   5.156   7.402 -0.0287 -0.0853  0.1229
  695POPI   D2A 7708  15.769   4.827   7.623 -0.0010  0.0377  0.2558
  695POPI   C3A 7709  15.735   4.942   8.053 -0.0746  0.2316  0.0223
  695POPI   C4A 7710  15.544   4.877   8.448 -0.3516  0.0637  0.1282
  695POPI   C1B 7711  14.926   5.321   7.685  0.0601  0.0609  0.0044
  695POPI   C2B 7712  14.934   5.002   8.101  0.1869  0.1833 -0.4849
  695POPI   C3B 7713  15.071   5.003   8.573  0.1551  0.0835 -0.0388
  695POPI   C4B 7714  15.135   4.886   8.902  0.0092  0.1687  0.0597
  696POPI    C1 7715   2.418  17.511   6.286 -0.0600  0.1112  0.1594
  696POPI    C2 7716   2.490  17.870   6.447  0.1489  0.0246  0.2630
  696POPI    C3 7717   2.773  17.687   6.231 -0.0357  0.0206  0.0200
  696POPI   PO4 7718   2.412  17.292   6.469  0.0195 -0.0685 -0.0028
  696POPI   GL1 7719   2.222  17.289   6.923 -0.1189  0.3400 -0.0324
  696POPI   GL2 7720   2.485  17.074   6.944  0.2433 -0.2174  0.2128
  696POPI   C1A 7721   2.239  17.262   7.390  0.0155 -0.0535 -0.0991
  696POPI   D2A 7722   2.200  17.135   7.825 -0.5860  0.1035  0.2262
  696POPI   C3A 7723   2.188  17.520   8.141  0.2005 -0.0401  0.0158
  696POPI   C4A 7724   1.936  17.753   8.416 -0.1569  0.1376  0.0979
  696POPI   C1B 7725   2.573  16.933   7.310 -0.0058  0.1206 -0.1046
  696POPI   C2B 7726   2.663  16.930   7.755  0.3037  0.1294 -0.0586
  696POPI   C3B 7727   2.742  16.691   8.171 -0.1443 -0.1383 -0.1161
  696POPI   C4B 7728   2.955  16.316   8.384  0.0495  0.0851  0.0579
  697POPI    C1 7729   1.436   8.517   6.295 -0.3863  0.2156  0.3380
  697POPI    C2 7730   1.074   8.455   6.135 -0.1237 -0.1417 -0.1419
  697POPI    C3 7731   1.360   8.177   6.099  0.2686  0.2258  0.0413
  697POPI   PO4 7732   1.396   8.690   6.629  0.0937  0.2720 -0.0784
  697POPI   GL1 7733   1.077   9.000   6.859 -0.1560  0.0907  0.2105
  697POPI   GL2 7734   1.205   8.653   7.114 -0.3004 -0.0472  0.0471
  697POPI   C1A 7735   1.110   9.100   7.279 -0.1365 -0.0342  0.0699
  697POPI   D2A 7736   1.042   9.245   7.689 -0.3168  0.0202 -0.1204
  697POPI   C3A 7737   0.702   9.188   7.881  0.0245 -0.1330  0.0621
  697POPI   C4A 7738   0.557   9.304   8.188  0.1406  0.0768  0.2630
  697POPI   C1B 7739   1.188   8.707   7.539  0.1241  0.1197  0.2614
  697POPI   C2B 7740   1.162   8.834   7.970 -0.0221  0.2558  0.1162
  697POPI   C3B 7741   1.466   8.876   8.303 -0.0880 -0.0298  0.0455
  697POPI   C4B 7742   1.817   8.765   8.461  0.2242  0.0462 -0.0378
  698POPI    C1 7743   0.708  16.529   5.997  0.0725 -0.1271  0.1228
  698POPI    C2 7744   0.369  16.736   6.044  0.0647 -0.1239  0.0538
  698POPI    C3 7745   0.470  16.597   5.683  0.2316  0.0385  0.0363
  698POPI   PO4 7746   0.649  16.401   6.253  0.0563  0.1624  0.1864
  698POPI   GL1 7747   0.522  16.500   6.650  0.0081  0.2441  0.1020
  698POPI   GL2 7748   0.695  16.767   6.870  0.1421  0.3469 -0.2566
  698POPI   C1A 7749   0.325  16.170   6.855 -0.0574  0.0383 -0.1841
  698POPI   D2A 7750   0.302  15.918   7.135  0.2106 -0.0209 -0.2309
  698POPI   C3A 7751   0.318  16.006   7.477  0.2060 -0.1320  0.1233
  698POPI   C4A 7752   0.609  15.859   7.750 -0.4097 -0.0782  0.0422
  698POPI   C1B 7753   0.730  16.719   7.327 -0.1725  0.0486 -0.0549
  698POPI   C2B 7754   0.807  16.892   7.764  0.0761 -0.0171  0.0406
  698POPI   C3B 7755   0.460  16.927   8.096 -0.0572 -0.2453  0.0799
  698POPI   C4B 7756   0.150  17.077   8.304 -0.0399 -0.1054 -0.1259
  699POPI    C1 7757   3.977   6.005   5.857  0.0679 -0.0553 -0.0986
  699POPI    C2 7758   4.224   6.249   5.659  0.0914  0.0052  0.0048
  699POPI    C3 7759   4.325   5.866   5.718  0.0493 -0.0332 -0.1676
  699POPI   PO4 7760   3.886   6.126   6.045  0.0082 -0.2127  0.1213
  699POPI   GL1 7761   3.794   5.846   6.413  0.3522  0.1472 -0.3677
  699POPI   GL2 7762   3.514   6.044   6.531 -0.0113 -0.2425  0.1796
  699POPI   C1A 7763   3.983   5.820   6.843  0.2855  0.3613 -0.0565
  699POPI   D2A 7764   3.908   5.833   7.235  0.2082 -0.1835  0.0535
  699POPI   C3A 7765   3.822   6.193   7.560 -0.0954 -0.2382 -0.1421
  699POPI   C4A 7766   3.639   6.641   7.700 -0.0459  0.2048 -0.0441
  699POPI   C1B 7767   3.550   6.085   6.992 -0.1988  0.2508 -0.0850
  699POPI   C2B 7768   3.445   6.334   7.291 -0.0389  0.0351  0.0097
  699POPI   C3B 7769   3.166   6.406   7.578  0.0342  0.0065 -0.0658
  699POPI   C4B 7770   2.916   6.111   7.947 -0.1131 -0.0410  0.3786
  700POPI    C1 7771   0.834   9.219   6.166  0.0100 -0.1332 -0.1634
  700POPI    C2 7772   0.711   8.841   6.120 -0.0416 -0.1312 -0.0443
  700POPI    C3 7773   1.043   8.919   6.329 -0.1452 -0.0966  0.1096
  700POPI   PO4 7774   0.668   9.376   6.243  0.2093  0.0107 -0.1709
  700POPI   GL1 7775   0.472   9.568   6.546 -0.0114 -0.3083 -0.0309
  700POPI   GL2 7776   0.141   9.427   6.627 -0.1491  0.0942 -0.3714
  700POPI   C1A 7777   0.816   9.447   6.910  0.1509 -0.0048 -0.3332
  700POPI   D2A 7778   1.007   9.658   7.321  0.1175 -0.2542 -0.0917
  700POPI   C3A 7779   0.810   9.750   7.650  0.2186 -0.2107  0.0686
  700POPI   C4A 7780   0.889  10.079   7.930  0.0553 -0.1486 -0.1525
  700POPI   C1B 7781   0.134   9.382   7.040 -0.0474 -0.3737 -0.3930
  700POPI   C2B 7782   0.056   9.413   7.482 -0.0590  0.1961  0.1158
  700POPI   C3B 7783   0.312   9.454   7.696  0.1582 -0.0567 -0.2059
  700POPI   C4B 7784   0.411   9.774   7.956 -0.0755 -0.3781 -0.1503
  701POPI    C1 7785   9.960   5.078   5.707 -0.1572 -0.0840  0.0257
  701POPI    C2 7786  10.183   5.407   5.745 -0.0815 -0.1462  0.1245
  701POPI    C3 7787  10.217   5.179   5.418 -0.0155 -0.1440  0.1296
  701POPI   PO4 7788  10.072   4.978   6.004  0.4153 -0.4912 -0.1456
  701POPI   GL1 7789  10.000   4.834   6.399 -0.0318 -0.0828 -0.0459
  701POPI   GL2 7790  10.073   4.532   6.412  0.0386  0.1847  0.1358
  701POPI   C1A 7791   9.930   4.940   6.757 -0.0663  0.0141  0.1125
  701POPI   D2A 7792  10.049   5.206   7.030  0.0601  0.0278  0.0136
  701POPI   C3A 7793  10.104   5.208   7.468 -0.2002 -0.3814 -0.2034
  701POPI   C4A 7794   9.979   5.218   7.877 -0.3278  0.0624  0.1223
  701POPI   C1B 7795  10.097   4.244   6.691  0.0801 -0.0811  0.1550
  701POPI   C2B 7796  10.442   3.822   6.655 -0.0374  0.4295  0.2420
  701POPI   C3B 7797  10.847   3.706   6.657 -0.0461  0.0821 -0.0872
  701POPI   C4B 7798  11.027   3.348   6.996 -0.4496 -0.0317 -0.1678
  702POPI    C1 7799  15.365  16.741   5.530  0.2379 -0.0245 -0.1676
  702POPI    C2 7800  15.211  16.793   5.165  0.1149  0.1301 -0.0951
  702POPI    C3 7801  15.550  16.978   5.266  0.1975  0.0155 -0.1603
  702POPI   PO4 7802  15.231  16.843   5.794 -0.2987 -0.0425 -0.0492
  702POPI   GL1 7803  15.237  16.542   6.212 -0.2833  0.0076 -0.0519
  702POPI   GL2 7804  14.964  16.570   6.201 -0.0385  0.2354  0.2047
  702POPI   C1A 7805  15.429  16.547   6.610 -0.0707  0.2037  0.1804
  702POPI   D2A 7806  15.274  16.767   6.955 -0.0425 -0.1738  0.1599
  702POPI   C3A 7807  15.344  16.718   7.320 -0.2832 -0.0294  0.0994
  702POPI   C4A 7808  15.297  16.925   7.754  0.1879 -0.4693 -0.0377
  702POPI   C1B 7809  14.886  16.722   6.605  0.1155 -0.3676 -0.0216
  702POPI   C2B 7810  14.721  16.833   7.018  0.1431  0.2929  0.1793
  702POPI   C3B 7811  14.914  16.920   7.419  0.0755  0.0531  0.0331
  702POPI   C4B 7812  15.233  17.255   7.381  0.3226  0.1485 -0.0195
  703POPI    C1 7813   6.076   0.775   6.054 -0.0606  0.1856 -0.1112
  703POPI    C2 7814   6.067   0.377   6.017 -0.4745  0.1951 -0.1693
  703POPI    C3 7815   6.310   0.594   5.784 -0.2703 -0.0185 -0.1600
  703POPI   PO4 7816   6.110   0.857   6.377  0.1891  0.3554  0.3915
  703POPI   GL1 7817   6.318   0.737   6.739 -0.0055 -0.2906 -0.1185
  703POPI   GL2 7818   6.241   0.476   6.931 -0.0212  0.4765  0.0403
  703POPI   C1A 7819   6.502   0.868   7.064  0.1788  0.0587  0.1689
  703POPI   D2A 7820   6.476   0.967   7.459 -0.2211  0.2597  0.0236
  703POPI   C3A 7821   6.710   0.993   7.752  0.1952 -0.0510  0.0405
  703POPI   C4A 7822   6.902   1.210   8.142 -0.2223 -0.4085  0.2643
  703POPI   C1B 7823   6.296   0.498   7.330  0.1619 -0.1699 -0.1485
  703POPI   C2B 7824   6.204   0.538   7.797 -0.3155  0.5275  0.1267
  703POPI   C3B 7825   6.530   0.586   8.062  0.0896  0.2318 -0.2402
  703POPI   C4B 7826   6.744   0.889   8.483  0.2254  0.1855 -0.1145
  704POPI    C1 7827  15.890  14.605   5.805 -0.0426 -0.0386  0.0234
  704POPI    C2 7828  15.860  14.524   5.415  0.0107  0.2896 -0.0517
  704POPI    C3 7829  15.778  14.892   5.550 -0.1677  0.1357  0.2697
  704POPI   PO4 7830  16.089  14.383   5.880 -0.0939 -0.1157 -0.2413
  704POPI   GL1 7831  16.028  14.267   6.326  0.2261 -0.1043 -0.2628
  704POPI   GL2 7832  15.931  14.621   6.392  0.1743 -0.0726 -0.0181
  704POPI   C1A 7833  15.857  13.984   6.644  0.2954 -0.0450  0.0055
  704POPI   D2A 7834  15.450  13.936   6.893 -0.2758  0.0595  0.0468
  704POPI   C3A 7835  15.515  13.733   7.192 -0.0577 -0.3162 -0.4142
  704POPI   C4A 7836  15.575  13.331   7.499  0.1787  0.0934  0.0181
  704POPI   C1B 7837  15.986  14.489   6.790  0.1064  0.1538 -0.0461
  704POPI   C2B 7838  15.834  14.287   7.033  0.1397  0.1989  0.0373
  704POPI   C3B 7839  15.774  14.091   7.395  0.0143  0.2291 -0.1349
  704POPI   C4B 7840  15.556  13.849   7.677  0.2970 -0.0929 -0.1370
  705POPI    C1 7841  11.683  15.654   5.489 -0.1766  0.4229 -0.0232
  705POPI    C2 7842  11.428  15.360   5.399  0.1719  0.0564  0.1583
  705POPI    C3 7843  11.693  15.485   5.127 -0.0288  0.2614  0.0546
  705POPI   PO4 7844  11.639  15.619   5.772 -0.0267 -0.0790 -0.0678
  705POPI   GL1 7845  11.695  15.587   6.211 -0.0278  0.1349 -0.0356
  705POPI   GL2 7846  11.955  15.747   6.209 -0.2745  0.2047 -0.2326
  705POPI   C1A 7847  11.647  15.516   6.654 -0.0227  0.0530  0.1422
  705POPI   D2A 7848  11.529  15.551   7.036  0.1972  0.1443  0.0958
  705POPI   C3A 7849  11.124  15.623   7.140 -0.0646 -0.1420  0.1699
  705POPI   C4A 7850  10.739  15.893   7.219  0.2259  0.2590 -0.2369
  705POPI   C1B 7851  11.795  15.957   6.565 -0.1503 -0.0858 -0.1853
  705POPI   C2B 7852  11.765  16.043   6.999 -0.3801  0.0942  0.0555
  705POPI   C3B 7853  11.630  15.909   7.337 -0.0818  0.0037 -0.0052
  705POPI   C4B 7854  11.243  16.045   7.501 -0.0097 -0.0540  0.0785
  706POPI    C1 7855  17.822  17.012   6.240  0.1268 -0.0578  0.1138
  706POPI    C2 7856  17.579  16.695   6.213 -0.0185  0.0569  0.0589
  706POPI    C3 7857  17.857  16.759   5.933 -0.0718  0.0456  0.0035
  706POPI   PO4 7858  17.630  17.169   6.331  0.2015 -0.3085 -0.1384
  706POPI   GL1 7859  17.611  17.373   6.705  0.4350 -0.2575  0.2140
  706POPI   GL2 7860  17.384  17.547   6.605  0.0913  0.2045 -0.0129
  706POPI   C1A 7861  17.531  17.176   7.068  0.0983  0.0100 -0.1665
  706POPI   D2A 7862  17.896  17.195   7.331 -0.2250  0.1405  0.3570
  706POPI   C3A 7863  18.228  17.458   7.487 -0.0150 -0.2418 -0.1179
  706POPI   C4A 7864  18.561  17.460   7.350 -0.3840 -0.0241 -0.2647
  706POPI   C1B 7865  17.268  17.591   7.017 -0.0735  0.2648 -0.2418
  706POPI   C2B 7866  17.135  17.794   7.443  0.0175  0.0332  0.2900
  706POPI   C3B 7867  16.998  17.644   7.869  0.1270  0.1028  0.0942
  706POPI   C4B 7868  16.805  17.490   8.275 -0.3654 -0.2652 -0.0356
  707POPI    C1 7869  11.054  17.903   5.627 -0.0913  0.0333  0.1780
  707POPI    C2 7870  10.846  18.010   5.302  0.1583  0.1948  0.0690
  707POPI    C3 7871  11.118  17.718   5.278 -0.2219 -0.1859  0.2682
  707POPI   PO4 7872  10.884  17.823   5.841 -0.0986  0.6961  0.1602
  707POPI   GL1 7873  10.708  17.807   6.198  0.0174  0.1070  0.0403
  707POPI   GL2 7874  10.303  17.879   6.165 -0.0451  0.1387 -0.2510
  707POPI   C1A 7875  10.576  17.954   6.561 -0.4565 -0.3793  0.2102
  707POPI   D2A 7876  10.442  17.978   6.937 -0.3403 -0.0903  0.0909
  707POPI   C3A 7877  10.410  17.555   7.180 -0.0699 -0.2789  0.0816
  707POPI   C4A 7878  10.571  17.235   7.426  0.0399  0.1638  0.0644
  707POPI   C1B 7879  10.430  17.531   6.430  0.0375  0.0611 -0.0620
  707POPI   C2B 7880  10.742  17.454   6.761 -0.0355  0.3064 -0.1554
  707POPI   C3B 7881  11.016  17.319   7.162  0.0443 -0.0563 -0.2734
  707POPI   C4B 7882  11.119  17.161   7.521 -0.1762 -0.2417 -0.0349
  708POPI    C1 7883   9.236   9.020   5.791  0.1304  0.0967  0.0355
  708POPI    C2 7884   9.575   9.226   5.846  0.0998  0.1557  0.0055
  708POPI    C3 7885   9.589   8.844   5.728  0.1518  0.2206 -0.2016
  708POPI   PO4 7886   9.097   9.064   6.032 -0.0411  0.1640  0.0022
  708POPI   GL1 7887   8.949   8.905   6.458 -0.0115 -0.0022 -0.1708
  708POPI   GL2 7888   8.622   8.824   6.607  0.0752 -0.2681 -0.0786
  708POPI   C1A 7889   9.119   8.801   6.895  0.1868  0.1403 -0.0098
  708POPI   D2A 7890   9.083   8.805   7.313  0.0669  0.1659  0.0170
  708POPI   C3A 7891   8.723   8.706   7.513  0.1867  0.0240  0.1793
  708POPI   C4A 7892   8.390   8.938   7.626 -0.1238 -0.1911 -0.0729
  708POPI   C1B 7893   8.615   8.824   7.022  0.1306  0.1752  0.0344
  708POPI   C2B 7894   8.361   8.595   7.214 -0.2646  0.0254 -0.3512
  708POPI   C3B 7895   8.006   8.645   7.480  0.1174 -0.3130  0.2811
  708POPI   C4B 7896   7.905   8.544   7.895  0.0904 -0.1139  0.0334
  709POPI    C1 7897   4.748  12.349   5.684 -0.0726  0.0597 -0.3007
  709POPI    C2 7898   4.914  12.060   5.906  0.0429  0.4215  0.0965
  709POPI    C3 7899   4.810  11.986   5.527  0.0919 -0.1297  0.1829
  709POPI   PO4 7900   4.835  12.616   5.770 -0.1592  0.0255 -0.1947
  709POPI   GL1 7901   5.016  12.757   6.161 -0.0026 -0.1304 -0.0643
  709POPI   GL2 7902   4.985  12.445   6.250 -0.0278 -0.1372 -0.0828
  709POPI   C1A 7903   4.828  12.929   6.529 -0.1030 -0.1613  0.1582
  709POPI   D2A 7904   4.944  13.331   6.779 -0.0988  0.0826 -0.0001
  709POPI   C3A 7905   5.044  13.450   7.154 -0.2654 -0.0716  0.0123
  709POPI   C4A 7906   5.213  13.606   7.550  0.3365 -0.3055  0.3072
  709POPI   C1B 7907   5.096  12.443   6.664  0.2133 -0.0519 -0.0284
  709POPI   C2B 7908   5.331  12.535   7.067 -0.3377 -0.2942 -0.0391
  709POPI   C3B 7909   5.166  12.680   7.490  0.1110 -0.0571  0.4725
  709POPI   C4B 7910   5.002  13.089   7.551  0.0228 -0.0813 -0.1757
  710POPI    C1 7911  11.676   8.508   6.029 -0.0428  0.0032 -0.1640
  710POPI    C2 7912  11.959   8.261   6.167 -0.1001 -0.0239 -0.0947
  710POPI    C3 7913  11.754   8.165   5.837 -0.1807 -0.1100 -0.0202
  710POPI   PO4 7914  11.446   8.546   6.196 -0.1018 -0.1093 -0.0976
  710POPI   GL1 7915  11.296   8.661   6.601 -0.1397  0.2447 -0.3421
  710POPI   GL2 7916  11.711   8.562   6.588  0.0748 -0.1818 -0.1113
  710POPI   C1A 7917  11.033   8.966   6.782 -0.1682  0.0797  0.0338
  710POPI   D2A 7918  10.724   8.924   7.025  0.1169 -0.2870  0.2443
  710POPI   C3A 7919  10.381   8.621   7.235 -0.1211  0.0494  0.0506
  710POPI   C4A 7920  10.385   8.382   7.476 -0.1796 -0.0999  0.0681
  710POPI   C1B 7921  11.570   8.710   7.022  0.5265 -0.3465 -0.1748
  710POPI   C2B 7922  11.337   8.958   7.290 -0.1183 -0.3287  0.2243
  710POPI   C3B 7923  11.009   9.152   7.589  0.2323  0.4170  0.1097
  710POPI   C4B 7924  11.114   9.410   7.938  0.1373  0.7030 -0.2803
  711POPI    C1 7925   9.906  13.326   5.946 -0.0899 -0.1694  0.0670
  711POPI    C2 7926  10.005  13.067   5.658 -0.2066 -0.1457  0.0049
  711POPI    C3 7927   9.705  13.325   5.600  0.0046  0.1041  0.0091
  711POPI   PO4 7928  10.179  13.469   6.008  0.0743  0.1380  0.1729
  711POPI   GL1 7929  10.224  13.852   6.236  0.0599  0.3394  0.0721
  711POPI   GL2 7930   9.861  13.771   6.268  0.1892 -0.1964 -0.1088
  711POPI   C1A 7931  10.222  14.037   6.637 -0.1277 -0.0858 -0.1050
  711POPI   D2A 7932  10.125  14.275   6.961 -0.1195 -0.1062  0.0820
  711POPI   C3A 7933   9.860  14.087   7.343  0.3095 -0.1180  0.1358
  711POPI   C4A 7934   9.599  13.999   7.636 -0.2507  0.3184 -0.1578
  711POPI   C1B 7935   9.595  13.439   6.449  0.2276 -0.0002 -0.0723
  711POPI   C2B 7936   9.658  13.286   6.853  0.0748  0.2071  0.1959
  711POPI   C3B 7937   9.611  13.051   7.259 -0.0941 -0.2688  0.0018
  711POPI   C4B 7938   9.805  13.028   7.670  0.3204 -0.1945 -0.1714
  712POPI    C1 7939   6.352   7.375   5.995 -0.0524  0.0285 -0.1881
  712POPI    C2 7940   6.549   7.102   6.211 -0.2083  0.1479  0.1106
  712POPI    C3 7941   6.710   7.245   5.874 -0.0516 -0.1876  0.0391
  712POPI   PO4 7942   6.182   7.455   6.105  0.1625  0.0388  0.3485
  712POPI   GL1 7943   5.924   7.407   6.415 -0.0877 -0.3303 -0.0242
  712POPI   GL2 7944   6.049   7.160   6.601 -0.0211  0.1005  0.4060
  712POPI   C1A 7945   5.632   7.597   6.672  0.2651 -0.3082  0.0415
  712POPI   D2A 7946   5.210   7.647   6.622  0.2087  0.2333  0.1320
  712POPI   C3A 7947   5.036   7.641   6.923  0.0713  0.0620  0.0189
  712POPI   C4A 7948   4.621   7.462   7.008  0.0516  0.0960 -0.0130
  712POPI   C1B 7949   5.800   7.061   6.875 -0.1419  0.1832  0.2389
  712POPI   C2B 7950   5.749   6.982   7.324  0.1009 -0.0998  0.2101
  712POPI   C3B 7951   5.931   7.061   7.685  0.2504  0.3824 -0.0965
  712POPI   C4B 7952   6.245   7.414   7.706 -0.1886  0.1398 -0.0808
  713POPI    C1 7953  16.596   8.300   6.237 -0.2554  0.0574  0.1895
  713POPI    C2 7954  16.202   8.335   6.180 -0.2417 -0.0854 -0.0005
  713POPI    C3 7955  16.396   8.011   6.047 -0.0027  0.1438 -0.2217
  713POPI   PO4 7956  16.681   8.281   6.533 -0.2163  0.0338 -0.4438
  713POPI   GL1 7957  16.837   8.635   6.729  0.0248  0.1716 -0.2100
  713POPI   GL2 7958  16.965   8.717   6.966 -0.1408  0.2274 -0.2948
  713POPI   C1A 7959  16.707   9.077   6.656  0.2799 -0.0163  0.0228
  713POPI   D2A 7960  16.629   9.444   6.812  0.1742  0.0434  0.0593
  713POPI   C3A 7961  16.262   9.489   7.084 -0.0692  0.3193 -0.0585
  713POPI   C4A 7962  15.973   9.156   7.274  0.0764 -0.1528 -0.2293
  713POPI   C1B 7963  16.721   8.964   7.225 -0.0906 -0.1229  0.0583
  713POPI   C2B 7964  16.401   9.062   7.489  0.3509  0.0545  0.0372
  713POPI   C3B 7965  16.211   9.419   7.712 -0.2168  0.1820 -0.2365
  713POPI   C4B 7966  16.178   9.366   8.049  0.4778 -0.0803 -0.0936
  714POPI    C1 7967   7.202  15.243   5.378 -0.1232 -0.0501 -0.1806
  714POPI    C2 7968   6.868  15.397   5.534 -0.0486 -0.1332  0.0656
  714POPI    C3 7969   7.100  15.621   5.297 -0.2685 -0.0701 -0.0933
  714POPI   PO4 7970   7.428  15.121   5.553  0.2077 -0.1279  0.0492
  714POPI   GL1 7971   7.179  14.941   5.988 -0.0459  0.1569  0.0759
  714POPI   GL2 7972   7.126  15.337   6.019  0.1519  0.0160  0.0906
  714POPI   C1A 7973   7.393  15.023   6.351 -0.0778  0.2200 -0.0780
  714POPI   D2A 7974   7.441  15.236   6.745 -0.0892  0.0387  0.3048
  714POPI   C3A 7975   7.416  15.312   7.193 -0.1096  0.1783  0.0795
  714POPI   C4A 7976   7.555  15.486   7.601  0.1620  0.0536  0.0573
  714POPI   C1B 7977   7.338  15.544   6.393  0.1832 -0.2435 -0.1046
  714POPI   C2B 7978   7.600  15.731   6.763 -0.0691 -0.1104  0.0970
  714POPI   C3B 7979   7.721  15.885   7.285 -0.1371 -0.0948  0.0386
  714POPI   C4B 7980   7.954  15.960   7.585 -0.1660  0.0663  0.0212
  715POPI    C1 7981  13.680  12.586   6.112  0.1058 -0.0230 -0.0128
  715POPI    C2 7982  13.605  12.840   5.812 -0.1740  0.0203  0.0904
  715POPI    C3 7983  13.454  12.470   5.802  0.2498 -0.1550 -0.0696
  715POPI   PO4 7984  13.703  12.749   6.295  0.4052  0.1293 -0.1106
  715POPI   GL1 7985  13.511  13.005   6.636 -0.1154 -0.1853 -0.0096
  715POPI   GL2 7986  13.323  13.234   6.621 -0.0846  0.0462 -0.0145
  715POPI   C1A 7987  13.386  12.767   6.971  0.2130  0.2219  0.2943
  715POPI   D2A 7988  13.232  12.838   7.394 -0.1060 -0.0045 -0.1399
  715POPI   C3A 7989  12.906  13.030   7.557  0.2800  0.2267  0.2455
  715POPI   C4A 7990  12.637  13.104   7.783  0.2667 -0.0918  0.1071
  715POPI   C1B 7991  13.234  13.317   7.005 -0.0540  0.2931  0.0669
  715POPI   C2B 7992  13.200  13.413   7.393 -0.0772  0.2234 -0.1209
  715POPI   C3B 7993  13.252  13.328   7.833 -0.1639  0.0577  0.0571
  715POPI   C4B 7994  13.184  13.351   8.343  0.0992  0.3739  0.0943
  716POPI    C1 7995   3.070   3.649   5.767  0.0293  0.1349 -0.0336
  716POPI    C2 7996   3.121   3.311   5.559 -0.0029  0.1448 -0.0575
  716POPI    C3 7997   3.427   3.563   5.608 -0.0045  0.1600 -0.1238
  716POPI   PO4 7998   2.948   3.510   6.071 -0.1009 -0.0007  0.2991
  716POPI   GL1 7999   3.139   3.365   6.422  0.0345 -0.0751 -0.2132
  716POPI   GL2 8000   2.877   3.137   6.372 -0.0511  0.0100 -0.1808
  716POPI   C1A 8001   3.164   3.377   6.927 -0.0151  0.0052 -0.2018
  716POPI   D2A 8002   3.159   3.488   7.305  0.1218 -0.3383 -0.2308
  716POPI   C3A 8003   3.388   3.750   7.548  0.3407 -0.2306  0.0578
  716POPI   C4A 8004   3.628   3.981   7.737  0.1160 -0.1289  0.0528
  716POPI   C1B 8005   2.700   3.137   6.846 -0.0582  0.0353 -0.1005
  716POPI   C2B 8006   2.727   3.296   7.191 -0.1139  0.1449  0.2306
  716POPI   C3B 8007   2.812   3.203   7.621  0.3507  0.2541  0.0639
  716POPI   C4B 8008   2.635   3.348   8.021  0.0253 -0.0087 -0.4192
  717POPI    C1 8009  12.778  13.016   5.915  0.0466  0.0059  0.1286
  717POPI    C2 8010  13.054  12.786   5.739  0.0843 -0.1325  0.3639
  717POPI    C3 8011  12.821  13.025   5.517  0.1673 -0.2618  0.1338
  717POPI   PO4 8012  12.781  12.792   6.194  0.4349  0.1827  0.1808
  717POPI   GL1 8013  12.883  12.942   6.605 -0.2160  0.2122  0.1453
  717POPI   GL2 8014  12.563  13.017   6.647 -0.2578 -0.2214 -0.0548
  717POPI   C1A 8015  12.879  12.942   7.042 -0.0598 -0.1748 -0.1374
  717POPI   D2A 8016  12.498  12.903   7.319 -0.4212  0.0883 -0.2056
  717POPI   C3A 8017  12.284  13.212   7.425  0.2156  0.2872  0.1023
  717POPI   C4A 8018  11.925  13.323   7.576 -0.1490  0.1025 -0.0492
  717POPI   C1B 8019  12.374  13.354   6.874 -0.0115  0.1266 -0.2156
  717POPI   C2B 8020  11.986  13.484   7.000 -0.3353 -0.3025  0.2318
  717POPI   C3B 8021  11.755  13.759   7.205  0.5454  0.1874  0.3414
  717POPI   C4B 8022  11.814  13.930   7.679  0.1864 -0.1325 -0.0686
  718POPI    C1 8023   9.562   9.987   5.880  0.2230 -0.1226 -0.0312
  718POPI    C2 8024   9.315  10.263   5.730  0.2955  0.0895  0.2339
  718POPI    C3 8025   9.405   9.939   5.514 -0.0152  0.1312  0.0342
  718POPI   PO4 8026   9.744  10.078   5.957  0.1327  0.1519  0.1115
  718POPI   GL1 8027   9.978  10.122   6.378  0.0387 -0.2274 -0.3090
  718POPI   GL2 8028   9.741  10.222   6.500 -0.4546 -0.0598 -0.0051
  718POPI   C1A 8029  10.249  10.241   6.626  0.0922  0.0699  0.0396
  718POPI   D2A 8030  10.314  10.304   7.096  0.0671 -0.1293 -0.2056
  718POPI   C3A 8031  10.051  10.233   7.325 -0.1373 -0.3401  0.1913
  718POPI   C4A 8032   9.855  10.175   7.709  0.6351  0.1379 -0.0753
  718POPI   C1B 8033   9.830  10.127   6.930  0.1008 -0.4153 -0.1132
  718POPI   C2B 8034   9.704   9.879   7.261  0.0042  0.3995  0.3742
  718POPI   C3B 8035   9.598   9.749   7.551 -0.1965 -0.4831  0.2626
  718POPI   C4B 8036   9.857   9.690   7.880 -0.1434 -0.1575 -0.0027
  719POPI    C1 8037  15.588   1.071   5.933 -0.1033  0.0650 -0.0763
  719POPI    C2 8038  15.484   1.278   5.608 -0.0613  0.0936 -0.0717
  719POPI    C3 8039  15.863   1.284   5.735 -0.0567  0.0014 -0.0804
  719POPI   PO4 8040  15.392   0.662   5.904  0.2199 -0.3629 -0.0075
  719POPI   GL1 8041  15.151   0.422   6.087  0.3352 -0.1248 -0.0243
  719POPI   GL2 8042  15.092   0.597   6.355  0.0453 -0.0231  0.1336
  719POPI   C1A 8043  15.176   0.135   6.449 -0.0956  0.0756 -0.1157
  719POPI   D2A 8044  15.180  -0.156   6.735 -0.2373  0.2021 -0.1346
  719POPI   C3A 8045  15.125  -0.146   7.120  0.0272 -0.2809 -0.3268
  719POPI   C4A 8046  15.023  -0.170   7.558 -0.0103  0.0386 -0.1632
  719POPI   C1B 8047  14.781   0.740   6.711 -0.0348 -0.3284  0.2254
  719POPI   C2B 8048  14.695   0.793   7.153  0.2302  0.1034 -0.1461
  719POPI   C3B 8049  14.859   0.649   7.534  0.1303 -0.2326  0.4057
  719POPI   C4B 8050  15.079   0.373   7.799  0.1417  0.0708 -0.2245
  720POPI    C1 8051   1.240  11.573   5.931 -0.2458 -0.0060 -0.1460
  720POPI    C2 8052   1.392  11.333   5.649 -0.3032 -0.0968 -0.1000
  720POPI    C3 8053   1.222  11.681   5.546 -0.0183  0.0309 -0.1479
  720POPI   PO4 8054   1.458  11.580   6.091  0.0546 -0.0976 -0.0239
  720POPI   GL1 8055   1.577  11.979   6.264  0.0582  0.0838 -0.1447
  720POPI   GL2 8056   1.815  12.201   6.341  0.4563  0.0351  0.1313
  720POPI   C1A 8057   1.693  11.895   6.714  0.0599 -0.3484 -0.0785
  720POPI   D2A 8058   1.800  11.555   7.000 -0.0350 -0.0833 -0.1311
  720POPI   C3A 8059   1.541  11.523   7.468  0.3936 -0.1346  0.1726
  720POPI   C4A 8060   1.517  11.762   7.949 -0.0765  0.2960  0.0499
  720POPI   C1B 8061   2.006  12.282   6.612 -0.4328  0.0431  0.0352
  720POPI   C2B 8062   2.431  12.281   6.792 -0.0952  0.1846 -0.0144
  720POPI   C3B 8063   2.444  12.513   7.168  0.2486 -0.2103 -0.3682
  720POPI   C4B 8064   2.381  12.381   7.620 -0.0302 -0.4567  0.2466
  721POPI    C1 8065   5.414  14.992   5.653  0.1821 -0.0825  0.0453
  721POPI    C2 8066   5.150  14.770   5.450  0.0735  0.0060  0.0891
  721POPI    C3 8067   5.514  14.837   5.298 -0.0365  0.1440 -0.1181
  721POPI   PO4 8068   5.364  14.883   5.897  0.1381 -0.1306 -0.0487
  721POPI   GL1 8069   5.317  14.918   6.312  0.0144 -0.0144  0.1066
  721POPI   GL2 8070   5.690  14.878   6.332 -0.3090 -0.2959 -0.1136
  721POPI   C1A 8071   5.308  14.968   6.820 -0.0391  0.3647 -0.3043
  721POPI   D2A 8072   5.315  15.222   7.141  0.0055 -0.1295  0.1750
  721POPI   C3A 8073   5.078  15.276   7.462  0.0655  0.0318 -0.0935
  721POPI   C4A 8074   5.137  15.404   7.913 -0.1990  0.3103 -0.2682
  721POPI   C1B 8075   5.764  14.781   6.685  0.0382 -0.2033  0.1510
  721POPI   C2B 8076   5.609  14.695   7.034 -0.1638  0.1342 -0.0398
  721POPI   C3B 8077   5.420  14.508   7.288  0.1117  0.1286 -0.2801
  721POPI   C4B 8078   5.260  14.053   7.303 -0.0858  0.1752 -0.0201
  722POPI    C1 8079   4.509  14.948   5.611 -0.2469  0.1678 -0.3134
  722POPI    C2 8080   4.827  15.160   5.494  0.0628 -0.0871  0.0395
  722POPI    C3 8081   4.679  14.874   5.257  0.0189  0.1104 -0.1760
  722POPI   PO4 8082   4.481  15.097   5.855  0.2118  0.1474 -0.1817
  722POPI   GL1 8083   4.541  14.905   6.237  0.1716  0.0147  0.1266
  722POPI   GL2 8084   4.793  15.066   6.460 -0.2706  0.0912 -0.2080
  722POPI   C1A 8085   4.539  14.550   6.504  0.1283  0.0703 -0.1304
  722POPI   D2A 8086   4.677  14.297   6.876  0.1408  0.1024  0.0749
  722POPI   C3A 8087   4.874  14.368   7.274  0.1207 -0.3480  0.2317
  722POPI   C4A 8088   4.734  14.513   7.668  0.1308  0.0207  0.1984
  722POPI   C1B 8089   4.812  15.328   6.887 -0.0397  0.1484  0.0204
  722POPI   C2B 8090   4.664  15.476   7.264 -0.1842  0.0875  0.1812
  722POPI   C3B 8091   4.242  15.408   7.270 -0.1667 -0.0723 -0.2253
  722POPI   C4B 8092   3.789  15.232   7.229 -0.0636  0.1767  0.0418
  723POPI    C1 8093  11.583  17.638   5.644  0.1355 -0.1486  0.2526
  723POPI    C2 8094  11.559  17.997   5.820  0.0105 -0.0133 -0.0328
  723POPI    C3 8095  11.859  17.917   5.568  0.0018 -0.0870 -0.0201
  723POPI   PO4 8096  11.360  17.518   5.697  0.0776  0.0988 -0.3944
  723POPI   GL1 8097  11.290  17.572   6.145  0.1469 -0.0606 -0.1298
  723POPI   GL2 8098  11.592  17.415   6.118 -0.1890 -0.0544 -0.2247
  723POPI   C1A 8099  11.150  17.680   6.634 -0.0252 -0.2886  0.0042
  723POPI   D2A 8100  10.988  17.870   6.835  0.0009 -0.0314  0.5968
  723POPI   C3A 8101  10.913  17.957   7.218  0.0015  0.2214 -0.1052
  723POPI   C4A 8102  10.853  17.698   7.518  0.1765  0.2274 -0.0794
  723POPI   C1B 8103  11.511  17.290   6.537  0.2006  0.1280  0.4628
  723POPI   C2B 8104  11.467  17.411   6.951  0.0274  0.0385 -0.0038
  723POPI   C3B 8105  11.310  17.692   7.354  0.3020  0.3541  0.1134
  723POPI   C4B 8106  11.294  17.807   7.832  0.2053  0.1768  0.1771
  724POPI    C1 8107  14.614  12.365   5.911  0.0378 -0.1512  0.0359
  724POPI    C2 8108  14.588  11.971   5.972 -0.1356 -0.1236  0.1450
  724POPI    C3 8109  14.383  12.141   5.674  0.1023 -0.1450 -0.0331
  724POPI   PO4 8110  14.542  12.632   6.133  0.1376 -0.0404  0.2048
  724POPI   GL1 8111  14.353  12.611   6.562  0.1815  0.2726  0.1489
  724POPI   GL2 8112  13.968  12.526   6.621 -0.2364  0.0967  0.0021
  724POPI   C1A 8113  14.214  12.698   6.959  0.2684  0.2277  0.1493
  724POPI   D2A 8114  14.179  12.858   7.368 -0.0143  0.4166  0.0124
  724POPI   C3A 8115  14.061  12.918   7.759  0.0582  0.2725  0.1475
  724POPI   C4A 8116  14.104  13.214   8.050  0.0114 -0.0948  0.0115
  724POPI   C1B 8117  13.796  12.523   6.976 -0.0993  0.1751 -0.0964
  724POPI   C2B 8118  13.713  12.682   7.383  0.0099  0.0317  0.0266
  724POPI   C3B 8119  13.537  12.926   7.789  0.2489  0.1575 -0.2531
  724POPI   C4B 8120  13.597  13.071   8.238  0.2043  0.0186  0.0681
  725POPI    C1 8121  14.012  16.679   5.650 -0.0147 -0.1514 -0.0653
  725POPI    C2 8122  13.820  16.967   5.851 -0.0474 -0.2927  0.1085
  725POPI    C3 8123  13.841  16.982   5.452  0.1362  0.0633  0.1275
  725POPI   PO4 8124  13.953  16.481   5.884  0.0016  0.0313  0.1436
  725POPI   GL1 8125  13.910  16.406   6.264 -0.1090  0.0471  0.0567
  725POPI   GL2 8126  13.565  16.354   6.160  0.2123 -0.1616  0.3607
  725POPI   C1A 8127  13.876  16.696   6.556 -0.2186  0.0899  0.1189
  725POPI   D2A 8128  13.802  16.605   6.927  0.3201  0.2383 -0.0109
  725POPI   C3A 8129  13.887  16.752   7.317 -0.2020 -0.1295  0.1414
  725POPI   C4A 8130  14.183  16.858   7.635  0.0988  0.3086  0.1367
  725POPI   C1B 8131  13.433  16.268   6.599 -0.0243  0.2454  0.0028
  725POPI   C2B 8132  13.414  16.287   7.008 -0.0996  0.1466  0.2046
  725POPI   C3B 8133  13.507  16.377   7.437  0.4589  0.1277 -0.0097
  725POPI   C4B 8134  13.678  16.599   7.727  0.0127  0.0140 -0.2267
  726POPI    C1 8135  14.587   8.839   6.430  0.1562 -0.0859  0.0511
  726POPI    C2 8136  14.555   8.898   6.036  0.2342  0.1818  0.0830
  726POPI    C3 8137  14.843   8.661   6.179  0.0991 -0.0541 -0.0300
  726POPI   PO4 8138  14.315   8.983   6.450 -0.0256 -0.0894  0.1709
  726POPI   GL1 8139  14.202   9.187   6.901  0.0587 -0.2672 -0.2156
  726POPI   GL2 8140  13.844   9.097   7.065  0.2460 -0.0305 -0.0091
  726POPI   C1A 8141  14.212   8.980   7.362 -0.0160 -0.1397 -0.2479
  726POPI   D2A 8142  14.448   8.771   7.742  0.3616 -0.0693 -0.1185
  726POPI   C3A 8143  14.335   8.692   8.169  0.1858 -0.1104 -0.1290
  726POPI   C4A 8144  14.556   8.537   8.517 -0.0356 -0.1514  0.0400
  726POPI   C1B 8145  13.805   9.261   7.542  0.1867 -0.2269  0.1979
  726POPI   C2B 8146  13.968   9.516   7.848 -0.1461  0.3012 -0.0868
  726POPI   C3B 8147  14.211   9.665   8.237 -0.2440 -0.1363 -0.2349
  726POPI   C4B 8148  14.527   9.605   8.659 -0.0384  0.1817 -0.4203
  727POPI    C1 8149  14.322  14.644   5.533 -0.3384  0.0516  0.0403
  727POPI    C2 8150  14.301  14.717   5.140  0.1558 -0.0693 -0.0159
  727POPI    C3 8151  14.248  14.345   5.277  0.1379 -0.0545  0.0174
  727POPI   PO4 8152  14.217  14.915   5.647  0.0566  0.1502  0.1577
  727POPI   GL1 8153  14.074  15.054   6.119 -0.1898  0.0220 -0.0031
  727POPI   GL2 8154  13.851  15.275   6.239  0.0319 -0.1209 -0.1334
  727POPI   C1A 8155  14.103  14.983   6.619 -0.1454  0.1666 -0.3776
  727POPI   D2A 8156  14.064  15.059   7.091  0.0800  0.0301 -0.2215
  727POPI   C3A 8157  14.210  15.296   7.346 -0.0560 -0.1408  0.1493
  727POPI   C4A 8158  14.635  15.302   7.459  0.4066  0.0282 -0.1195
  727POPI   C1B 8159  13.796  15.378   6.717  0.2218  0.2863 -0.0973
  727POPI   C2B 8160  13.742  15.434   7.139 -0.0910 -0.0929  0.4733
  727POPI   C3B 8161  13.486  15.536   7.549  0.2387  0.0146  0.0025
  727POPI   C4B 8162  13.592  15.861   7.796 -0.1275  0.2765 -0.1265
  728POPI    C1 8163  14.099   0.218   5.530  0.2930  0.5885  0.1744
  728POPI    C2 8164  14.336   0.110   5.226  0.1707  0.2636  0.1902
  728POPI    C3 8165  13.976   0.268   5.152  0.0551 -0.0077  0.1617
  728POPI   PO4 8166  14.072   0.042   5.684  0.2415  0.1634 -0.3096
  728POPI   GL1 8167  14.158   0.048   6.099 -0.2656 -0.1708  0.3077
  728POPI   GL2 8168  14.066  -0.290   6.088 -0.2743  0.2507  0.0474
  728POPI   C1A 8169  14.449  -0.053   6.508  0.0476 -0.1270  0.0677
  728POPI   D2A 8170  14.730  -0.397   6.621 -0.1656  0.0172 -0.3239
  728POPI   C3A 8171  14.640  -0.787   6.660 -0.2112  0.0482 -0.1886
  728POPI   C4A 8172  14.208  -0.987   6.894 -0.0654  0.2865 -0.0516
  728POPI   C1B 8173  13.821  -0.288   6.482 -0.2865 -0.0626  0.5436
  728POPI   C2B 8174  13.675  -0.135   6.842  0.1708 -0.0605  0.1483
  728POPI   C3B 8175  13.625  -0.146   7.209 -0.2053  0.0125 -0.1380
  728POPI   C4B 8176  13.836   0.196   7.470  0.0239 -0.0165  0.1480
  729POPI    C1 8177  12.643  16.586   5.593  0.1207 -0.1477  0.0457
  729POPI    C2 8178  12.510  16.791   5.276  0.3154  0.2452  0.2126
  729POPI    C3 8179  12.901  16.784   5.360  0.2912 -0.0546  0.3104
  729POPI   PO4 8180  12.492  16.676   5.777 -0.0931  0.0518 -0.0310
  729POPI   GL1 8181  12.509  16.658   6.177 -0.2489 -0.1969  0.0947
  729POPI   GL2 8182  12.857  16.539   6.052 -0.0371  0.1157 -0.1922
  729POPI   C1A 8183  12.466  16.672   6.595  0.1977  0.3989 -0.1294
  729POPI   D2A 8184  12.519  16.426   6.746 -0.2055  0.4684  0.2086
  729POPI   C3A 8185  12.492  16.333   7.181  0.0605 -0.0029 -0.0600
  729POPI   C4A 8186  12.591  15.991   7.524 -0.0731 -0.2223 -0.4674
  729POPI   C1B 8187  12.975  16.552   6.397 -0.2950  0.2569  0.1700
  729POPI   C2B 8188  13.005  16.430   6.799 -0.0533 -0.1525  0.0038
  729POPI   C3B 8189  13.053  16.506   7.247 -0.0801  0.0014 -0.4397
  729POPI   C4B 8190  12.850  16.402   7.546 -0.2741 -0.0744  0.1148
  730POPI    C1 8191  11.417  13.336   6.012 -0.0225 -0.0771 -0.0468
  730POPI    C2 8192  11.200  13.225   5.695 -0.0727 -0.2368  0.0421
  730POPI    C3 8193  11.456  13.531   5.665 -0.1107 -0.2215 -0.1390
  730POPI   PO4 8194  11.270  13.353   6.207 -0.0729  0.1832  0.2197
  730POPI   GL1 8195  11.092  13.614   6.428 -0.2962 -0.2829 -0.1859
  730POPI   GL2 8196  11.347  13.885   6.502 -0.2412  0.2445  0.0631
  730POPI   C1A 8197  11.041  13.536   6.889  0.1967  0.1850 -0.1199
  730POPI   D2A 8198  11.076  13.513   7.212 -0.0421  0.2535 -0.0053
  730POPI   C3A 8199  10.791  13.670   7.567 -0.0600 -0.1415  0.1923
  730POPI   C4A 8200  10.469  13.780   7.984 -0.3298 -0.0665  0.2490
  730POPI   C1B 8201  11.304  13.919   6.856 -0.1451  0.4447  0.0571
  730POPI   C2B 8202  11.159  14.004   7.170  0.1802  0.0344  0.3543
  730POPI   C3B 8203  11.319  13.960   7.579 -0.2086  0.1881 -0.3560
  730POPI   C4B 8204  11.119  13.829   8.007  0.1398 -0.1700  0.0227
  731POPI    C1 8205   1.336  14.411   5.855  0.1318 -0.2728 -0.1135
  731POPI    C2 8206   1.478  14.669   5.585 -0.0514 -0.0488  0.0007
  731POPI    C3 8207   1.145  14.463   5.507 -0.1485  0.0747  0.0858
  731POPI   PO4 8208   1.536  14.290   5.977  0.1599  0.3175 -0.2019
  731POPI   GL1 8209   1.922  14.247   6.210 -0.2775  0.2507  0.2169
  731POPI   GL2 8210   1.975  14.600   6.204 -0.3484  0.2031 -0.0327
  731POPI   C1A 8211   1.832  14.212   6.650 -0.0541  0.2794 -0.1806
  731POPI   D2A 8212   1.983  14.351   7.089  0.0900 -0.2294 -0.0476
  731POPI   C3A 8213   2.107  14.041   7.420  0.1143 -0.0494  0.0208
  731POPI   C4A 8214   2.305  14.076   7.737  0.2729 -0.1565 -0.3949
  731POPI   C1B 8215   2.083  14.686   6.586 -0.2570 -0.1930  0.0892
  731POPI   C2B 8216   2.369  14.321   6.798 -0.2131 -0.0401  0.3273
  731POPI   C3B 8217   2.560  14.225   7.193 -0.2647 -0.3829 -0.0207
  731POPI   C4B 8218   2.816  14.168   7.587  0.0901  0.5165 -0.1502
  732POPI    C1 8219  11.279  10.814   6.019  0.0407 -0.1120  0.1265
  732POPI    C2 8220  11.456  10.460   5.958 -0.0648 -0.1485  0.0283
  732POPI    C3 8221  11.389  10.706   5.650  0.0979  0.0009  0.1103
  732POPI   PO4 8222  11.466  10.994   6.146  0.0225  0.0767 -0.1811
  732POPI   GL1 8223  11.607  11.168   6.457 -0.1257 -0.0866  0.4762
  732POPI   GL2 8224  11.569  11.039   6.790  0.0417  0.0284 -0.0117
  732POPI   C1A 8225  11.530  11.577   6.723  0.0860 -0.2731  0.1653
  732POPI   D2A 8226  11.178  11.725   6.896 -0.1403  0.3069 -0.0128
  732POPI   C3A 8227  10.951  12.020   6.722  0.2196  0.2174 -0.1051
  732POPI   C4A 8228  10.471  12.159   6.604 -0.2009 -0.1491 -0.0900
  732POPI   C1B 8229  11.422  11.259   7.105  0.0015  0.0450  0.0939
  732POPI   C2B 8230  11.056  11.334   7.357 -0.0591  0.1171 -0.0634
  732POPI   C3B 8231  10.936  11.644   7.635  0.1411 -0.4620  0.1553
  732POPI   C4B 8232  10.983  12.107   7.692  0.1563 -0.1718 -0.2191
  733POPI    C1 8233  14.168   8.412   6.566  0.1393 -0.0624  0.0097
  733POPI    C2 8234  14.304   8.461   6.194  0.1321  0.0426  0.0202
  733POPI    C3 8235  14.551   8.335   6.482  0.1648  0.0684  0.0035
  733POPI   PO4 8236  14.018   8.723   6.725 -0.2883 -0.1688  0.0892
  733POPI   GL1 8237  13.728   8.584   6.951 -0.0294  0.1545 -0.3521
  733POPI   GL2 8238  14.046   8.576   7.181 -0.1245  0.1592  0.0105
  733POPI   C1A 8239  13.374   8.553   7.285 -0.2117  0.0028  0.1295
  733POPI   D2A 8240  13.001   8.666   7.643 -0.0986 -0.4375 -0.0425
  733POPI   C3A 8241  12.780   8.362   7.737 -0.0722  0.1354  0.0576
  733POPI   C4A 8242  12.366   8.259   7.994  0.0651  0.1886 -0.1803
  733POPI   C1B 8243  13.805   8.739   7.446 -0.3034 -0.2885 -0.3516
  733POPI   C2B 8244  13.976   8.740   7.797  0.0032 -0.1724 -0.2525
  733POPI   C3B 8245  14.115   9.111   8.050  0.0114 -0.3460 -0.2959
  733POPI   C4B 8246  14.144   9.173   8.473 -0.0086  0.3008 -0.1243
  734POPI    C1 8247  14.160   2.197   6.224 -0.0310  0.0451 -0.3052
  734POPI    C2 8248  14.455   1.930   6.188  0.1126  0.1509  0.0416
  734POPI    C3 8249  14.485   2.286   6.008  0.0125  0.0138 -0.2529
  734POPI   PO4 8250  14.127   2.254   6.452 -0.0377  0.1965 -0.1704
  734POPI   GL1 8251  14.372   2.034   6.712 -0.3147 -0.0334 -0.1324
  734POPI   GL2 8252  14.542   2.312   6.705 -0.1528 -0.2057  0.2745
  734POPI   C1A 8253  14.209   2.023   7.103  0.0130 -0.2158 -0.0087
  734POPI   D2A 8254  13.897   1.760   7.176  0.2836  0.1083 -0.0714
  734POPI   C3A 8255  13.943   1.763   7.554 -0.2041 -0.1865  0.0190
  734POPI   C4A 8256  14.189   1.596   7.880 -0.0149 -0.3410 -0.1474
  734POPI   C1B 8257  14.488   2.433   7.104 -0.2283 -0.1026 -0.1723
  734POPI   C2B 8258  14.354   2.581   7.458  0.1651  0.2506 -0.2359
  734POPI   C3B 8259  14.532   2.691   7.828 -0.1289  0.0872 -0.1545
  734POPI   C4B 8260  14.823   2.949   8.256  0.1063 -0.0511 -0.2978
  735POPI    C1 8261   1.649   8.914   6.061  0.0033  0.0452 -0.1589
  735POPI    C2 8262   1.337   9.145   5.967 -0.1420  0.0557  0.3245
  735POPI    C3 8263   1.358   8.771   5.827 -0.1589  0.1900 -0.0481
  735POPI   PO4 8264   1.667   9.030   6.395 -0.0514  0.1714 -0.0564
  735POPI   GL1 8265   1.671   9.143   6.768 -0.4772 -0.3721 -0.6521
  735POPI   GL2 8266   1.766   9.405   6.866 -0.2681 -0.3184  0.2951
  735POPI   C1A 8267   1.631   9.018   7.275  0.2227 -0.0927 -0.3193
  735POPI   D2A 8268   1.556   8.996   7.693  0.2658 -0.2088 -0.0397
  735POPI   C3A 8269   1.514   9.252   7.997  0.0116  0.0684 -0.0319
  735POPI   C4A 8270   1.072   9.321   8.242 -0.2977 -0.0138 -0.0985
  735POPI   C1B 8271   1.405   9.455   7.063  0.0182 -0.2399 -0.1901
  735POPI   C2B 8272   1.431   9.505   7.483 -0.0081 -0.0650  0.1610
  735POPI   C3B 8273   1.238   9.714   7.868 -0.2245 -0.1901 -0.1487
  735POPI   C4B 8274   1.448   9.671   8.263 -0.1155  0.0938  0.0172
  736POPI    C1 8275  14.187  16.117   5.606 -0.1070 -0.1786 -0.0742
  736POPI    C2 8276  13.790  16.081   5.574 -0.1100 -0.0862 -0.1450
  736POPI    C3 8277  13.996  16.275   5.292 -0.0356  0.0204 -0.0187
  736POPI   PO4 8278  14.349  15.819   5.711 -0.1092 -0.2262  0.2265
  736POPI   GL1 8279  14.412  15.771   6.091 -0.2891 -0.0409 -0.2807
  736POPI   GL2 8280  14.314  15.543   6.182 -0.0857  0.1072  0.3557
  736POPI   C1A 8281  14.482  15.864   6.513  0.0106  0.1853  0.1304
  736POPI   D2A 8282  14.576  16.047   6.892  0.3398 -0.1959 -0.1577
  736POPI   C3A 8283  14.476  16.071   7.280  0.0981  0.2337  0.0639
  736POPI   C4A 8284  14.433  16.229   7.702  0.1190 -0.2803  0.1057
  736POPI   C1B 8285  14.265  15.452   6.629 -0.4770 -0.5203  0.1632
  736POPI   C2B 8286  14.205  15.660   6.966  0.0517  0.3631 -0.0451
  736POPI   C3B 8287  13.991  15.746   7.413  0.1544  0.2762  0.1754
  736POPI   C4B 8288  14.158  15.905   7.894 -0.2009 -0.1129  0.1865
  737POPI    C1 8289   6.237  10.049   5.896 -0.1542  0.1174 -0.0840
  737POPI    C2 8290   6.148  10.120   5.512 -0.1832  0.2849 -0.0471
  737POPI    C3 8291   5.855  10.047   5.776 -0.1464 -0.1131 -0.1097
  737POPI   PO4 8292   6.466  10.227   6.030 -0.0826  0.1387  0.1176
  737POPI   GL1 8293   6.489  10.317   6.448  0.1977 -0.0856  0.0323
  737POPI   GL2 8294   6.822  10.424   6.394 -0.1682 -0.3046 -0.3023
  737POPI   C1A 8295   6.642  10.219   6.821  0.2151  0.1030 -0.2583
  737POPI   D2A 8296   6.619  10.236   7.271  0.0326  0.0681  0.2937
  737POPI   C3A 8297   6.877  10.176   7.541  0.1423  0.0807  0.4636
  737POPI   C4A 8298   6.870  10.081   7.951  0.1561  0.1389 -0.0021
  737POPI   C1B 8299   6.998  10.640   6.772  0.1407  0.3055  0.1688
  737POPI   C2B 8300   7.115  10.522   7.181 -0.0025 -0.0544  0.3474
  737POPI   C3B 8301   7.289  10.535   7.541 -0.0166 -0.5095  0.0314
  737POPI   C4B 8302   7.369  10.750   7.940  0.0348 -0.0217  0.2409
  738POPI    C1 8303  13.392   5.968   6.321 -0.1905 -0.0370  0.0881
  738POPI    C2 8304  13.560   5.644   6.157  0.0996  0.1421  0.0255
  738POPI    C3 8305  13.204   5.771   6.028  0.0363 -0.0848 -0.0276
  738POPI   PO4 8306  13.334   5.951   6.526 -0.3017 -0.1841  0.0126
  738POPI   GL1 8307  13.417   5.677   6.971  0.0871 -0.0584 -0.0934
  738POPI   GL2 8308  13.074   5.740   6.962 -0.1149  0.0247 -0.4403
  738POPI   C1A 8309  13.621   5.512   7.284  0.2225  0.0971 -0.1252
  738POPI   D2A 8310  13.372   5.333   7.657  0.1063 -0.1311 -0.0988
  738POPI   C3A 8311  13.325   5.487   8.048  0.0911  0.2939  0.0911
  738POPI   C4A 8312  13.639   5.386   8.376  0.3226 -0.0179  0.0273
  738POPI   C1B 8313  13.061   5.440   7.219 -0.0636 -0.1340 -0.2106
  738POPI   C2B 8314  12.881   5.335   7.587  0.0827  0.0324 -0.4110
  738POPI   C3B 8315  12.870   5.350   7.980 -0.1384  0.5142 -0.3182
  738POPI   C4B 8316  12.679   5.310   8.301 -0.2127  0.3552  0.0979
  739POPS   CNO 8317   2.442  10.419   6.547  0.1336  0.1444  0.0919
  739POPS   PO4 8318   2.189  10.616   6.614 -0.0677  0.0243 -0.1824
  739POPS   GL1 8319   2.090  10.236   6.905 -0.1370 -0.2704 -0.2207
  739POPS   GL2 8320   1.923   9.962   6.894 -0.1474 -0.4919  0.0519
  739POPS   C1A 8321   2.120  10.075   7.368  0.0386  0.1187  0.1848
  739POPS   D2A 8322   2.116  10.069   7.720 -0.0397  0.0327  0.1162
  739POPS   C3A 8323   1.744  10.042   7.927 -0.1424 -0.0867 -0.2237
  739POPS   C4A 8324   1.311  10.232   8.101 -0.1330 -0.0293  0.2241
  739POPS   C1B 8325   1.679   9.870   7.254 -0.1222 -0.1198 -0.0173
  739POPS   C2B 8326   1.330  10.049   7.491 -0.1850 -0.3604  0.2548
  739POPS   C3B 8327   0.935  10.157   7.410 -0.2143 -0.0449 -0.3039
  739POPS   C4B 8328   0.583  10.203   7.545 -0.1996 -0.1386  0.0742
  740POPS   CNO 8329  12.831   6.025   6.258 -0.0666 -0.3232  0.1974
  740POPS   PO4 8330  12.614   5.799   6.554  0.0449  0.0923 -0.0219
  740POPS   GL1 8331  12.538   5.845   6.849  0.0749 -0.0121 -0.1774
  740POPS   GL2 8332  12.613   6.032   7.058  0.1298  0.2606 -0.1353
  740POPS   C1A 8333  12.516   5.513   7.202  0.0993 -0.1980  0.1785
  740POPS   D2A 8334  12.347   5.319   7.493  0.0013  0.3240  0.1334
  740POPS   C3A 8335  11.975   5.435   7.711 -0.0237 -0.0901  0.0078
  740POPS   C4A 8336  11.676   5.235   8.008  0.2019 -0.1182  0.0287
  740POPS   C1B 8337  12.563   5.849   7.524 -0.0924 -0.2395 -0.0135
  740POPS   C2B 8338  12.425   5.625   7.960  0.2374  0.0750 -0.2111
  740POPS   C3B 8339  12.249   5.253   8.126 -0.2451  0.1225 -0.3032
  740POPS   C4B 8340  12.095   4.772   8.187 -0.1231  0.1685  0.1941
  741POPS   CNO 8341   4.710  16.694   5.739 -0.0455  0.0233  0.1228
  741POPS   PO4 8342   4.735  16.831   6.132 -0.3818  0.2375 -0.1618
  741POPS   GL1 8343   4.749  16.935   6.594  0.0160 -0.2112  0.3714
  741POPS   GL2 8344   4.874  17.280   6.636  0.0720  0.0121 -0.0345
  741POPS   C1A 8345   5.087  16.958   6.947 -0.2857  0.1457 -0.1536
  741POPS   D2A 8346   5.086  16.974   7.333 -0.0573  0.1943  0.1349
  741POPS   C3A 8347   5.215  17.035   7.703  0.0711 -0.3465  0.0370
  741POPS   C4A 8348   5.274  17.119   8.129 -0.2197  0.1723  0.1604
  741POPS   C1B 8349   5.151  17.457   6.920 -0.0286 -0.3828 -0.1837
  741POPS   C2B 8350   5.095  17.493   7.324  0.0286 -0.0263 -0.0222
  741POPS   C3B 8351   5.140  17.541   7.735 -0.1950 -0.1822  0.2796
  741POPS   C4B 8352   5.074  17.672   8.123  0.0552 -0.3280 -0.0060
  742POPS   CNO 8353   7.724  12.680   5.972  0.0821 -0.0765  0.0960
  742POPS   PO4 8354   7.904  13.134   6.125  0.0586 -0.0444 -0.1148
  742POPS   GL1 8355   8.124  13.164   6.488 -0.1683 -0.0642  0.3647
  742POPS   GL2 8356   7.912  13.264   6.709 -0.1519 -0.4338  0.1373
  742POPS   C1A 8357   8.358  13.600   6.599  0.2948 -0.5617  0.5803
  742POPS   D2A 8358   8.305  14.049   6.567  0.1683  0.5219  0.2082
  742POPS   C3A 8359   8.111  14.399   6.761 -0.2429 -0.1296  0.1839
  742POPS   C4A 8360   8.143  14.681   7.023  0.0618  0.0267 -0.0481
  742POPS   C1B 8361   7.982  13.402   7.124 -0.1529 -0.1711 -0.2502
  742POPS   C2B 8362   7.787  13.331   7.546 -0.1264 -0.0535 -0.1596
  742POPS   C3B 8363   7.703  13.056   7.890  0.0865 -0.0414  0.1105
  742POPS   C4B 8364   7.535  12.719   8.046 -0.2578 -0.0114  0.1736
  743POPS   CNO 8365   3.941  16.176   6.255  0.0932  0.3432 -0.0476
  743POPS   PO4 8366   3.836  16.628   6.253  0.3294 -0.1681 -0.1463
  743POPS   GL1 8367   3.950  16.701   6.706  0.1978  0.1607  0.0289
  743POPS   GL2 8368   3.803  16.943   6.747 -0.1586 -0.0818 -0.0944
  743POPS   C1A 8369   4.124  16.614   7.020  0.1058 -0.0862 -0.0383
  743POPS   D2A 8370   4.521  16.722   7.163  0.2886  0.0527  0.1186
  743POPS   C3A 8371   4.698  16.772   7.531 -0.0440 -0.1959 -0.1508
  743POPS   C4A 8372   4.813  16.779   7.897 -0.2241  0.0968  0.1361
  743POPS   C1B 8373   3.928  17.016   7.166  0.0611  0.1422  0.0025
  743POPS   C2B 8374   4.214  16.961   7.521  0.1709  0.1673 -0.1930
  743POPS   C3B 8375   4.247  16.968   7.948  0.3413 -0.0598 -0.1873
  743POPS   C4B 8376   4.476  17.106   8.366 -0.2311 -0.2010 -0.3131
  744POPS   CNO 8377   4.960   9.835   6.121 -0.3036  0.0621 -0.3791
  744POPS   PO4 8378   5.127  10.253   6.131  0.0366 -0.2734 -0.1400
  744POPS   GL1 8379   5.249  10.207   6.442 -0.0850 -0.0918 -0.0946
  744POPS   GL2 8380   5.202  10.004   6.663  0.1031 -0.0208 -0.0345
  744POPS   C1A 8381   5.304  10.480   6.827  0.0150 -0.0189 -0.0875
  744POPS   D2A 8382   5.629  10.543   7.190 -0.0630  0.0556  0.0174
  744POPS   C3A 8383   5.558  10.478   7.635 -0.0809  0.0009  0.2077
  744POPS   C4A 8384   5.413  10.413   7.985 -0.0427 -0.0801 -0.3338
  744POPS   C1B 8385   5.296  10.156   7.171  0.2134 -0.0640  0.1591
  744POPS   C2B 8386   5.252   9.997   7.665  0.1797 -0.0241  0.1488
  744POPS   C3B 8387   5.083  10.049   7.994  0.1493 -0.1255  0.0577
  744POPS   C4B 8388   5.102  10.244   8.373 -0.0883 -0.0420 -0.1914
  745POPS   CNO 8389  17.067   0.977   6.424 -0.0416  0.1452 -0.0482
  745POPS   PO4 8390  17.455   0.951   6.377 -0.2384  0.1867 -0.2233
  745POPS   GL1 8391  17.326   1.111   6.812 -0.0286  0.1662 -0.0717
  745POPS   GL2 8392  17.512   1.445   6.862 -0.0444  0.0093 -0.1513
  745POPS   C1A 8393  17.153   0.922   7.123 -0.1162  0.2039  0.0397
  745POPS   D2A 8394  17.167   1.024   7.521  0.1772 -0.1767 -0.2447
  745POPS   C3A 8395  17.072   1.009   7.908  0.0158 -0.1541 -0.1750
  745POPS   C4A 8396  16.816   1.134   8.237  0.0282 -0.2253  0.1709
  745POPS   C1B 8397  17.583   1.189   7.280  0.1317  0.1200 -0.2319
  745POPS   C2B 8398  17.577   1.157   7.739 -0.0362  0.2529  0.0076
  745POPS   C3B 8399  17.663   1.094   8.187 -0.0078  0.0355 -0.3954
  745POPS   C4B 8400  17.596   1.221   8.475 -0.1798 -0.2916  0.1405
  746POPS   CNO 8401  10.281  16.156   5.767 -0.0501 -0.1468  0.1793
  746POPS   PO4 8402  10.107  16.403   5.928  0.0347  0.0022 -0.0415
  746POPS   GL1 8403  10.111  16.361   6.402 -0.0999 -0.1687 -0.0045
  746POPS   GL2 8404  10.430  16.514   6.549  0.5914  0.0135 -0.0961
  746POPS   C1A 8405   9.999  16.292   6.820 -0.0135  0.3450 -0.2969
  746POPS   D2A 8406   9.742  16.138   7.150 -0.0098 -0.1820 -0.4385
  746POPS   C3A 8407   9.553  16.226   7.584  0.0624  0.0415  0.0588
  746POPS   C4A 8408   9.789  16.589   7.886  0.0886  0.2043  0.0741
  746POPS   C1B 8409  10.403  16.554   7.063  0.0564  0.4316 -0.0534
  746POPS   C2B 8410  10.675  16.732   7.298  0.4325 -0.0176  0.0566
  746POPS   C3B 8411  10.907  16.722   7.610  0.1240  0.0671  0.1323
  746POPS   C4B 8412  10.895  16.456   8.006  0.0684  0.3157 -0.3054
  747POPS   CNO 8413   9.514  15.072   5.492  0.1859  0.1784 -0.0556
  747POPS   PO4 8414   9.877  15.404   5.525  0.3916  0.0102 -0.0716
  747POPS   GL1 8415   9.923  15.235   5.926 -0.0037  0.1502 -0.2725
  747POPS   GL2 8416   9.639  15.094   5.992  0.1395 -0.1602 -0.1265
  747POPS   C1A 8417   9.849  15.329   6.382  0.0330 -0.2414 -0.0659
  747POPS   D2A 8418  10.020  15.356   6.795 -0.1086 -0.2213 -0.1280
  747POPS   C3A 8419  10.193  15.212   7.187 -0.1878  0.0656  0.0884
  747POPS   C4A 8420  10.216  14.934   7.687  0.3911  0.1311 -0.0832
  747POPS   C1B 8421   9.295  15.273   6.238  0.1861 -0.0841 -0.1948
  747POPS   C2B 8422   8.946  15.322   6.461 -0.0777  0.2778  0.2472
  747POPS   C3B 8423   8.722  15.000   6.596 -0.3285 -0.0115  0.1339
  747POPS   C4B 8424   8.532  14.653   6.579 -0.1466 -0.0470  0.0048
  748POPS   CNO 8425  11.741   7.028   6.550 -0.1462  0.1154 -0.0598
  748POPS   PO4 8426  11.394   6.763   6.340 -0.1640  0.0890  0.2069
  748POPS   GL1 8427  11.315   6.669   6.791 -0.1615  0.0512  0.0651
  748POPS   GL2 8428  11.626   6.738   6.923  0.1542  0.1566 -0.4566
  748POPS   C1A 8429  11.177   6.628   7.145 -0.4180 -0.6030  0.1872
  748POPS   D2A 8430  10.905   6.739   7.377 -0.3231  0.1679 -0.1331
  748POPS   C3A 8431  10.897   7.151   7.643 -0.0417 -0.1966  0.0198
  748POPS   C4A 8432  11.143   7.563   7.608 -0.1826 -0.1574  0.3512
  748POPS   C1B 8433  11.814   6.901   7.347 -0.0330 -0.0361  0.2609
  748POPS   C2B 8434  11.849   7.264   7.620 -0.2055 -0.2009 -0.3293
  748POPS   C3B 8435  11.971   7.507   7.856 -0.3622 -0.2938  0.1164
  748POPS   C4B 8436  12.081   7.921   8.256 -0.3535  0.0246 -0.1569
  749POPS   CNO 8437   0.339   6.512   6.438 -0.1529 -0.2709  0.0834
  749POPS   PO4 8438   0.115   6.616   6.755 -0.3918 -0.3578 -0.1441
  749POPS   GL1 8439   0.419   6.350   6.979 -0.0709  0.0289 -0.3418
  749POPS   GL2 8440   0.753   6.399   6.959 -0.2152 -0.0679 -0.0176
  749POPS   C1A 8441   0.505   6.611   7.442  0.1631  0.0814 -0.2005
  749POPS   D2A 8442   0.575   6.675   7.861  0.0476  0.0341  0.1223
  749POPS   C3A 8443   0.993   6.570   7.974 -0.0697 -0.0728  0.1715
  749POPS   C4A 8444   1.255   6.621   8.305 -0.1200  0.0870  0.1239
  749POPS   C1B 8445   0.871   6.307   7.328 -0.0045 -0.2490  0.1421
  749POPS   C2B 8446   0.983   6.193   7.685 -0.0472  0.2408 -0.1149
  749POPS   C3B 8447   1.078   5.913   8.024  0.0850 -0.0859 -0.1380
  749POPS   C4B 8448   1.411   5.655   8.274  0.0222 -0.3299 -0.2450
  750POPS   CNO 8449   9.293  12.470   5.514 -0.3182  0.1701 -0.0315
  750POPS   PO4 8450   9.267  12.503   5.944 -0.5136  0.0753  0.2493
  750POPS   GL1 8451   9.133  12.689   6.315 -0.0244 -0.2826  0.0664
  750POPS   GL2 8452   9.323  12.970   6.365  0.2127 -0.1334  0.4341
  750POPS   C1A 8453   9.024  12.697   6.754 -0.1598  0.2677 -0.1728
  750POPS   D2A 8454   8.749  12.978   7.162  0.2661 -0.0186 -0.0969
  750POPS   C3A 8455   8.914  12.814   7.587 -0.1311  0.0772 -0.3141
  750POPS   C4A 8456   8.946  12.680   8.040  0.1282 -0.1136  0.1119
  750POPS   C1B 8457   9.180  13.154   6.700  0.1596 -0.0792  0.1718
  750POPS   C2B 8458   9.198  13.243   7.132 -0.0914 -0.0941 -0.1329
  750POPS   C3B 8459   9.264  13.159   7.588  0.1071  0.1540  0.1307
  750POPS   C4B 8460   9.370  12.927   7.968 -0.1339 -0.0070 -0.0079
  751POPS   CNO 8461  15.808   7.433   6.181  0.5026 -0.3389  0.1385
  751POPS   PO4 8462  15.618   7.325   6.599 -0.0385 -0.0153  0.0098
  751POPS   GL1 8463  15.918   7.431   6.880  0.0318 -0.1011  0.0683
  751POPS   GL2 8464  16.140   7.338   6.865  0.2726  0.1788 -0.3261
  751POPS   C1A 8465  15.920   7.511   7.322  0.0563  0.0418 -0.0490
  751POPS   D2A 8466  16.276   7.542   7.706 -0.1776  0.0492 -0.4694
  751POPS   C3A 8467  16.086   7.518   8.224 -0.0448 -0.1663  0.1607
  751POPS   C4A 8468  16.015   7.662   8.658 -0.2327  0.1636 -0.1201
  751POPS   C1B 8469  16.369   7.660   7.085  0.1396  0.0705 -0.2226
  751POPS   C2B 8470  16.575   7.856   7.528 -0.1172  0.0176  0.0326
  751POPS   C3B 8471  16.599   7.829   7.940  0.0054 -0.1061 -0.0628
  751POPS   C4B 8472  16.642   7.656   8.359  0.1997 -0.0188 -0.1672
  752POPS   CNO 8473   8.187  14.431   5.634  0.1404 -0.1286 -0.2443
  752POPS   PO4 8474   8.484  14.429   5.899 -0.0883 -0.3656 -0.3350
  752POPS   GL1 8475   8.285  14.725   6.152 -0.2366  0.1859 -0.0274
  752POPS   GL2 8476   8.018  14.634   6.362 -0.2312 -0.0622  0.0254
  752POPS   C1A 8477   8.258  15.103   6.417  0.3277 -0.4897  0.3358
  752POPS   D2A 8478   8.455  15.418   6.727  0.1367 -0.0948  0.0599
  752POPS   C3A 8479   8.396  15.118   7.008 -0.2873  0.1925  0.1405
  752POPS   C4A 8480   8.241  15.033   7.328  0.0694  0.3612  0.2115
  752POPS   C1B 8481   7.828  14.952   6.693  0.0638 -0.4772 -0.1037
  752POPS   C2B 8482   7.911  15.322   6.926 -0.0663  0.0410  0.0343
  752POPS   C3B 8483   7.973  15.436   7.336 -0.0834  0.1232 -0.2111
  752POPS   C4B 8484   8.292  15.615   7.666  0.0673 -0.0524 -0.0965
  753POPS   CNO 8485  11.703  14.511   5.681  0.1343 -0.0004 -0.2378
  753POPS   PO4 8486  11.318  14.387   5.855 -0.0866  0.1945  0.2778
  753POPS   GL1 8487  11.143  14.287   6.206 -0.4019 -0.3242  0.1517
  753POPS   GL2 8488  10.891  14.049   6.262  0.4570  0.5035 -0.0959
  753POPS   C1A 8489  11.269  14.444   6.561  0.0660  0.0163  0.2180
  753POPS   D2A 8490  11.630  14.351   6.832  0.1219 -0.0991  0.2011
  753POPS   C3A 8491  11.572  14.322   7.254  0.0737  0.1135  0.1566
  753POPS   C4A 8492  11.590  14.381   7.645 -0.0905  0.0793  0.0003
  753POPS   C1B 8493  10.818  13.999   6.657  0.0193 -0.3057  0.1302
  753POPS   C2B 8494  10.595  13.991   7.067 -0.0181  0.1115 -0.3902
  753POPS   C3B 8495  10.419  13.970   7.468 -0.2273 -0.0544  0.1016
  753POPS   C4B 8496  10.165  14.119   7.762 -0.0442 -0.3402  0.0092
  754POPS   CNO 8497   7.310  13.753   5.617  0.2715 -0.4546 -0.1085
  754POPS   PO4 8498   7.202  13.600   6.078  0.0047  0.0520 -0.1488
  754POPS   GL1 8499   7.461  13.500   6.462 -0.2322  0.2743 -0.2326
  754POPS   GL2 8500   7.865  13.605   6.355 -0.0458 -0.1609 -0.0893
  754POPS   C1A 8501   7.460  13.558   6.840  0.0727  0.0728  0.0773
  754POPS   D2A 8502   7.545  13.631   7.255  0.1882 -0.3197  0.1362
  754POPS   C3A 8503   7.755  13.972   7.345 -0.0949  0.1666 -0.0328
  754POPS   C4A 8504   7.973  14.295   7.363 -0.0245  0.2261 -0.0900
  754POPS   C1B 8505   7.832  13.822   6.776  0.1494  0.3015  0.2360
  754POPS   C2B 8506   8.133  13.912   7.081  0.0052  0.0256  0.0692
  754POPS   C3B 8507   8.245  13.791   7.451  0.0180 -0.1400 -0.0076
  754POPS   C4B 8508   8.324  13.781   7.900  0.0036 -0.3427  0.2395
  755POPS   CNO 8509   4.059   4.500   6.206  0.0608  0.0109  0.1995
  755POPS   PO4 8510   4.489   4.721   6.291  0.2473 -0.1776 -0.1054
  755POPS   GL1 8511   4.762   4.744   6.580 -0.0007  0.0183  0.0249
  755POPS   GL2 8512   4.953   4.844   6.440  0.0296 -0.1648 -0.2031
  755POPS   C1A 8513   4.891   4.888   7.035  0.2424 -0.1780  0.4543
  755POPS   D2A 8514   4.910   4.893   7.500 -0.0491 -0.0198  0.1112
  755POPS   C3A 8515   5.137   5.289   7.647 -0.0995 -0.2503  0.3244
  755POPS   C4A 8516   5.064   5.442   8.129  0.0599 -0.1358  0.1096
  755POPS   C1B 8517   5.273   5.048   6.673 -0.1694  0.3048  0.0617
  755POPS   C2B 8518   5.367   5.164   7.047 -0.1250  0.0652 -0.0655
  755POPS   C3B 8519   5.602   5.007   7.413 -0.1029  0.1055 -0.2433
  755POPS   C4B 8520   5.907   4.684   7.575 -0.1282  0.0189 -0.0495
  756POPS   CNO 8521   7.255   7.185   5.878  0.0731 -0.0519  0.1361
  756POPS   PO4 8522   6.994   6.907   6.152 -0.1229  0.3015  0.0763
  756POPS   GL1 8523   6.852   6.865   6.580  0.1163 -0.4610  0.1712
  756POPS   GL2 8524   6.808   7.128   6.787  0.0040 -0.0101 -0.0782
  756POPS   C1A 8525   6.774   6.615   7.028  0.2882  0.2643  0.2355
  756POPS   D2A 8526   6.530   6.558   7.418 -0.1932  0.0748  0.1842
  756POPS   C3A 8527   6.556   6.197   7.689 -0.4330  0.1320  0.2004
  756POPS   C4A 8528   6.941   5.939   7.942 -0.1697 -0.0186  0.1413
  756POPS   C1B 8529   6.592   7.280   7.134 -0.1034  0.0701 -0.1142
  756POPS   C2B 8530   6.796   7.236   7.525  0.1124 -0.0233  0.0230
  756POPS   C3B 8531   6.815   7.207   7.968  0.1206 -0.3359 -0.1065
  756POPS   C4B 8532   6.791   6.877   8.400  0.1462 -0.0039 -0.0659
  757POPS   CNO 8533  12.628  11.094   6.046  0.3241 -0.2167  0.0645
  757POPS   PO4 8534  12.981  11.168   6.313  0.0621 -0.1321 -0.0391
  757POPS   GL1 8535  13.099  11.345   6.663  0.0054 -0.2445 -0.1355
  757POPS   GL2 8536  13.335  11.541   6.552  0.1926  0.3059 -0.0084
  757POPS   C1A 8537  13.164  11.282   7.117 -0.1518 -0.2154  0.1955
  757POPS   D2A 8538  13.312  11.383   7.485 -0.1755  0.1323 -0.0666
  757POPS   C3A 8539  13.583  11.394   7.732  0.1166 -0.1090  0.0805
  757POPS   C4A 8540  13.755  11.501   8.129 -0.2344  0.1247  0.3618
  757POPS   C1B 8541  13.503  11.681   6.931  0.0924  0.0865 -0.0064
  757POPS   C2B 8542  13.736  11.761   7.308  0.3390 -0.0930 -0.1546
  757POPS   C3B 8543  14.015  11.710   7.547  0.1827 -0.1893 -0.1282
  757POPS   C4B 8544  14.175  11.899   7.911  0.0989 -0.2087 -0.2225
  758POPS   CNO 8545   9.335  13.746   5.410  0.0453  0.0641 -0.1096
  758POPS   PO4 8546   9.014  13.951   5.815  0.1247  0.0993  0.0991
  758POPS   GL1 8547   9.261  13.882   6.211 -0.0293  0.0406 -0.1101
  758POPS   GL2 8548   9.428  14.102   6.366 -0.1456  0.0844 -0.0140
  758POPS   C1A 8549   9.174  13.623   6.504 -0.1160 -0.4411 -0.0546
  758POPS   D2A 8550   9.134  13.769   6.920 -0.3180  0.1657 -0.1652
  758POPS   C3A 8551   9.541  13.762   7.029  0.0229 -0.2062 -0.1091
  758POPS   C4A 8552   9.761  13.988   6.732 -0.1309  0.1365 -0.0669
  758POPS   C1B 8553   9.323  14.198   6.797  0.0497  0.2640 -0.3506
  758POPS   C2B 8554   9.383  14.246   7.162 -0.1639 -0.1396 -0.0755
  758POPS   C3B 8555   9.101  14.119   7.504  0.1009 -0.0052 -0.1422
  758POPS   C4B 8556   8.876  14.202   7.893 -0.1310 -0.3799  0.3264
  759POPS   CNO 8557  12.026   3.251   5.776 -0.1740  0.0100 -0.3388
  759POPS   PO4 8558  11.850   3.077   6.122 -0.1317  0.1203 -0.0862
  759POPS   GL1 8559  11.765   3.209   6.515  0.2123 -0.0591 -0.2218
  759POPS   GL2 8560  11.935   3.045   6.617  0.0859 -0.1093  0.1909
  759POPS   C1A 8561  11.503   3.446   6.799 -0.0784 -0.1365  0.1555
  759POPS   D2A 8562  11.391   3.653   7.284 -0.4127 -0.0822 -0.0116
  759POPS   C3A 8563  11.710   3.543   7.569 -0.1932 -0.0079 -0.4398
  759POPS   C4A 8564  12.044   3.656   7.749  0.2587 -0.2370 -0.1203
  759POPS   C1B 8565  11.991   3.048   7.060 -0.5915 -0.1040  0.1079
  759POPS   C2B 8566  11.583   3.143   7.269 -0.3689 -0.0882  0.2200
  759POPS   C3B 8567  11.165   3.225   7.463  0.1552 -0.1804 -0.1007
  759POPS   C4B 8568  10.936   3.128   7.819  0.2668 -0.0156  0.0319
  760POPS   CNO 8569   4.957   8.611   6.111  0.3090  0.0839  0.0275
  760POPS   PO4 8570   4.820   8.991   5.930 -0.2740  0.1100 -0.2150
  760POPS   GL1 8571   4.802   9.073   6.418 -0.5405 -0.0619 -0.2717
  760POPS   GL2 8572   4.625   8.867   6.492 -0.0096  0.5756 -0.0245
  760POPS   C1A 8573   4.833   9.198   6.777  0.0012 -0.0915 -0.1585
  760POPS   D2A 8574   4.876   9.307   7.236  0.1543 -0.0536  0.1495
  760POPS   C3A 8575   4.478   9.595   7.310  0.1594  0.0028  0.0299
  760POPS   C4A 8576   4.230   9.923   7.273 -0.3652  0.0091 -0.0433
  760POPS   C1B 8577   4.646   8.461   6.550 -0.3648  0.1799  0.2527
  760POPS   C2B 8578   4.635   7.963   6.749 -0.0049  0.1254  0.0504
  760POPS   C3B 8579   4.668   7.522   6.556 -0.1771 -0.0298  0.0557
  760POPS   C4B 8580   4.331   7.214   6.482 -0.0178 -0.0135  0.1451
  761POPS   CNO 8581   6.435   0.378   6.380  0.2015 -0.2241 -0.0950
  761POPS   PO4 8582   6.797   0.018   6.359 -0.0686 -0.2270  0.3241
  761POPS   GL1 8583   7.017  -0.062   6.741  0.0366 -0.3098 -0.3665
  761POPS   GL2 8584   7.361   0.039   6.587 -0.0762  0.2097 -0.0525
  761POPS   C1A 8585   7.000   0.005   7.134 -0.2759  0.4256 -0.0163
  761POPS   D2A 8586   7.232  -0.133   7.434 -0.0757 -0.1251 -0.2275
  761POPS   C3A 8587   7.254   0.143   7.828 -0.0086  0.1542  0.3011
  761POPS   C4A 8588   7.400   0.322   8.094 -0.0442 -0.2444 -0.2413
  761POPS   C1B 8589   7.569  -0.313   6.909  0.2725  0.1849 -0.1135
  761POPS   C2B 8590   7.899  -0.420   7.174 -0.1305 -0.0895  0.1171
  761POPS   C3B 8591   8.212  -0.269   7.448 -0.0524 -0.0780  0.0224
  761POPS   C4B 8592   8.319  -0.301   7.888  0.2684 -0.4560 -0.0546
  762POPS   CNO 8593   0.164   2.606   6.796 -0.0475  0.2687  0.2051
  762POPS   PO4 8594  -0.119   2.249   6.651 -0.0029  0.1634  0.0548
  762POPS   GL1 8595  -0.229   2.165   7.050 -0.2872  0.0361 -0.1611
  762POPS   GL2 8596  -0.229   2.506   7.117 -0.3821  0.0038 -0.3361
  762POPS   C1A 8597   0.028   2.161   7.479 -0.0786  0.1591  0.1953
  762POPS   D2A 8598   0.448   2.025   7.520  0.3315 -0.4410  0.1304
  762POPS   C3A 8599   0.826   2.237   7.570 -0.2487  0.2344  0.1195
  762POPS   C4A 8600   1.206   2.322   7.261  0.1812 -0.3500 -0.1693
  762POPS   C1B 8601   0.035   2.797   7.314 -0.1554  0.0588  0.2838
  762POPS   C2B 8602   0.151   3.005   7.746 -0.1049  0.1601  0.2134
  762POPS   C3B 8603   0.325   2.849   8.108  0.3094  0.1730 -0.1369
  762POPS   C4B 8604   0.611   2.604   8.457  0.0089  0.1883 -0.0502
  763POPS   CNO 8605   5.394  13.057   5.965 -0.2150  0.0898 -0.2334
  763POPS   PO4 8606   5.563  12.625   5.921 -0.1697 -0.3323  0.2777
  763POPS   GL1 8607   5.801  12.317   6.086  0.1874  0.2155 -0.0223
  763POPS   GL2 8608   5.605  12.116   6.131  0.1073 -0.0099 -0.0720
  763POPS   C1A 8609   6.011  12.229   6.412 -0.3925  0.0199 -0.1053
  763POPS   D2A 8610   6.285  12.249   6.585  0.2192 -0.0722  0.4316
  763POPS   C3A 8611   6.254  12.306   7.036 -0.0780 -0.4000 -0.1495
  763POPS   C4A 8612   6.170  12.245   7.517  0.1919 -0.1737 -0.0429
  763POPS   C1B 8613   5.477  12.136   6.511 -0.1002 -0.1621 -0.1389
  763POPS   C2B 8614   5.365  11.891   6.856 -0.3196 -0.1553 -0.3022
  763POPS   C3B 8615   5.204  12.021   7.244 -0.0045  0.0171 -0.0385
  763POPS   C4B 8616   5.191  12.062   7.700 -0.0261 -0.2038 -0.1031
  764POPS   CNO 8617   8.306   7.061   6.171 -0.0369 -0.0185 -0.1454
  764POPS   PO4 8618   7.971   7.242   6.280  0.5054  0.3126 -0.1869
  764POPS   GL1 8619   7.935   7.254   6.793 -0.4099  0.0877 -0.1857
  764POPS   GL2 8620   7.668   7.168   6.880  0.2126 -0.0754  0.3270
  764POPS   C1A 8621   8.079   7.359   7.238 -0.2063 -0.5257  0.0536
  764POPS   D2A 8622   7.958   7.601   7.439 -0.4145  0.1674 -0.1489
  764POPS   C3A 8623   8.057   7.711   7.868  0.0142 -0.3395 -0.1421
  764POPS   C4A 8624   7.584   7.670   7.974 -0.1591  0.1163 -0.0859
  764POPS   C1B 8625   7.701   6.987   7.313 -0.2166  0.0600 -0.3830
  764POPS   C2B 8626   7.678   6.723   7.747  0.0979 -0.0982  0.1083
  764POPS   C3B 8627   7.783   6.635   8.156 -0.0133 -0.0106  0.2966
  764POPS   C4B 8628   7.882   6.776   8.527  0.1747  0.0950  0.0159
  765POPS   CNO 8629  11.669   1.944   6.020  0.1156 -0.1531  0.2577
  765POPS   PO4 8630  11.635   2.399   6.022  0.0068 -0.0711  0.1608
  765POPS   GL1 8631  11.793   2.608   6.388  0.1417  0.2008  0.0557
  765POPS   GL2 8632  12.119   2.686   6.359 -0.2430  0.0862  0.3628
  765POPS   C1A 8633  11.709   2.526   6.836  0.3532 -0.0768 -0.1295
  765POPS   D2A 8634  11.766   2.640   7.184  0.2114 -0.0601  0.5633
  765POPS   C3A 8635  11.956   2.794   7.562  0.0736 -0.3482  0.3197
  765POPS   C4A 8636  12.132   3.123   7.725 -0.1544  0.2388 -0.0155
  765POPS   C1B 8637  12.360   2.813   6.823 -0.2477  0.0669 -0.0510
  765POPS   C2B 8638  12.470   2.882   7.244  0.0911  0.1555 -0.1319
  765POPS   C3B 8639  12.565   2.829   7.698 -0.0502  0.2818  0.0551
  765POPS   C4B 8640  12.466   3.051   8.060 -0.1991  0.1490 -0.1484
  766POPS   CNO 8641   3.521   8.360   5.760  0.3402  0.2109 -0.2198
  766POPS   PO4 8642   3.884   8.292   5.883  0.1696  0.0442  0.1305
  766POPS   GL1 8643   4.218   8.096   6.020 -0.1105  0.2397  0.0419
  766POPS   GL2 8644   4.637   8.121   6.103  0.0407  0.0556  0.1819
  766POPS   C1A 8645   4.238   7.825   6.429 -0.1642 -0.1122 -0.1211
  766POPS   D2A 8646   4.025   7.563   6.675 -0.0000  0.0132  0.2511
  766POPS   C3A 8647   4.165   7.276   6.973  0.0366 -0.0481  0.0237
  766POPS   C4A 8648   4.271   7.490   7.393  0.1799 -0.0593 -0.0035
  766POPS   C1B 8649   4.951   8.166   6.362 -0.1739 -0.0646 -0.1886
  766POPS   C2B 8650   5.067   8.163   6.780 -0.0106 -0.2916 -0.0003
  766POPS   C3B 8651   5.115   8.215   7.235 -0.0222  0.1875 -0.4188
  766POPS   C4B 8652   4.973   8.300   7.582  0.0393  0.1242  0.1153
  767POPS   CNO 8653   7.677  14.189   5.613  0.0542  0.3248  0.0521
  767POPS   PO4 8654   7.730  14.416   5.892 -0.2371  0.2506 -0.4622
  767POPS   GL1 8655   7.464  14.543   6.240 -0.1452 -0.0222  0.1058
  767POPS   GL2 8656   7.140  14.506   6.312 -0.1481 -0.1029 -0.1785
  767POPS   C1A 8657   7.527  14.543   6.682 -0.4955  0.2155 -0.1493
  767POPS   D2A 8658   7.642  14.323   7.017  0.0549  0.1772 -0.0401
  767POPS   C3A 8659   7.504  14.501   7.493  0.2326  0.0989  0.1769
  767POPS   C4A 8660   7.475  14.170   7.834 -0.0272 -0.2305  0.1654
  767POPS   C1B 8661   7.056  14.753   6.784  0.0862  0.0726 -0.0466
  767POPS   C2B 8662   7.523  14.810   7.084 -0.2502 -0.0460  0.3639
  767POPS   C3B 8663   7.758  14.919   7.392  0.0517 -0.0993  0.0739
  767POPS   C4B 8664   8.058  14.723   7.697 -0.1036  0.1015  0.0110
  768POPS   CNO 8665   2.901   3.003   5.879 -0.1562 -0.0428  0.0213
  768POPS   PO4 8666   2.520   2.823   6.235  0.2268 -0.0971  0.0631
  768POPS   GL1 8667   2.343   2.947   6.521 -0.1793  0.0160  0.0524
  768POPS   GL2 8668   2.034   2.882   6.589  0.0857 -0.1240  0.1611
  768POPS   C1A 8669   2.251   3.365   6.651  0.1985  0.2119 -0.0387
  768POPS   D2A 8670   2.233   3.543   7.042 -0.0077 -0.0604 -0.0082
  768POPS   C3A 8671   2.173   3.878   7.345 -0.1045  0.1157  0.0337
  768POPS   C4A 8672   1.988   4.331   7.398 -0.1259 -0.1045 -0.0567
  768POPS   C1B 8673   2.190   3.010   7.025 -0.0741 -0.3482  0.1219
  768POPS   C2B 8674   2.289   3.214   7.449  0.0626  0.1907  0.2563
  768POPS   C3B 8675   2.185   3.448   7.756  0.0084  0.2412 -0.1394
  768POPS   C4B 8676   2.322   3.687   8.099 -0.3390  0.0655 -0.2260
  769POPS   CNO 8677   3.771  17.510   6.107  0.3278 -0.0764  0.1895
  769POPS   PO4 8678   3.861  17.217   6.319 -0.1689 -0.0602 -0.0176
  769POPS   GL1 8679   3.973  17.415   6.671 -0.1018  0.0786  0.1396
  769POPS   GL2 8680   3.913  17.509   6.934  0.3911  0.1677  0.1894
  769POPS   C1A 8681   4.353  17.154   6.929  0.1085  0.1465  0.0524
  769POPS   D2A 8682   4.721  17.187   7.089  0.2053  0.2960  0.0496
  769POPS   C3A 8683   4.714  17.290   7.517 -0.0830  0.2531  0.0328
  769POPS   C4A 8684   4.801  17.277   7.981 -0.0627  0.0420  0.2281
  769POPS   C1B 8685   4.051  17.503   7.336  0.1789 -0.1959 -0.0659
  769POPS   C2B 8686   4.294  17.511   7.725 -0.0511  0.2175 -0.2395
  769POPS   C3B 8687   4.464  17.618   8.172 -0.2524 -0.1395 -0.0453
  769POPS   C4B 8688   4.810  18.034   8.433  0.1940  0.1776 -0.1353
  770POPS   CNO 8689  17.980   0.903   6.376  0.1660 -0.1281 -0.2122
  770POPS   PO4 8690  18.334   0.591   6.495  0.1995 -0.1618  0.0063
  770POPS   GL1 8691  18.351   0.781   6.965  0.3359  0.4401  0.2899
  770POPS   GL2 8692  18.574   0.622   7.251  0.1146 -0.0754 -0.2027
  770POPS   C1A 8693  18.050   0.919   7.268  0.0774  0.2693 -0.0959
  770POPS   D2A 8694  17.972   0.923   7.626  0.1342  0.1246  0.3592
  770POPS   C3A 8695  18.054   0.857   8.040  0.1727  0.1775 -0.0914
  770POPS   C4A 8696  18.416   1.009   8.394 -0.2246 -0.0942  0.3100
  770POPS   C1B 8697  18.754   0.461   7.649 -0.2409  0.0386 -0.4352
  770POPS   C2B 8698  18.709   0.523   8.015 -0.0298  0.1760  0.0353
  770POPS   C3B 8699  18.815   0.340   8.453  0.2094  0.1374  0.2379
  770POPS   C4B 8700  18.717   0.390   8.963  0.2273 -0.0655 -0.1842
  771POPS   CNO 8701   7.617  17.727   6.142 -0.1835 -0.0541 -0.0745
  771POPS   PO4 8702   7.118  17.551   6.177 -0.0803 -0.0756 -0.0694
  771POPS   GL1 8703   7.123  17.488   6.525 -0.1593  0.0921  0.2031
  771POPS   GL2 8704   7.317  17.839   6.532 -0.3527  0.0538 -0.0321
  771POPS   C1A 8705   7.210  17.427   6.927 -0.1420 -0.3197 -0.2351
  771POPS   D2A 8706   7.281  17.398   7.290  0.1828  0.2621 -0.1620
  771POPS   C3A 8707   7.514  17.152   7.608  0.1055  0.0842  0.2333
  771POPS   C4A 8708   7.793  16.891   7.718  0.1207  0.3384  0.2001
  771POPS   C1B 8709   7.647  17.653   6.830  0.0882 -0.1693  0.1735
  771POPS   C2B 8710   7.815  17.494   7.238 -0.0899  0.3184  0.2255
  771POPS   C3B 8711   8.078  17.319   7.596  0.1054 -0.0835 -0.2911
  771POPS   C4B 8712   8.400  17.271   7.942  0.2511  0.1341  0.1915
  772POPS   CNO 8713  10.328   0.972   5.535 -0.1072  0.0036  0.1730
  772POPS   PO4 8714  10.323   0.553   5.801 -0.1801 -0.1560 -0.0549
  772POPS   GL1 8715  10.117   0.441   6.137 -0.0050  0.0214 -0.1302
  772POPS   GL2 8716   9.988   0.694   6.288  0.1313  0.3130  0.1588
  772POPS   C1A 8717   9.931   0.344   6.613 -0.2307 -0.3044 -0.0912
  772POPS   D2A 8718   9.740   0.455   6.926 -0.2762  0.0652  0.2084
  772POPS   C3A 8719   9.861   0.843   6.998 -0.2309  0.3133 -0.0579
  772POPS   C4A 8720   9.846   1.042   7.351  0.3928  0.2627  0.2612
  772POPS   C1B 8721  10.353   0.772   6.736 -0.0306  0.0473  0.0644
  772POPS   C2B 8722  10.288   0.483   7.128 -0.4752  0.0039 -0.1303
  772POPS   C3B 8723  10.347   0.331   7.610  0.0000  0.0950 -0.0353
  772POPS   C4B 8724  10.822   0.262   7.643  0.1914  0.0258 -0.2655
  773POPS   CNO 8725  13.681   5.246   5.874 -0.0356  0.1155 -0.2503
  773POPS   PO4 8726  13.686   5.006   6.306  0.1035 -0.2604 -0.2204
  773POPS   GL1 8727  13.736   4.979   6.761 -0.0783  0.0245  0.2254
  773POPS   GL2 8728  13.884   5.135   7.005  0.1130  0.0007  0.3737
  773POPS   C1A 8729  13.654   4.641   6.994  0.2505 -0.2528 -0.1790
  773POPS   D2A 8730  13.541   4.333   7.247 -0.1655 -0.0910  0.2301
  773POPS   C3A 8731  13.834   3.971   7.377 -0.0346  0.0922  0.2076
  773POPS   C4A 8732  13.966   3.589   7.609 -0.3077 -0.1261  0.1868
  773POPS   C1B 8733  13.734   4.971   7.467 -0.0433 -0.2930 -0.1813
  773POPS   C2B 8734  13.524   4.636   7.669 -0.2069  0.3095  0.1166
  773POPS   C3B 8735  13.188   4.429   7.816 -0.3292  0.0996 -0.0112
  773POPS   C4B 8736  12.937   4.276   7.941  0.1974 -0.1536 -0.2621
  774POPS   CNO 8737   9.490   8.362   5.722  0.0728 -0.0930  0.5309
  774POPS   PO4 8738   9.391   8.204   6.154  0.1021 -0.1220 -0.2363
  774POPS   GL1 8739   9.516   7.989   6.631  0.0456 -0.0802 -0.3701
  774POPS   GL2 8740   9.839   7.844   6.699 -0.1000  0.2752 -0.2440
  774POPS   C1A 8741   9.546   8.295   6.949 -0.3867 -0.0737 -0.1175
  774POPS   D2A 8742   9.410   8.153   7.387 -0.0470  0.1626  0.0789
  774POPS   C3A 8743   9.340   8.482   7.612  0.1434 -0.3535 -0.0011
  774POPS   C4A 8744   9.064   8.738   7.912 -0.0163 -0.1091  0.0341
  774POPS   C1B 8745   9.719   7.884   7.060 -0.2812  0.0152  0.2575
  774POPS   C2B 8746   9.756   7.740   7.514  0.0176 -0.4162 -0.0612
  774POPS   C3B 8747   9.727   7.681   7.943  0.5126  0.1015  0.3259
  774POPS   C4B 8748   9.555   7.929   8.249 -0.1521 -0.0308  0.3176
  775POPS   CNO 8749   9.495   3.474   5.237 -0.0601  0.0532  0.1259
  775POPS   PO4 8750   9.877   3.550   5.588 -0.0790  0.2774 -0.2148
  775POPS   GL1 8751  10.050   3.430   5.997  0.0802  0.3768 -0.3946
  775POPS   GL2 8752   9.976   3.176   6.088  0.0981 -0.3186  0.3405
  775POPS   C1A 8753  10.031   3.643   6.340 -0.0231 -0.3036 -0.0158
  775POPS   D2A 8754   9.909   3.657   6.732  0.1528 -0.0695 -0.0242
  775POPS   C3A 8755  10.134   3.900   7.071  0.1012 -0.0090  0.1731
  775POPS   C4A 8756  10.196   4.212   7.250  0.3166  0.0556 -0.0420
  775POPS   C1B 8757   9.839   3.135   6.447 -0.1765  0.1472  0.0984
  775POPS   C2B 8758   9.796   3.176   6.879  0.0632  0.2492  0.0306
  775POPS   C3B 8759   9.848   3.442   7.203 -0.0266  0.1283  0.2904
  775POPS   C4B 8760   9.957   3.449   7.587  0.0672 -0.1650 -0.1871
  776POPS   CNO 8761  17.205  11.289   5.695  0.1004  0.1667 -0.1591
  776POPS   PO4 8762  17.443  10.997   5.913  0.0190  0.0464  0.0985
  776POPS   GL1 8763  17.301  11.203   6.235  0.0236  0.0938 -0.3571
  776POPS   GL2 8764  16.824  11.285   6.277 -0.1366  0.1615 -0.0533
  776POPS   C1A 8765  17.466  11.100   6.679 -0.1307  0.0227 -0.0571
  776POPS   D2A 8766  17.566  11.161   7.092 -0.3696  0.0343  0.1158
  776POPS   C3A 8767  17.420  11.011   7.543 -0.0747 -0.2330 -0.2688
  776POPS   C4A 8768  17.242  10.921   8.013  0.1725 -0.2000  0.0623
  776POPS   C1B 8769  16.912  11.260   6.777  0.2008 -0.0164 -0.2400
  776POPS   C2B 8770  17.100  11.349   7.163  0.3123  0.1839  0.0507
  776POPS   C3B 8771  17.051  11.356   7.598 -0.1588  0.2575 -0.0534
  776POPS   C4B 8772  16.719  11.145   7.868  0.3749  0.2940 -0.3267
  777POPS   CNO 8773   7.113  11.822   5.959 -0.2062  0.0566 -0.1654
  777POPS   PO4 8774   6.999  12.166   6.163 -0.0035  0.0791 -0.4752
  777POPS   GL1 8775   7.362  12.016   6.420 -0.0490 -0.0086  0.2743
  777POPS   GL2 8776   7.640  12.176   6.279  0.2541 -0.2068 -0.3984
  777POPS   C1A 8777   7.314  12.076   6.898  0.0468 -0.0649  0.1018
  777POPS   D2A 8778   7.294  11.990   7.411 -0.2584 -0.0754  0.1640
  777POPS   C3A 8779   7.496  12.357   7.527 -0.1949 -0.1898  0.2452
  777POPS   C4A 8780   7.900  12.642   7.703 -0.0932  0.0803  0.0972
  777POPS   C1B 8781   7.723  12.299   6.645  0.2136  0.0106 -0.1576
  777POPS   C2B 8782   7.679  12.368   7.024 -0.1900 -0.1956 -0.0420
  777POPS   C3B 8783   7.560  12.745   7.198 -0.0464 -0.0369 -0.0441
  777POPS   C4B 8784   7.402  13.155   7.114  0.0442  0.0761  0.0131
  778POPS   CNO 8785  13.558  13.888   6.014 -0.1808 -0.0556 -0.1398
  778POPS   PO4 8786  13.222  13.656   6.079 -0.1567  0.1019  0.1419
  778POPS   GL1 8787  13.064  13.724   6.461  0.2360  0.2576  0.3223
  778POPS   GL2 8788  13.080  13.964   6.701 -0.0199  0.2569 -0.1393
  778POPS   C1A 8789  12.847  13.510   6.778  0.2094  0.0679  0.0908
  778POPS   D2A 8790  12.743  13.396   7.190 -0.2995  0.0989  0.0580
  778POPS   C3A 8791  12.803  13.710   7.556  0.2433 -0.0472  0.1373
  778POPS   C4A 8792  12.801  14.158   7.476  0.2839 -0.1307  0.2954
  778POPS   C1B 8793  13.096  13.883   7.151  0.1446  0.0893 -0.2780
  778POPS   C2B 8794  13.253  13.871   7.599  0.2736 -0.0933  0.1279
  778POPS   C3B 8795  13.038  13.772   8.055  0.0171 -0.3053  0.2634
  778POPS   C4B 8796  12.737  13.555   8.015 -0.1281 -0.0014 -0.0948
  779POPS   CNO 8797  13.984  11.233   6.038  0.0877 -0.2479  0.0467
  779POPS   PO4 8798  14.401  11.248   6.257  0.1008 -0.0672  0.0512
  779POPS   GL1 8799  14.279  11.246   6.624  0.0476 -0.1832 -0.0074
  779POPS   GL2 8800  14.202  11.016   6.762 -0.3451 -0.2010  0.1218
  779POPS   C1A 8801  14.461  11.457   6.878 -0.0671 -0.2249 -0.1544
  779POPS   D2A 8802  14.508  11.711   7.212  0.2420  0.0570  0.1084
  779POPS   C3A 8803  14.628  11.675   7.601 -0.2476  0.0315 -0.2121
  779POPS   C4A 8804  14.652  11.677   7.995  0.3611  0.5018  0.1218
  779POPS   C1B 8805  14.247  10.701   7.045  0.0302  0.1493  0.3717
  779POPS   C2B 8806  14.215  10.802   7.454 -0.3890  0.1680 -0.0999
  779POPS   C3B 8807  14.357  10.850   7.777  0.0532  0.1564 -0.1314
  779POPS   C4B 8808  14.171  10.698   8.123  0.1268  0.4022 -0.2783
  780POPS   CNO 8809   4.585  13.917   5.513 -0.3036 -0.2312 -0.2558
  780POPS   PO4 8810   4.743  14.216   5.898  0.0688  0.1530  0.1383
  780POPS   GL1 8811   5.041  14.100   6.261  0.1181 -0.2070 -0.0548
  780POPS   GL2 8812   5.001  13.772   6.309 -0.2720 -0.0969  0.2141
  780POPS   C1A 8813   5.342  13.991   6.603  0.0231 -0.1445 -0.1125
  780POPS   D2A 8814   5.342  13.620   6.846 -0.4078 -0.2750  0.0737
  780POPS   C3A 8815   5.586  13.604   7.204 -0.1934  0.0062  0.0566
  780POPS   C4A 8816   5.747  13.633   7.719  0.2819 -0.1868  0.1878
  780POPS   C1B 8817   4.854  13.887   6.749  0.3203 -0.0440  0.3441
  780POPS   C2B 8818   4.763  13.857   7.224  0.3127 -0.2366 -0.2197
  780POPS   C3B 8819   4.878  13.917   7.597  0.1502 -0.1997 -0.3458
  780POPS   C4B 8820   5.173  14.272   7.728  0.1172 -0.2752 -0.0650
  781POPS   CNO 8821   5.894   1.956   5.930 -0.0188 -0.0564 -0.0136
  781POPS   PO4 8822   6.163   2.203   5.615  0.1026 -0.0290  0.0439
  781POPS   GL1 8823   6.053   2.429   5.927 -0.1405 -0.1639 -0.0022
  781POPS   GL2 8824   6.039   2.816   5.893 -0.2819 -0.1812  0.1321
  781POPS   C1A 8825   5.685   2.325   6.273  0.0895 -0.2365  0.0616
  781POPS   D2A 8826   5.470   2.664   6.495  0.1042  0.2142  0.1460
  781POPS   C3A 8827   5.548   2.671   6.909 -0.1345 -0.2715  0.1591
  781POPS   C4A 8828   5.864   2.875   7.151  0.1032 -0.0243  0.2112
  781POPS   C1B 8829   5.872   2.751   6.251 -0.0928 -0.1850  0.0479
  781POPS   C2B 8830   5.970   2.557   6.580  0.3334  0.2001  0.1521
  781POPS   C3B 8831   6.169   2.559   6.925  0.2043  0.1288 -0.2240
  781POPS   C4B 8832   6.503   2.479   7.252  0.1453 -0.0616 -0.2831
  782POPS   CNO 8833   0.317   2.356   6.405 -0.1265 -0.0733 -0.3533
  782POPS   PO4 8834   0.659   2.620   6.608  0.1819 -0.0151  0.1083
  782POPS   GL1 8835   0.515   2.883   7.027 -0.1622  0.2300  0.2874
  782POPS   GL2 8836   0.802   2.781   7.055 -0.1927  0.2192  0.0758
  782POPS   C1A 8837   0.510   3.155   7.433 -0.0273  0.0248 -0.1425
  782POPS   D2A 8838   0.559   3.527   7.538 -0.0151 -0.1816 -0.0450
  782POPS   C3A 8839   0.343   3.499   7.873  0.0708 -0.0184 -0.0319
  782POPS   C4A 8840   0.139   3.827   8.234 -0.5111 -0.2032 -0.0143
  782POPS   C1B 8841   0.765   2.685   7.446 -0.0119  0.0471  0.1620
  782POPS   C2B 8842   0.762   2.865   7.812 -0.4205 -0.1520 -0.4598
  782POPS   C3B 8843   0.711   3.147   7.935 -0.0504 -0.2145  0.0046
  782POPS   C4B 8844   0.837   3.547   7.953 -0.1885 -0.0872  0.1175
  783POPS   CNO 8845   6.734   4.872   5.518  0.1645  0.2649 -0.2113
  783POPS   PO4 8846   6.875   4.857   5.917  0.1665 -0.0459 -0.0949
  783POPS   GL1 8847   6.807   4.749   6.336  0.0588 -0.0911 -0.1099
  783POPS   GL2 8848   6.635   4.520   6.450 -0.1145  0.0068 -0.0144
  783POPS   C1A 8849   6.964   4.963   6.710  0.0349  0.3314  0.2431
  783POPS   D2A 8850   7.033   4.852   7.130 -0.1216 -0.0568  0.0553
  783POPS   C3A 8851   7.372   4.911   7.405 -0.1203  0.1814 -0.0879
  783POPS   C4A 8852   7.641   5.029   7.727  0.1532  0.0862  0.2629
  783POPS   C1B 8853   6.766   4.417   6.886 -0.3263  0.1278  0.2502
  783POPS   C2B 8854   6.871   4.380   7.329 -0.0724 -0.0556  0.0457
  783POPS   C3B 8855   6.837   4.617   7.659 -0.0295 -0.0902 -0.0297
  783POPS   C4B 8856   7.080   4.925   7.827 -0.0195 -0.0205 -0.2179
  784POPS   CNO 8857   9.377  10.389   6.180  0.1201 -0.1607  0.1264
  784POPS   PO4 8858   9.351  10.821   6.039 -0.1554  0.0496 -0.1305
  784POPS   GL1 8859   9.438  10.997   6.311  0.1231 -0.1572  0.2386
  784POPS   GL2 8860   9.359  11.284   6.415  0.2121 -0.2430 -0.1161
  784POPS   C1A 8861   9.532  10.737   6.697 -0.0348  0.1543 -0.0162
  784POPS   D2A 8862   9.905  10.635   7.033 -0.1094  0.0231 -0.0332
  784POPS   C3A 8863   9.872  10.690   7.504  0.0678 -0.0846 -0.1469
  784POPS   C4A 8864   9.685  10.658   7.932 -0.1384 -0.0233 -0.0406
  784POPS   C1B 8865   9.131  11.136   6.746 -0.0074  0.4392  0.0711
  784POPS   C2B 8866   8.904  11.203   7.139 -0.1520 -0.2662  0.6260
  784POPS   C3B 8867   8.675  11.060   7.445  0.4205 -0.0643  0.1493
  784POPS   C4B 8868   8.490  11.299   7.711 -0.1226 -0.0801  0.1161
  785POPS   CNO 8869  18.008  16.468   6.352 -0.1092 -0.2945 -0.1491
  785POPS   PO4 8870  18.325  16.880   6.257 -0.1862 -0.2579  0.1692
  785POPS   GL1 8871  18.268  16.647   6.698 -0.3868 -0.2603  0.0533
  785POPS   GL2 8872  18.590  16.652   6.940  0.0415 -0.1762  0.1337
  785POPS   C1A 8873  18.259  16.295   7.029 -0.2159  0.0672 -0.1526
  785POPS   D2A 8874  18.324  16.046   7.339 -0.0952  0.2450  0.2834
  785POPS   C3A 8875  18.456  16.078   7.855  0.1177 -0.1697 -0.0457
  785POPS   C4A 8876  18.861  16.224   8.143  0.0044  0.1084  0.0596
  785POPS   C1B 8877  18.746  16.463   7.242 -0.1564 -0.1308 -0.2025
  785POPS   C2B 8878  18.745  16.539   7.703  0.2648  0.1059  0.2438
  785POPS   C3B 8879  18.498  16.692   7.944  0.3486 -0.1671  0.0467
  785POPS   C4B 8880  18.211  16.797   8.263 -0.0268  0.0426  0.2228
  786POPS   CNO 8881  17.830   7.708   6.205 -0.1638  0.0588 -0.1826
  786POPS   PO4 8882  18.280   7.545   6.355 -0.2827 -0.2343 -0.3278
  786POPS   GL1 8883  18.247   7.758   6.834 -0.1431  0.2944  0.1185
  786POPS   GL2 8884  17.911   7.858   7.029 -0.3208  0.2515  0.2339
  786POPS   C1A 8885  18.409   7.951   7.274  0.1051  0.0159 -0.1292
  786POPS   D2A 8886  18.507   7.938   7.674 -0.0940 -0.1570 -0.4870
  786POPS   C3A 8887  18.327   8.455   7.773 -0.2027  0.4219 -0.0764
  786POPS   C4A 8888  18.210   8.862   7.786 -0.0975  0.2311  0.4349
  786POPS   C1B 8889  17.632   7.909   7.288 -0.1474 -0.0224 -0.1010
  786POPS   C2B 8890  17.461   8.101   7.549 -0.0092 -0.0289  0.1200
  786POPS   C3B 8891  17.242   8.203   7.974 -0.4835  0.5670  0.1774
  786POPS   C4B 8892  17.233   8.331   8.321 -0.2036  0.1468 -0.0230
  787POPS   CNO 8893  17.387   1.446   6.303 -0.6135 -0.1307  0.0443
  787POPS   PO4 8894  17.586   1.838   6.505  0.2042  0.2215  0.0266
  787POPS   GL1 8895  17.399   1.919   6.911 -0.0123  0.0110 -0.0264
  787POPS   GL2 8896  17.074   2.086   6.845  0.0878 -0.1638 -0.1609
  787POPS   C1A 8897  17.523   2.132   7.292  0.0409 -0.2079  0.1290
  787POPS   D2A 8898  17.601   2.255   7.707  0.0306  0.1219 -0.1788
  787POPS   C3A 8899  17.420   2.082   8.066 -0.1813 -0.4106  0.1001
  787POPS   C4A 8900  17.154   2.009   8.537 -0.1169  0.1920 -0.1129
  787POPS   C1B 8901  17.051   2.118   7.260  0.0175  0.1032 -0.0034
  787POPS   C2B 8902  17.115   2.132   7.632  0.1168 -0.2936 -0.0952
  787POPS   C3B 8903  16.905   2.471   7.985  0.0243  0.0870 -0.0592
  787POPS   C4B 8904  16.484   2.559   8.285  0.0585  0.3011  0.0252
  788POPS   CNO 8905  13.343   8.713   6.145 -0.0230 -0.0413 -0.1976
  788POPS   PO4 8906  13.475   8.672   6.559 -0.0219  0.0821  0.0525
  788POPS   GL1 8907  13.286   8.899   6.914  0.1318 -0.3406 -0.1085
  788POPS   GL2 8908  13.339   9.132   7.155 -0.0033  0.2210  0.1735
  788POPS   C1A 8909  12.894   8.665   7.028 -0.1993  0.3309  0.1181
  788POPS   D2A 8910  12.733   8.282   7.200  0.3326 -0.1442  0.0180
  788POPS   C3A 8911  13.152   8.063   7.293  0.0580  0.1072  0.2581
  788POPS   C4A 8912  13.254   8.053   7.778 -0.1590  0.1786 -0.1448
  788POPS   C1B 8913  13.363   8.990   7.565  0.0876 -0.0503  0.1385
  788POPS   C2B 8914  13.494   8.909   7.888  0.3164 -0.1371 -0.0286
  788POPS   C3B 8915  13.239   8.877   8.267 -0.0165  0.0277 -0.0128
  788POPS   C4B 8916  12.798   9.048   8.178 -0.0650 -0.1556 -0.0042
  789POPS   CNO 8917  16.694   3.581   6.323 -0.1023 -0.0908 -0.0646
  789POPS   PO4 8918  16.941   3.322   6.408  0.1417  0.1082 -0.2877
  789POPS   GL1 8919  16.860   3.402   6.849 -0.2936  0.1670  0.0335
  789POPS   GL2 8920  16.807   3.106   6.959  0.1042 -0.4009  0.3222
  789POPS   C1A 8921  16.744   3.629   7.176  0.0646  0.2647  0.2036
  789POPS   D2A 8922  16.642   3.564   7.548 -0.3059  0.0151  0.0966
  789POPS   C3A 8923  16.634   3.640   7.987  0.0522  0.2785 -0.1990
  789POPS   C4A 8924  16.363   3.418   8.348  0.4497 -0.0301 -0.1904
  789POPS   C1B 8925  17.006   3.245   7.279  0.1529 -0.2234  0.2084
  789POPS   C2B 8926  16.989   3.209   7.621  0.1957  0.0097  0.0529
  789POPS   C3B 8927  17.127   3.184   7.950  0.1119  0.1910  0.2140
  789POPS   C4B 8928  17.345   3.364   8.287 -0.0896 -0.0313 -0.2447
  790POPS   CNO 8929   0.386   0.942   6.915 -0.0640 -0.0754  0.0327
  790POPS   PO4 8930   0.690   1.070   6.678 -0.0987  0.1156 -0.2116
  790POPS   GL1 8931   0.940   0.839   6.991  0.0414  0.1406 -0.1321
  790POPS   GL2 8932   0.675   0.568   7.081  0.1048  0.0158 -0.1502
  790POPS   C1A 8933   1.127   0.651   7.297 -0.2939  0.0738 -0.1989
  790POPS   D2A 8934   1.126   0.708   7.742  0.0326 -0.0763 -0.1727
  790POPS   C3A 8935   1.247   0.390   7.913  0.1205  0.1439  0.2748
  790POPS   C4A 8936   1.036   0.410   8.349 -0.1772  0.3145  0.1695
  790POPS   C1B 8937   0.530   0.894   7.421  0.1955 -0.0012  0.1577
  790POPS   C2B 8938   0.641   0.820   7.830 -0.2439  0.4007 -0.1442
  790POPS   C3B 8939   0.686   0.733   8.195  0.0601  0.1037 -0.0925
  790POPS   C4B 8940   1.029   0.846   8.642 -0.0690 -0.0585 -0.1378
  791POPS   CNO 8941  11.791   0.756   5.804  0.4517 -0.1055 -0.1901
  791POPS   PO4 8942  11.882   0.958   6.139  0.0771  0.1588 -0.0358
  791POPS   GL1 8943  12.098   0.908   6.453 -0.3272  0.2121 -0.0267
  791POPS   GL2 8944  11.927   0.852   6.779 -0.3481  0.1857  0.2910
  791POPS   C1A 8945  12.407   0.971   6.807 -0.0963  0.2763  0.1826
  791POPS   D2A 8946  12.186   0.849   7.255  0.0314  0.1730  0.0083
  791POPS   C3A 8947  12.401   0.923   7.667  0.1492 -0.2602  0.0884
  791POPS   C4A 8948  12.547   1.359   7.925  0.1968 -0.0466 -0.2317
  791POPS   C1B 8949  12.002   1.282   7.039 -0.2230 -0.1955 -0.0127
  791POPS   C2B 8950  12.121   1.666   7.338 -0.2035 -0.0204 -0.2039
  791POPS   C3B 8951  12.373   1.685   7.631 -0.0975  0.0175 -0.0117
  791POPS   C4B 8952  12.590   1.937   7.893 -0.2256 -0.1720  0.1385
  792POPS   CNO 8953   2.534   0.034   6.441 -0.0058  0.0457 -0.2536
  792POPS   PO4 8954   2.300   0.254   6.765  0.3425  0.0508 -0.2230
  792POPS   GL1 8955   2.657   0.184   6.958  0.3540 -0.0958 -0.0175
  792POPS   GL2 8956   2.679  -0.007   7.249 -0.0067 -0.1039  0.4615
  792POPS   C1A 8957   3.010   0.430   7.032 -0.3225  0.1295  0.0582
  792POPS   D2A 8958   3.008   0.417   7.447 -0.0947 -0.0636  0.2695
  792POPS   C3A 8959   2.946   0.705   7.707 -0.0046 -0.1891 -0.0101
  792POPS   C4A 8960   2.794   0.946   8.000  0.0768  0.1494 -0.1846
  792POPS   C1B 8961   2.734  -0.167   7.627  0.0389 -0.2420  0.2921
  792POPS   C2B 8962   2.623  -0.269   7.932  0.1490 -0.2227  0.1223
  792POPS   C3B 8963   2.467  -0.507   8.146  0.2438  0.0977 -0.0967
  792POPS   C4B 8964   2.601  -0.608   8.490 -0.0540  0.0299  0.1661
  793POPS   CNO 8965  14.456  16.462   5.349 -0.0233 -0.1624 -0.1128
  793POPS   PO4 8966  14.838  16.591   5.500  0.0932  0.0632  0.0160
  793POPS   GL1 8967  14.726  16.822   5.834 -0.1769 -0.2217  0.1143
  793POPS   GL2 8968  14.445  16.854   5.914 -0.0346  0.4129 -0.0111
  793POPS   C1A 8969  14.777  17.004   6.236 -0.3376  0.3779  0.0827
  793POPS   D2A 8970  14.618  17.201   6.500 -0.0958 -0.2765 -0.0066
  793POPS   C3A 8971  14.422  17.014   6.698  0.1495 -0.0070 -0.0341
  793POPS   C4A 8972  14.249  16.988   7.080  0.0509 -0.0211  0.0205
  793POPS   C1B 8973  14.257  16.995   6.244 -0.0384  0.3859 -0.2418
  793POPS   C2B 8974  13.851  17.149   6.394  0.1175  0.2130  0.1122
  793POPS   C3B 8975  13.799  17.163   6.887 -0.2229  0.0050 -0.0732
  793POPS   C4B 8976  13.942  17.318   7.296 -0.1061  0.1625 -0.0054
  794POPS   CNO 8977   7.791  11.914   5.589 -0.2075 -0.3049 -0.2489
  794POPS   PO4 8978   7.925  12.196   5.884  0.1368  0.5293 -0.1593
  794POPS   GL1 8979   8.108  12.356   6.207 -0.0717 -0.1693 -0.1369
  794POPS   GL2 8980   8.180  12.671   6.232  0.2814 -0.2632 -0.2226
  794POPS   C1A 8981   8.218  12.259   6.558  0.0698  0.3258 -0.0687
  794POPS   D2A 8982   8.136  12.102   6.982 -0.2558 -0.0091 -0.1746
  794POPS   C3A 8983   8.068  12.247   7.352  0.2403  0.0154 -0.0276
  794POPS   C4A 8984   7.919  12.113   7.723 -0.3195 -0.0854 -0.1065
  794POPS   C1B 8985   8.571  12.521   6.410  0.0338  0.0563  0.0515
  794POPS   C2B 8986   8.678  12.145   6.698 -0.1679 -0.0603  0.0764
  794POPS   C3B 8987   8.599  12.044   7.133  0.1411 -0.2047 -0.1433
  794POPS   C4B 8988   8.477  12.006   7.589 -0.2140 -0.1324  0.0685
  795POPS   CNO 8989   2.906  17.219   6.391 -0.2595 -0.2268 -0.2136
  795POPS   PO4 8990   2.871  17.432   6.715  0.2963 -0.2105  0.1418
  795POPS   GL1 8991   2.947  17.208   7.046 -0.1430 -0.1560  0.0251
  795POPS   GL2 8992   2.810  17.408   7.214  0.1728 -0.2973 -0.1624
  795POPS   C1A 8993   3.205  16.982   7.348  0.0753  0.2695  0.1323
  795POPS   D2A 8994   3.322  16.832   7.670 -0.1497  0.1548  0.0606
  795POPS   C3A 8995   3.097  17.121   7.941 -0.2834  0.2817  0.0922
  795POPS   C4A 8996   2.975  17.436   8.314 -0.1080 -0.2450 -0.1427
  795POPS   C1B 8997   3.075  17.499   7.544 -0.0063  0.0433  0.0829
  795POPS   C2B 8998   3.415  17.552   7.801  0.1684 -0.0584  0.2712
  795POPS   C3B 8999   3.858  17.513   7.890 -0.1347 -0.2790 -0.0567
  795POPS   C4B 9000   4.026  17.329   8.275 -0.2763  0.4486  0.1156
  796POPS   CNO 9001   5.991   9.168   6.046 -0.2463 -0.1228 -0.2213
  796POPS   PO4 9002   5.580   9.348   6.228 -0.1705 -0.0800 -0.3271
  796POPS   GL1 9003   5.900   9.195   6.532 -0.0758 -0.0976 -0.0104
  796POPS   GL2 9004   5.979   9.370   6.747  0.1000 -0.1238  0.1473
  796POPS   C1A 9005   5.790   8.933   6.905 -0.3005  0.0309  0.0610
  796POPS   D2A 9006   5.882   8.769   7.299  0.1306 -0.1457  0.4333
  796POPS   C3A 9007   6.064   8.388   7.475 -0.1044  0.1488  0.0028
  796POPS   C4A 9008   6.001   7.942   7.508 -0.0923  0.4423 -0.1360
  796POPS   C1B 9009   5.701   9.412   7.082  0.0372  0.0763 -0.2140
  796POPS   C2B 9010   5.808   9.322   7.430  0.0390 -0.2057 -0.0705
  796POPS   C3B 9011   6.032   9.097   7.703 -0.0533 -0.1228 -0.0089
  796POPS   C4B 9012   5.932   8.693   7.851 -0.1293 -0.1474 -0.1271
  797POPS   CNO 9013   0.970  11.177   5.886  0.0110 -0.2103 -0.0866
  797POPS   PO4 9014   0.600  11.239   6.131  0.0535  0.1379  0.1276
  797POPS   GL1 9015   0.594  11.303   6.553  0.1349 -0.0307  0.2189
  797POPS   GL2 9016   0.776  11.588   6.688  0.2456  0.1744 -0.0198
  797POPS   C1A 9017   0.582  11.254   6.975 -0.0850  0.0543  0.1693
  797POPS   D2A 9018   0.603  11.266   7.308  0.2565  0.1159 -0.1869
  797POPS   C3A 9019   0.836  11.132   7.604 -0.1610  0.1760  0.0009
  797POPS   C4A 9020   0.835  11.338   7.894 -0.0661  0.2278 -0.0652
  797POPS   C1B 9021   0.544  11.767   7.034  0.1036 -0.0507  0.1955
  797POPS   C2B 9022   0.481  11.774   7.400  0.1901 -0.3026 -0.5550
  797POPS   C3B 9023   0.521  11.689   7.806  0.0133  0.0376  0.0265
  797POPS   C4B 9024   0.365  11.525   8.158 -0.1055  0.0815 -0.2118
  798POPS   CNO 9025   3.292  10.295   6.218  0.1645  0.1214  0.2096
  798POPS   PO4 9026   3.504  10.634   6.415  0.3115 -0.0473  0.2463
  798POPS   GL1 9027   3.420  10.745   6.826 -0.0612 -0.4552  0.2146
  798POPS   GL2 9028   3.422  11.125   6.797 -0.1192  0.0181 -0.0611
  798POPS   C1A 9029   3.255  10.815   7.360 -0.0236  0.0032 -0.1492
  798POPS   D2A 9030   2.788  10.837   7.478 -0.0851  0.1044 -0.2334
  798POPS   C3A 9031   2.599  10.937   7.895  0.0721 -0.2398 -0.0084
  798POPS   C4A 9032   2.579  11.015   8.328  0.2600 -0.0022  0.1924
  798POPS   C1B 9033   3.192  11.275   7.165  0.3801 -0.0287 -0.2604
  798POPS   C2B 9034   3.109  11.264   7.578  0.1140  0.3624 -0.1973
  798POPS   C3B 9035   3.400  11.289   7.854 -0.3326 -0.5820 -0.1653
  798POPS   C4B 9036   3.819  11.304   7.859 -0.3639  0.3752  0.1542
  799POPS   CNO 9037   8.650   5.417   6.075  0.0997  0.2589 -0.0891
  799POPS   PO4 9038   8.200   5.634   6.019  0.1218 -0.0091 -0.1909
  799POPS   GL1 9039   8.250   5.648   6.412  0.0572  0.0527  0.0947
  799POPS   GL2 9040   8.404   5.351   6.517  0.1334  0.3504 -0.2762
  799POPS   C1A 9041   8.370   5.879   6.781 -0.0216 -0.0593 -0.0384
  799POPS   D2A 9042   8.507   5.886   7.178 -0.2179  0.0182 -0.0613
  799POPS   C3A 9043   8.499   6.172   7.572 -0.0749 -0.0306 -0.0692
  799POPS   C4A 9044   8.701   6.322   7.914  0.0096 -0.0373 -0.3872
  799POPS   C1B 9045   8.210   5.089   6.764  0.0538  0.0313 -0.1078
  799POPS   C2B 9046   7.993   4.922   7.015 -0.3571 -0.0616  0.3038
  799POPS   C3B 9047   8.103   5.009   7.461 -0.0024  0.0478 -0.0025
  799POPS   C4B 9048   8.107   5.233   7.780 -0.0255  0.0704  0.1223
  800POPS   CNO 9049  12.205  15.836   5.682  0.0827  0.0343  0.1088
  800POPS   PO4 9050  12.565  15.572   5.693  0.1193  0.1319  0.1369
  800POPS   GL1 9051  12.423  15.683   6.117 -0.1057  0.3666 -0.1973
  800POPS   GL2 9052  12.734  15.574   6.178  0.1591 -0.0556 -0.1135
  800POPS   C1A 9053  12.417  15.587   6.551  0.2210 -0.0078  0.0021
  800POPS   D2A 9054  12.070  15.570   6.870 -0.0522 -0.0250  0.0619
  800POPS   C3A 9055  12.021  15.493   7.286  0.0287 -0.0906  0.2378
  800POPS   C4A 9056  11.687  15.486   7.556 -0.2386 -0.0258 -0.1800
  800POPS   C1B 9057  12.905  15.441   6.556 -0.1199  0.1621 -0.1853
  800POPS   C2B 9058  12.747  15.512   6.977  0.1465  0.0015 -0.0034
  800POPS   C3B 9059  12.501  15.481   7.437  0.1944 -0.1561 -0.0884
  800POPS   C4B 9060  12.209  15.464   7.821  0.1511 -0.1449  0.3293
  801POPS   CNO 9061   3.314   5.032   5.700  0.2262  0.3882  0.1137
  801POPS   PO4 9062   3.071   5.405   5.829 -0.3464 -0.0812  0.2646
  801POPS   GL1 9063   3.037   5.461   6.339  0.0911  0.0433 -0.1275
  801POPS   GL2 9064   3.250   5.635   6.394  0.0104  0.2639 -0.2547
  801POPS   C1A 9065   3.021   5.365   6.838  0.1613  0.4155 -0.2305
  801POPS   D2A 9066   2.969   5.192   7.211  0.1725 -0.3357 -0.3789
  801POPS   C3A 9067   3.340   5.309   7.503 -0.1288  0.0771  0.0265
  801POPS   C4A 9068   3.598   5.545   7.728  0.0186  0.2620 -0.2183
  801POPS   C1B 9069   3.479   5.619   6.810 -0.0717 -0.0601 -0.0567
  801POPS   C2B 9070   3.443   5.624   7.111 -0.2445  0.1178  0.1658
  801POPS   C3B 9071   3.427   5.885   7.463 -0.1512  0.2510  0.3387
  801POPS   C4B 9072   3.403   6.058   7.776 -0.2953  0.0344  0.0486
  802POPS   CNO 9073  14.810  12.888   5.811  0.0434 -0.3265 -0.0157
  802POPS   PO4 9074  14.716  13.067   6.150 -0.1490 -0.1862 -0.3383
  802POPS   GL1 9075  14.597  13.227   6.534 -0.0355 -0.2307  0.0221
  802POPS   GL2 9076  14.384  13.132   6.592 -0.3693 -0.1300  0.0190
  802POPS   C1A 9077  14.690  13.571   6.776 -0.1351 -0.0607  0.5495
  802POPS   D2A 9078  14.569  13.599   7.165 -0.2875 -0.1038 -0.0539
  802POPS   C3A 9079  14.664  13.914   7.454  0.2519 -0.2813  0.1703
  802POPS   C4A 9080  14.970  14.286   7.734 -0.4122 -0.1420  0.1996
  802POPS   C1B 9081  14.205  13.271   7.011 -0.2080  0.1178 -0.0907
  802POPS   C2B 9082  14.106  13.353   7.484 -0.1040  0.0373  0.2032
  802POPS   C3B 9083  14.132  13.659   7.809  0.2372  0.2116  0.2035
  802POPS   C4B 9084  14.365  13.902   7.909  0.1592 -0.1256 -0.3323
  803POPS   CNO 9085   1.229   4.966   6.162  0.1874 -0.0875 -0.1874
  803POPS   PO4 9086   1.032   4.876   6.488 -0.3163  0.3262  0.0004
  803POPS   GL1 9087   0.948   4.987   6.946  0.2214 -0.3452  0.0012
  803POPS   GL2 9088   0.976   5.351   6.941  0.3325 -0.3320  0.2667
  803POPS   C1A 9089   1.073   4.891   7.477 -0.0308 -0.3638 -0.0452
  803POPS   D2A 9090   0.967   4.933   7.904  0.0075 -0.2096 -0.2623
  803POPS   C3A 9091   1.312   4.842   8.162 -0.1442 -0.2369 -0.2657
  803POPS   C4A 9092   1.294   4.837   8.605  0.1501 -0.0955  0.0601
  803POPS   C1B 9093   1.001   5.383   7.385  0.1073 -0.1028 -0.4579
  803POPS   C2B 9094   1.134   5.423   7.829  0.1407 -0.1387 -0.2227
  803POPS   C3B 9095   1.078   5.279   8.272  0.0932 -0.0054 -0.0250
  803POPS   C4B 9096   0.743   4.853   8.430  0.5705 -0.3581 -0.1952
  804POPS   CNO 9097   4.714   5.085   6.022 -0.1679 -0.0135  0.3954
  804POPS   PO4 9098   4.524   5.488   6.116  0.1278  0.0960 -0.2830
  804POPS   GL1 9099   4.760   5.372   6.463  0.1188  0.0932 -0.0916
  804POPS   GL2 9100   5.127   5.322   6.291 -0.0651  0.0200  0.0348
  804POPS   C1A 9101   4.854   5.447   6.865 -0.2979 -0.1453 -0.2936
  804POPS   D2A 9102   4.810   5.390   7.272  0.0038 -0.1484  0.3887
  804POPS   C3A 9103   4.686   5.653   7.707  0.2749 -0.1059  0.0496
  804POPS   C4A 9104   4.508   5.877   8.031 -0.0930  0.2628  0.1497
  804POPS   C1B 9105   5.282   5.561   6.607  0.3751  0.0468 -0.2095
  804POPS   C2B 9106   5.220   5.756   7.058 -0.1287 -0.2029  0.2369
  804POPS   C3B 9107   5.153   5.737   7.465  0.1500  0.3679  0.2168
  804POPS   C4B 9108   5.136   5.929   7.917  0.2470 -0.0399 -0.2465
  805POPS   CNO 9109   4.278  10.991   5.757 -0.1218 -0.3307  0.2820
  805POPS   PO4 9110   4.450  10.820   6.093  0.0582 -0.2738 -0.0718
  805POPS   GL1 9111   4.577  10.760   6.453 -0.0433 -0.0066  0.0102
  805POPS   GL2 9112   4.889  10.702   6.371  0.1974 -0.1475 -0.0256
  805POPS   C1A 9113   4.801  10.717   6.931 -0.3548  0.0778  0.1608
  805POPS   D2A 9114   5.086  10.687   7.256 -0.0460  0.1248  0.0881
  805POPS   C3A 9115   4.936  10.493   7.660 -0.3399  0.4784  0.1769
  805POPS   C4A 9116   5.018  10.689   8.097 -0.2033 -0.7824 -0.1178
  805POPS   C1B 9117   5.228  10.891   6.501 -0.3492  0.0995 -0.3007
  805POPS   C2B 9118   5.328  10.951   6.936 -0.1479 -0.0871 -0.1200
  805POPS   C3B 9119   5.382  11.040   7.429  0.1038 -0.0200 -0.1718
  805POPS   C4B 9120   5.142  10.937   7.712  0.0016  0.1827  0.1279
  806POPS   CNO 9121  14.866   4.251   6.735  0.1743  0.1674 -0.2329
  806POPS   PO4 9122  14.575   4.403   6.546  0.1919 -0.0220 -0.2222
  806POPS   GL1 9123  14.500   4.657   6.893 -0.0390  0.1154  0.0073
  806POPS   GL2 9124  14.563   4.446   7.187 -0.4398 -0.2367 -0.2674
  806POPS   C1A 9125  14.127   4.704   7.163 -0.1778 -0.0566 -0.1206
  806POPS   D2A 9126  13.958   4.531   7.452  0.2838  0.0910 -0.0129
  806POPS   C3A 9127  14.026   4.745   7.828  0.2796  0.0737 -0.2554
  806POPS   C4A 9128  14.136   4.956   8.194 -0.0151 -0.3631  0.1222
  806POPS   C1B 9129  14.319   4.140   7.453  0.0508 -0.0709 -0.0306
  806POPS   C2B 9130  14.083   4.304   7.882 -0.1804 -0.0152  0.3967
  806POPS   C3B 9131  13.678   4.173   7.789  0.0323 -0.2685  0.0897
  806POPS   C4B 9132  13.498   4.094   8.125  0.2460 -0.1994 -0.1005
  807POPS   CNO 9133   3.722   0.374   6.364  0.2022  0.0927  0.2739
  807POPS   PO4 9134   3.369   0.505   6.349 -0.0724 -0.1378 -0.0002
  807POPS   GL1 9135   3.434   0.254   6.742  0.1081  0.0896  0.2557
  807POPS   GL2 9136   3.186  -0.009   6.811  0.1744 -0.0837  0.0204
  807POPS   C1A 9137   3.540   0.415   7.151 -0.0246  0.1519 -0.1314
  807POPS   D2A 9138   3.599   0.411   7.501  0.0118  0.0728  0.0472
  807POPS   C3A 9139   3.359   0.424   7.896  0.1326  0.0650  0.2570
  807POPS   C4A 9140   3.086   0.486   8.290 -0.2260 -0.0462 -0.1696
  807POPS   C1B 9141   3.226  -0.057   7.263  0.0123 -0.2071 -0.0678
  807POPS   C2B 9142   3.230  -0.082   7.640  0.0021  0.1950 -0.0304
  807POPS   C3B 9143   3.021  -0.039   8.086 -0.2106  0.4640 -0.2479
  807POPS   C4B 9144   3.013  -0.353   8.441 -0.1144 -0.0115  0.1509
  808POPS   CNO 9145   0.755   3.671   6.185  0.0565  0.0402  0.0546
  808POPS   PO4 9146   0.902   4.053   6.330 -0.0017  0.0229  0.3910
  808POPS   GL1 9147   1.031   4.207   6.653  0.4815  0.0894 -0.2180
  808POPS   GL2 9148   0.859   4.502   6.838  0.3022 -0.0896 -0.0219
  808POPS   C1A 9149   1.111   4.107   7.056  0.1521  0.2031  0.1013
  808POPS   D2A 9150   1.164   4.238   7.431  0.1743 -0.0904 -0.0649
  808POPS   C3A 9151   1.080   4.451   7.818 -0.3216  0.1226 -0.0614
  808POPS   C4A 9152   1.170   4.351   8.118 -0.1405  0.0076 -0.0166
  808POPS   C1B 9153   0.723   4.658   7.191  0.2376  0.3678  0.0807
  808POPS   C2B 9154   0.616   4.646   7.711  0.3659  0.0488 -0.1403
  808POPS   C3B 9155   0.467   4.485   8.096  0.1588 -0.1521 -0.0553
  808POPS   C4B 9156   0.438   4.235   8.364  0.2708  0.1130  0.1176
  809YOPS   CNO 9157   3.977   3.504   6.070 -0.1568  0.1977  0.1106
  809YOPS   PO4 9158   4.111   3.194   6.251 -0.0465 -0.2292 -0.0550
  809YOPS   GL1 9159   4.131   3.108   6.760  0.1200 -0.2583  0.0729
  809YOPS   GL2 9160   3.906   2.905   6.671  0.1840 -0.3145  0.0990
  809YOPS   C1A 9161   4.244   3.234   7.184  0.0105 -0.0777 -0.0728
  809YOPS   D2A 9162   4.486   3.138   7.478  0.2642 -0.1229  0.0674
  809YOPS   C3A 9163   4.477   2.936   7.944  0.0141  0.0343  0.0947
  809YOPS   C4A 9164   4.526   2.567   8.111 -0.0334  0.0137  0.0962
  809YOPS   C1B 9165   3.843   2.910   7.173  0.1416  0.0676  0.0296
  809YOPS   C2B 9166   3.965   2.953   7.618 -0.1359 -0.0159 -0.0320
  809YOPS   D3B 9167   3.783   3.247   7.936 -0.1064 -0.1736  0.0407
  809YOPS   C4B 9168   3.849   3.663   8.028  0.0550  0.1433  0.1291
  810YOPS   CNO 9169  12.121   9.353   5.953  0.0755 -0.1774  0.2024
  810YOPS   PO4 9170  12.168   9.295   6.297 -0.2859  0.0379 -0.0225
  810YOPS   GL1 9171  12.237   9.528   6.639  0.0774 -0.0573  0.1602
  810YOPS   GL2 9172  12.384   9.894   6.734 -0.1107 -0.1512 -0.0547
  810YOPS   C1A 9173  12.309   9.374   7.062 -0.4988 -0.1917  0.2291
  810YOPS   D2A 9174  12.201   9.267   7.553  0.1326 -0.2608 -0.0063
  810YOPS   C3A 9175  12.329   9.256   7.970  0.3507 -0.2803  0.1713
  810YOPS   C4A 9176  12.273   9.564   8.290  0.3053 -0.3693 -0.1175
  810YOPS   C1B 9177  12.325   9.988   7.154  0.1108  0.0286 -0.3217
  810YOPS   C2B 9178  12.180  10.186   7.491 -0.1405 -0.0067  0.1137
  810YOPS   D3B 9179  12.194  10.350   7.744  0.2022 -0.2055  0.0326
  810YOPS   C4B 9180  12.588  10.605   7.718  0.1872  0.0299 -0.2268
  811YOPS   CNO 9181  15.095  14.567   5.085  0.1684 -0.1284  0.0674
  811YOPS   PO4 9182  14.794  14.518   5.484 -0.2508 -0.1218 -0.1413
  811YOPS   GL1 9183  14.708  14.513   5.868  0.1969 -0.0489  0.0890
  811YOPS   GL2 9184  14.598  14.899   5.950 -0.4007 -0.0140  0.1208
  811YOPS   C1A 9185  14.579  14.197   6.148 -0.0955 -0.0766  0.0725
  811YOPS   D2A 9186  14.490  14.031   6.562 -0.1236  0.0810 -0.3756
  811YOPS   C3A 9187  14.454  14.187   6.956  0.0543 -0.2083 -0.4995
  811YOPS   C4A 9188  14.815  14.406   7.227 -0.0076 -0.1501  0.1710
  811YOPS   C1B 9189  14.549  14.992   6.323 -0.1473 -0.0016 -0.2229
  811YOPS   C2B 9190  14.588  15.079   6.751  0.3242  0.2620  0.0507
  811YOPS   D3B 9191  14.567  14.919   7.097  0.2896  0.3990 -0.2367
  811YOPS   C4B 9192  14.272  14.628   7.085  0.2192  0.5593  0.0412
  812YOPS   CNO 9193   0.530   4.884   6.669 -0.0030  0.1888 -0.0848
  812YOPS   PO4 9194   0.603   5.201   6.582 -0.0783 -0.2058  0.0512
  812YOPS   GL1 9195   0.485   5.524   6.958 -0.1738 -0.0621 -0.2810
  812YOPS   GL2 9196   0.479   5.833   7.028  0.0466  0.2772 -0.0660
  812YOPS   C1A 9197   0.214   5.490   7.320 -0.1670  0.0998  0.0049
  812YOPS   D2A 9198   0.067   5.631   7.771 -0.1800 -0.0158  0.0577
  812YOPS   C3A 9199   0.268   5.640   8.126 -0.0208 -0.3365  0.0445
  812YOPS   C4A 9200   0.293   5.959   8.466  0.2320 -0.2263 -0.3156
  812YOPS   C1B 9201   0.755   5.786   7.359  0.0991 -0.1239 -0.1814
  812YOPS   C2B 9202   0.697   5.660   7.769  0.0249  0.0681 -0.0254
  812YOPS   D3B 9203   0.730   5.604   8.177  0.0598  0.0966 -0.0448
  812YOPS   C4B 9204   0.613   5.385   8.514  0.0150  0.1506 -0.0742
  813YOPS   CNO 9205   6.246  17.754   6.317 -0.1993  0.0096  0.0503
  813YOPS   PO4 9206   6.144  17.336   6.423 -0.1558 -0.2523  0.2503
  813YOPS   GL1 9207   6.091  17.539   6.829 -0.0558  0.0306 -0.0945
  813YOPS   GL2 9208   6.396  17.708   6.857 -0.1252 -0.0323 -0.1263
  813YOPS   C1A 9209   6.131  17.622   7.251 -0.0940  0.4978 -0.0303
  813YOPS   D2A 9210   6.052  17.644   7.687 -0.0871  0.6600 -0.0398
  813YOPS   C3A 9211   6.118  17.769   8.054 -0.1033 -0.0176 -0.2129
  813YOPS   C4A 9212   6.162  18.143   7.893  0.0104 -0.1225  0.2927
  813YOPS   C1B 9213   6.690  17.473   7.107 -0.0830 -0.3495  0.1077
  813YOPS   C2B 9214   6.890  17.617   7.475 -0.1844 -0.2471  0.3794
  813YOPS   D3B 9215   6.944  18.010   7.782  0.2965  0.0792  0.0746
  813YOPS   C4B 9216   7.377  18.115   7.947  0.3150 -0.1563 -0.0657
  814YOPS   CNO 9217  16.591  12.846   6.287  0.0921 -0.0421  0.2650
  814YOPS   PO4 9218  16.929  12.604   6.169 -0.2104 -0.0246 -0.2056
  814YOPS   GL1 9219  17.030  12.844   6.563  0.2820 -0.2493 -0.1836
  814YOPS   GL2 9220  17.039  12.651   6.900 -0.0173 -0.1192  0.3600
  814YOPS   C1A 9221  17.242  13.105   6.856  0.1913 -0.0585 -0.0003
  814YOPS   D2A 9222  17.782  13.172   6.795 -0.3824 -0.2789  0.0918
  814YOPS   C3A 9223  18.179  13.239   6.640  0.0836 -0.0186 -0.0999
  814YOPS   C4A 9224  18.511  13.451   6.693 -0.1534 -0.1488  0.3799
  814YOPS   C1B 9225  17.044  12.842   7.235 -0.1216 -0.2052 -0.0882
  814YOPS   C2B 9226  17.113  12.890   7.642 -0.1612  0.2075  0.2854
  814YOPS   D3B 9227  16.938  12.883   7.968  0.0984 -0.3124 -0.0523
  814YOPS   C4B 9228  17.159  12.956   8.372  0.0405 -0.0432 -0.0080
  815YOPS   CNO 9229  16.776   8.789   6.257 -0.0012  0.0549 -0.2116
  815YOPS   PO4 9230  17.177   8.965   6.141  0.2616  0.0529 -0.1549
  815YOPS   GL1 9231  17.194   9.000   6.606  0.0097 -0.2509  0.5820
  815YOPS   GL2 9232  17.420   8.889   6.746 -0.1593  0.0647 -0.1863
  815YOPS   C1A 9233  17.051   9.208   6.998 -0.3456  0.2354 -0.0161
  815YOPS   D2A 9234  17.121   9.178   7.391 -0.1033 -0.0605  0.0069
  815YOPS   C3A 9235  17.201   9.172   7.885 -0.2778  0.0084  0.0972
  815YOPS   C4A 9236  17.506   9.299   8.178 -0.1558 -0.0747  0.0659
  815YOPS   C1B 9237  17.624   8.916   7.198  0.0536 -0.3652 -0.0938
  815YOPS   C2B 9238  17.717   8.909   7.635 -0.1487 -0.1013  0.1732
  815YOPS   D3B 9239  17.760   8.853   8.065 -0.4386  0.0550 -0.0420
  815YOPS   C4B 9240  18.129   8.849   8.255  0.3581  0.1381  0.1452
  816YOPS   CNO 9241  14.651  11.694   6.335  0.1705 -0.0549 -0.0557
  816YOPS   PO4 9242  14.950  11.768   6.577  0.2045  0.0304  0.1001
  816YOPS   GL1 9243  14.960  11.996   6.940 -0.2514 -0.2385 -0.2975
  816YOPS   GL2 9244  14.824  12.359   6.853  0.1185  0.2216 -0.3370
  816YOPS   C1A 9245  14.816  12.080   7.387 -0.1065  0.0874  0.1354
  816YOPS   D2A 9246  14.485  12.190   7.709  0.0739 -0.0712  0.1384
  816YOPS   C3A 9247  14.347  12.445   8.016  0.0222  0.0985 -0.1526
  816YOPS   C4A 9248  14.737  12.571   8.156 -0.0767  0.2037 -0.1303
  816YOPS   C1B 9249  14.561  12.501   7.243 -0.0615  0.1265  0.1174
  816YOPS   C2B 9250  14.514  12.690   7.641 -0.0543  0.0795  0.3030
  816YOPS   D3B 9251  14.495  12.956   7.974 -0.1540 -0.3742  0.0032
  816YOPS   C4B 9252  14.453  12.957   8.404  0.2874 -0.1673  0.0247
  817YOPS   CNO 9253  14.626   7.964   6.789 -0.0480 -0.0286 -0.1059
  817YOPS   PO4 9254  14.963   7.705   6.853 -0.0909  0.2962 -0.0127
  817YOPS   GL1 9255  15.262   7.647   7.132 -0.1548  0.3382 -0.0226
  817YOPS   GL2 9256  14.974   7.608   7.419 -0.1668 -0.1879  0.1975
  817YOPS   C1A 9257  15.510   7.512   7.599 -0.1526 -0.0009 -0.3701
  817YOPS   D2A 9258  15.849   7.340   7.831 -0.1500 -0.2031  0.0641
  817YOPS   C3A 9259  15.837   7.090   8.214  0.2036  0.0964  0.2240
  817YOPS   C4A 9260  16.082   6.737   8.212 -0.0928 -0.1721 -0.0646
  817YOPS   C1B 9261  15.099   7.765   7.904  0.1293  0.3670  0.1381
  817YOPS   C2B 9262  15.306   7.894   8.141 -0.4496 -0.0144  0.1822
  817YOPS   D3B 9263  15.687   7.949   8.267  0.1897 -0.1857  0.0659
  817YOPS   C4B 9264  15.780   8.185   8.638 -0.1577  0.0898 -0.0107
  818YOPS   CNO 9265  17.296  16.399   5.863 -0.2042  0.0445  0.2132
  818YOPS   PO4 9266  17.107  16.651   6.237 -0.0823  0.0502 -0.1710
  818YOPS   GL1 9267  17.150  16.359   6.574 -0.0703 -0.1406 -0.2580
  818YOPS   GL2 9268  17.492  16.482   6.675  0.0684  0.2092  0.1010
  818YOPS   C1A 9269  16.951  16.033   6.700 -0.0428  0.1992 -0.0575
  818YOPS   D2A 9270  16.932  15.841   7.164  0.2601  0.0098  0.3019
  818YOPS   C3A 9271  16.934  15.860   7.613  0.1439  0.0510  0.1083
  818YOPS   C4A 9272  16.907  16.206   7.902  0.2385 -0.1387  0.0011
  818YOPS   C1B 9273  17.347  16.161   6.969  0.0039  0.1314  0.1094
  818YOPS   C2B 9274  17.343  16.138   7.367  0.4005  0.4448  0.2489
  818YOPS   D3B 9275  17.338  16.126   7.806  0.0788 -0.0254  0.1523
  818YOPS   C4B 9276  17.545  16.523   7.897  0.0859 -0.1531  0.0202
  819YOPS   CNO 9277   3.148  15.401   5.832 -0.1903 -0.2696  0.0518
  819YOPS   PO4 9278   2.841  15.012   5.869 -0.0612  0.0569 -0.0067
  819YOPS   GL1 9279   2.637  14.991   6.254  0.0623  0.0778 -0.1301
  819YOPS   GL2 9280   2.363  14.978   6.264  0.2142  0.2335 -0.0005
  819YOPS   C1A 9281   2.576  14.878   6.740  0.2409  0.1538 -0.3127
  819YOPS   D2A 9282   2.352  14.722   7.111  0.2180  0.0327 -0.0204
  819YOPS   C3A 9283   2.022  14.820   7.273 -0.1475  0.1318  0.1650
  819YOPS   C4A 9284   1.853  14.470   7.556  0.1659 -0.2458 -0.0606
  819YOPS   C1B 9285   2.033  15.161   6.443  0.0097 -0.0617  0.0788
  819YOPS   C2B 9286   2.086  15.191   6.815  0.1661  0.0466  0.0708
  819YOPS   D3B 9287   2.320  15.277   7.213 -0.0798  0.0774  0.0876
  819YOPS   C4B 9288   2.393  15.029   7.537 -0.0855  0.3085  0.0494
  820YOPS   CNO 9289  11.753   9.931   5.876 -0.2808 -0.0148 -0.1255
  820YOPS   PO4 9290  11.865  10.232   6.199  0.3549  0.1694 -0.3017
  820YOPS   GL1 9291  12.111  10.316   6.484  0.1420 -0.2703  0.1220
  820YOPS   GL2 9292  11.872  10.096   6.659  0.1440 -0.1756  0.2682
  820YOPS   C1A 9293  12.455  10.442   6.829  0.1863 -0.1397 -0.0395
  820YOPS   D2A 9294  12.460  10.607   7.207 -0.1923  0.0886 -0.2158
  820YOPS   C3A 9295  12.190  10.827   7.491  0.2199  0.2442  0.3695
  820YOPS   C4A 9296  11.988  10.815   7.919  0.1885  0.2231 -0.0900
  820YOPS   C1B 9297  11.808  10.032   7.048 -0.1840 -0.0288  0.0212
  820YOPS   C2B 9298  11.692  10.053   7.517  0.1869 -0.0626 -0.2113
  820YOPS   D3B 9299  11.713  10.197   7.996  0.1152  0.0990  0.1378
  820YOPS   C4B 9300  12.122  10.127   8.175  0.4261  0.0340  0.0384
  821YOPS   CNO 9301  17.886  14.853   5.917 -0.0454 -0.1424 -0.1108
  821YOPS   PO4 9302  18.118  14.495   5.836 -0.4870  0.0270 -0.2884
  821YOPS   GL1 9303  17.994  14.505   6.250 -0.0786 -0.2370 -0.1220
  821YOPS   GL2 9304  17.930  14.222   6.326 -0.2167 -0.3761 -0.0020
  821YOPS   C1A 9305  18.106  14.842   6.642 -0.0827 -0.0852 -0.2449
  821YOPS   D2A 9306  18.492  15.025   6.754 -0.1745 -0.1785 -0.0034
  821YOPS   C3A 9307  18.846  15.256   6.631  0.0138  0.2204  0.0518
  821YOPS   C4A 9308  18.850  15.716   6.715  0.1239 -0.0815 -0.0680
  821YOPS   C1B 9309  17.779  14.152   6.727 -0.1016  0.1371 -0.2360
  821YOPS   C2B 9310  17.401  14.117   7.042 -0.0026 -0.1712  0.1022
  821YOPS   D3B 9311  17.272  14.260   7.468  0.1860  0.0055  0.1422
  821YOPS   C4B 9312  16.949  14.231   7.618 -0.0614 -0.0795 -0.3106
  822YOPS   CNO 9313  11.991   3.927   6.030 -0.1352 -0.1056  0.0182
  822YOPS   PO4 9314  12.265   4.113   5.765 -0.2061 -0.1312 -0.1852
  822YOPS   GL1 9315  12.274   4.262   6.267 -0.1020  0.0791  0.1237
  822YOPS   GL2 9316  12.346   3.936   6.465 -0.4861 -0.2832 -0.3996
  822YOPS   C1A 9317  12.090   4.361   6.621  0.0620  0.2382  0.1436
  822YOPS   D2A 9318  11.886   4.200   6.948 -0.0614  0.1751  0.0228
  822YOPS   C3A 9319  11.979   4.120   7.365  0.2454  0.0886 -0.1110
  822YOPS   C4A 9320  11.936   4.397   7.691 -0.0432 -0.0766 -0.1425
  822YOPS   C1B 9321  12.270   3.902   6.971 -0.0808 -0.0756 -0.2361
  822YOPS   C2B 9322  12.456   3.880   7.375 -0.1599  0.3203 -0.0576
  822YOPS   D3B 9323  12.414   4.026   7.755  0.0062 -0.3341  0.1163
  822YOPS   C4B 9324  12.407   4.444   7.885 -0.1071 -0.0511 -0.1524
  823YOPS   CNO 9325   3.590  11.544   5.980  0.0012  0.0761  0.1081
  823YOPS   PO4 9326   3.994  11.311   6.162 -0.1978 -0.1993  0.0542
  823YOPS   GL1 9327   4.167  11.035   6.492 -0.0270 -0.3808  0.2502
  823YOPS   GL2 9328   3.887  11.042   6.605  0.3120  0.1641 -0.0397
  823YOPS   C1A 9329   4.336  10.940   6.853 -0.0496 -0.0665 -0.2652
  823YOPS   D2A 9330   4.207  10.971   7.324 -0.1916  0.3996  0.1249
  823YOPS   C3A 9331   4.094  10.895   7.750  0.3258  0.1091  0.1540
  823YOPS   C4A 9332   4.015  10.577   7.953  0.0279  0.2044  0.0571
  823YOPS   C1B 9333   3.884  11.152   7.033  0.0759  0.1764  0.3445
  823YOPS   C2B 9334   3.750  11.018   7.417  0.1742 -0.0187  0.0379
  823YOPS   D3B 9335   3.606  10.758   7.756  0.3383 -0.1410 -0.0540
  823YOPS   C4B 9336   3.170  10.733   7.891  0.0980  0.0943 -0.0777
  824YOPS   CNO 9337   2.882   1.631   6.258  0.0488 -0.1603 -0.1330
  824YOPS   PO4 9338   3.012   1.342   6.481 -0.1226 -0.1763  0.0986
  824YOPS   GL1 9339   3.111   1.346   6.918 -0.0298  0.1578  0.0614
  824YOPS   GL2 9340   2.745   1.102   6.925 -0.0307  0.1167 -0.3535
  824YOPS   C1A 9341   3.019   1.359   7.239 -0.1605 -0.0915 -0.2629
  824YOPS   D2A 9342   2.924   1.320   7.624  0.3015  0.1483 -0.0133
  824YOPS   C3A 9343   2.926   1.521   8.001  0.0710  0.0530 -0.2029
  824YOPS   C4A 9344   3.074   1.590   8.381  0.0923 -0.0511 -0.1079
  824YOPS   C1B 9345   2.746   0.914   7.316 -0.1204 -0.0642  0.3603
  824YOPS   C2B 9346   2.530   1.054   7.589  0.4611  0.1746 -0.1508
  824YOPS   D3B 9347   2.264   0.835   7.929  0.1801 -0.1981 -0.1615
  824YOPS   C4B 9348   2.481   0.693   8.350 -0.1432  0.0169  0.0194
  825YOPS   CNO 9349  17.881   2.918   6.245 -0.2154 -0.1570 -0.3502
  825YOPS   PO4 9350  17.604   2.683   6.449 -0.2107 -0.1033  0.0333
  825YOPS   GL1 9351  17.587   2.812   6.898  0.2712 -0.2184  0.0531
  825YOPS   GL2 9352  17.751   2.676   7.072 -0.4533 -0.0047  0.1307
  825YOPS   C1A 9353  17.475   3.064   7.224  0.1365  0.2600 -0.3097
  825YOPS   D2A 9354  17.501   3.221   7.585 -0.1564 -0.4124  0.3911
  825YOPS   C3A 9355  17.635   3.081   7.991 -0.0341  0.3243  0.2027
  825YOPS   C4A 9356  17.842   3.312   8.358 -0.1315 -0.3147 -0.2077
  825YOPS   C1B 9357  17.754   2.698   7.520  0.0297 -0.4404 -0.2408
  825YOPS   C2B 9358  18.082   2.475   7.717  0.0365  0.1258 -0.0370
  825YOPS   D3B 9359  18.367   2.390   8.022 -0.2903 -0.0280 -0.2401
  825YOPS   C4B 9360  18.730   2.095   8.006  0.0026  0.2486  0.0782
  826YOPS   CNO 9361  15.456  12.206   6.161 -0.2955 -0.4020  0.0093
  826YOPS   PO4 9362  15.585  12.702   6.035 -0.2553 -0.2936 -0.1019
  826YOPS   GL1 9363  15.323  12.688   6.468  0.1678  0.0195 -0.0598
  826YOPS   GL2 9364  15.252  13.105   6.623  0.1320 -0.3000 -0.2790
  826YOPS   C1A 9365  15.325  12.610   6.928 -0.3060  0.2115 -0.0867
  826YOPS   D2A 9366  15.135  12.568   7.305 -0.2323 -0.0926  0.0003
  826YOPS   C3A 9367  15.005  12.482   7.697 -0.0071  0.1440  0.1942
  826YOPS   C4A 9368  14.948  12.973   7.799 -0.0921 -0.0817 -0.0287
  826YOPS   C1B 9369  15.309  13.120   7.003  0.2663 -0.0637  0.0061
  826YOPS   C2B 9370  15.236  13.020   7.393 -0.1141 -0.2845 -0.0473
  826YOPS   D3B 9371  15.434  12.771   7.668  0.0701  0.1453  0.1488
  826YOPS   C4B 9372  15.739  12.901   7.875  0.3386 -0.2381 -0.0107
  827YOPS   CNO 9373  14.080   1.630   6.153 -0.1874  0.1625  0.1644
  827YOPS   PO4 9374  13.757   1.798   6.162 -0.0465 -0.0413  0.1493
  827YOPS   GL1 9375  13.902   1.807   6.579  0.0468  0.2037  0.1471
  827YOPS   GL2 9376  13.834   1.997   6.775  0.1960 -0.1057  0.4519
  827YOPS   C1A 9377  14.094   1.560   6.795 -0.2790  0.0793  0.0910
  827YOPS   D2A 9378  14.308   1.506   7.168  0.0311  0.1752  0.1017
  827YOPS   C3A 9379  14.318   1.244   7.477 -0.0487 -0.4536 -0.1187
  827YOPS   C4A 9380  13.957   1.201   7.641 -0.0732  0.4754 -0.0631
  827YOPS   C1B 9381  13.766   2.277   7.215  0.3477 -0.1316  0.1311
  827YOPS   C2B 9382  13.962   2.330   7.636  0.1270 -0.2732  0.1551
  827YOPS   D3B 9383  14.010   2.672   7.866 -0.2126 -0.0146  0.2570
  827YOPS   C4B 9384  14.200   2.401   8.034 -0.0331 -0.3401 -0.0723
  828YOPS   CNO 9385   8.992  17.839   5.276  0.1542 -0.0934 -0.0728
  828YOPS   PO4 9386   9.226  18.286   5.405 -0.0192 -0.0910  0.0652
  828YOPS   GL1 9387   9.334  18.493   5.822 -0.3285 -0.0707 -0.0694
  828YOPS   GL2 9388   9.603  18.675   6.090  0.0540  0.3631 -0.0119
  828YOPS   C1A 9389   9.148  18.445   6.266  0.0629  0.2149 -0.1696
  828YOPS   D2A 9390   8.969  18.337   6.622 -0.1794 -0.0102 -0.0255
  828YOPS   C3A 9391   9.042  18.264   7.014 -0.0216  0.1616 -0.1756
  828YOPS   C4A 9392   9.276  17.988   7.194  0.0362  0.1046  0.0123
  828YOPS   C1B 9393   9.426  18.858   6.505  0.1790 -0.0827  0.0984
  828YOPS   C2B 9394   9.273  18.685   6.928 -0.4556  0.0083 -0.2113
  828YOPS   D3B 9395   9.350  18.892   7.273 -0.0629  0.1628  0.1667
  828YOPS   C4B 9396   9.332  18.697   7.702  0.1187  0.1633 -0.0867
  829YOPS   CNO 9397  17.094   6.334   6.609  0.0819 -0.0794 -0.3458
  829YOPS   PO4 9398  17.421   6.253   6.797  0.1629  0.3065 -0.0956
  829YOPS   GL1 9399  17.421   5.850   6.853  0.0328  0.4870 -0.0968
  829YOPS   GL2 9400  17.099   5.876   6.896  0.0487 -0.1598  0.0568
  829YOPS   C1A 9401  17.628   5.776   7.202 -0.1565  0.1344  0.3063
  829YOPS   D2A 9402  17.593   5.628   7.538  0.0021 -0.3957 -0.1397
  829YOPS   C3A 9403  17.845   5.598   7.946  0.2505 -0.0359 -0.3072
  829YOPS   C4A 9404  17.570   5.531   8.332  0.0088  0.1898  0.3019
  829YOPS   C1B 9405  17.099   6.002   7.351 -0.0045  0.2369  0.0003
  829YOPS   C2B 9406  16.992   5.926   7.626  0.2769  0.2490  0.1145
  829YOPS   D3B 9407  16.918   6.018   8.049 -0.0149 -0.1056 -0.2420
  829YOPS   C4B 9408  17.179   5.865   8.408  0.4726 -0.2001 -0.2485
  830YOPS   CNO 9409   2.203  12.230   5.877 -0.1025 -0.2333 -0.0128
  830YOPS   PO4 9410   2.600  12.278   5.993  0.1720  0.1589  0.0598
  830YOPS   GL1 9411   2.773  12.312   6.390 -0.0530  0.1926  0.1420
  830YOPS   GL2 9412   3.166  12.340   6.399 -0.0053  0.2188  0.2387
  830YOPS   C1A 9413   2.933  12.218   6.790  0.2060 -0.0063 -0.3687
  830YOPS   D2A 9414   2.821  12.211   7.287  0.3519 -0.0443 -0.2889
  830YOPS   C3A 9415   3.087  12.239   7.559 -0.0707 -0.1422 -0.2118
  830YOPS   C4A 9416   3.482  12.083   7.374 -0.3375 -0.0283 -0.0530
  830YOPS   C1B 9417   3.522  12.083   6.701  0.1588 -0.0582  0.0127
  830YOPS   C2B 9418   3.773  12.225   6.982 -0.1073  0.5820 -0.0547
  830YOPS   D3B 9419   3.773  12.503   7.380  0.0401  0.3535  0.0703
  830YOPS   C4B 9420   3.832  12.906   7.550  0.0547 -0.3494 -0.2544
  831YOPS   CNO 9421  17.809  18.120   6.173 -0.2726  0.1875  0.2340
  831YOPS   PO4 9422  17.619  18.428   6.394 -0.0500 -0.2732  0.1466
  831YOPS   GL1 9423  17.477  18.406   6.785  0.1216  0.2336  0.0103
  831YOPS   GL2 9424  17.180  18.177   6.774 -0.0502 -0.1411  0.1301
  831YOPS   C1A 9425  17.497  18.479   7.185  0.0815 -0.1124  0.3442
  831YOPS   D2A 9426  17.297  18.551   7.577 -0.0661  0.0938  0.1066
  831YOPS   C3A 9427  17.145  18.834   7.901  0.0000  0.1174 -0.0980
  831YOPS   C4A 9428  16.802  19.008   8.157  0.0429  0.2300  0.4684
  831YOPS   C1B 9429  16.912  17.903   6.946 -0.3151 -0.0510 -0.0800
  831YOPS   C2B 9430  16.700  17.695   7.101  0.1654  0.1472 -0.1943
  831YOPS   D3B 9431  16.540  17.519   7.503  0.0422 -0.1096 -0.1180
  831YOPS   C4B 9432  16.269  17.159   7.734  0.0979  0.1841 -0.0988
  832YOPS   CNO 9433  18.056   4.593   6.331  0.3659 -0.1910 -0.0194
  832YOPS   PO4 9434  17.723   4.941   6.404 -0.0371  0.0307  0.2130
  832YOPS   GL1 9435  17.917   4.747   6.817 -0.1307  0.1261 -0.0782
  832YOPS   GL2 9436  18.159   4.933   6.899  0.1672  0.1133 -0.3904
  832YOPS   C1A 9437  17.759   4.683   7.273 -0.4843  0.0562  0.0792
  832YOPS   D2A 9438  17.572   4.523   7.699  0.1818 -0.1398 -0.0370
  832YOPS   C3A 9439  17.445   4.729   7.934  0.0168  0.1449 -0.1244
  832YOPS   C4A 9440  17.162   4.656   8.178  0.1452 -0.2800  0.1593
  832YOPS   C1B 9441  18.222   5.071   7.321 -0.0751  0.1531  0.2419
  832YOPS   C2B 9442  18.246   5.238   7.687  0.0748  0.0116 -0.0529
  832YOPS   D3B 9443  18.210   5.396   8.134  0.0951  0.1323 -0.0014
  832YOPS   C4B 9444  18.535   5.398   8.476  0.1046  0.4288 -0.1356
  833YOPS   CNO 9445  11.099   3.634   5.823 -0.1919 -0.2916 -0.2924
  833YOPS   PO4 9446  11.246   3.180   5.881  0.0312 -0.0575 -0.2341
  833YOPS   GL1 9447  11.202   3.032   6.318 -0.2638  0.2331  0.0598
  833YOPS   GL2 9448  10.852   2.944   6.396  0.0589  0.3958  0.2057
  833YOPS   C1A 9449  11.345   2.953   6.733 -0.1348  0.1834 -0.1332
  833YOPS   D2A 9450  11.281   2.809   7.074  0.0409 -0.1880 -0.1482
  833YOPS   C3A 9451  11.309   2.627   7.552 -0.0966 -0.0844 -0.1481
  833YOPS   C4A 9452  11.437   2.320   7.849 -0.0690  0.2455  0.1934
  833YOPS   C1B 9453  10.838   2.887   6.813  0.0446 -0.2074 -0.3174
  833YOPS   C2B 9454  10.740   3.048   7.247  0.0583 -0.0976  0.0367
  833YOPS   D3B 9455  10.428   3.075   7.565  0.2388  0.2811  0.2413
  833YOPS   C4B 9456  10.257   2.625   7.673 -0.0306  0.2624 -0.1820
  834YOPS   CNO 9457  13.096   9.878   6.169  0.3606  0.1851 -0.0669
  834YOPS   PO4 9458  13.010   9.510   6.297 -0.2529 -0.1917 -0.2607
  834YOPS   GL1 9459  12.976   9.620   6.667 -0.0444  0.1579  0.0647
  834YOPS   GL2 9460  12.916   9.876   6.664  0.1953  0.3522  0.2254
  834YOPS   C1A 9461  12.728   9.658   7.112  0.0721  0.0134 -0.0591
  834YOPS   D2A 9462  12.461   9.716   7.537 -0.0326 -0.3193  0.1280
  834YOPS   C3A 9463  12.408   9.863   7.920 -0.2024 -0.0666 -0.0971
  834YOPS   C4A 9464  12.604  10.222   8.080  0.2428 -0.2444 -0.1585
  834YOPS   C1B 9465  12.873  10.216   6.991 -0.3440  0.1166 -0.0672
  834YOPS   C2B 9466  12.677  10.182   7.456  0.0394 -0.0348 -0.4551
  834YOPS   D3B 9467  12.875   9.901   7.733  0.1628 -0.0890 -0.0296
  834YOPS   C4B 9468  13.105   9.940   8.042 -0.0630 -0.0092  0.1749
  835YOPS   CNO 9469   5.681  11.628   5.959  0.2177  0.0077  0.1572
  835YOPS   PO4 9470   5.357  11.812   5.658 -0.2778 -0.2253  0.1855
  835YOPS   GL1 9471   5.246  11.807   6.133  0.0638 -0.2766 -0.1310
  835YOPS   GL2 9472   5.306  11.416   6.218 -0.0437 -0.4021  0.4393
  835YOPS   C1A 9473   5.035  11.796   6.468 -0.0080 -0.2872  0.3481
  835YOPS   D2A 9474   4.841  11.717   6.871 -0.0817 -0.0775 -0.2213
  835YOPS   C3A 9475   4.662  11.706   7.253  0.2469  0.1594 -0.2379
  835YOPS   C4A 9476   4.689  11.964   7.513  0.1506 -0.1851  0.0923
  835YOPS   C1B 9477   5.240  11.453   6.678 -0.0908  0.0573  0.0959
  835YOPS   C2B 9478   5.219  11.510   7.100 -0.1383  0.1545 -0.0339
  835YOPS   D3B 9479   5.085  11.526   7.550 -0.0751  0.1460 -0.0719
  835YOPS   C4B 9480   5.392  11.335   7.822  0.0300  0.0619  0.1621
  836YOPS   CNO 9481  10.172   6.707   6.264  0.2070  0.1018 -0.0043
  836YOPS   PO4 9482  10.497   6.851   6.304 -0.2356 -0.1769  0.3293
  836YOPS   GL1 9483  10.342   7.050   6.720  0.1911 -0.0714  0.1885
  836YOPS   GL2 9484  10.074   7.242   6.847 -0.0747  0.2394 -0.3324
  836YOPS   C1A 9485  10.090   6.890   7.160 -0.1315 -0.1938 -0.3939
  836YOPS   D2A 9486   9.850   6.924   7.632  0.0228  0.1886  0.1539
  836YOPS   C3A 9487   9.674   6.658   8.054 -0.0802 -0.0716  0.0029
  836YOPS   C4A 9488  10.007   6.518   8.380  0.0811  0.2616  0.2876
  836YOPS   C1B 9489  10.041   7.367   7.263 -0.2381  0.0352 -0.2584
  836YOPS   C2B 9490  10.118   7.443   7.729  0.1197  0.2465 -0.1144
  836YOPS   D3B 9491   9.912   7.299   8.190  0.2881  0.2118  0.1889
  836YOPS   C4B 9492   9.596   7.480   8.481  0.2213  0.0591 -0.1341
  837YOPS   CNO 9493  10.529   2.328   5.209  0.1043  0.2360 -0.0542
  837YOPS   PO4 9494  10.671   2.468   5.649 -0.0245 -0.2048  0.3259
  837YOPS   GL1 9495  10.617   2.599   6.003  0.1242 -0.3045  0.1711
  837YOPS   GL2 9496  10.700   2.433   6.361  0.3160 -0.2417  0.3399
  837YOPS   C1A 9497  10.300   2.773   6.266  0.0725 -0.1494 -0.1417
  837YOPS   D2A 9498  10.188   2.822   6.636  0.0052  0.3062  0.0996
  837YOPS   C3A 9499  10.305   2.841   7.056  0.0233  0.2708 -0.0088
  837YOPS   C4A 9500   9.987   2.933   7.373 -0.0512 -0.1380  0.1188
  837YOPS   C1B 9501  10.567   2.389   6.740 -0.3733 -0.1744 -0.0743
  837YOPS   C2B 9502  10.478   2.341   7.160 -0.0036  0.1377 -0.3203
  837YOPS   D3B 9503  10.433   2.210   7.547 -0.2192  0.0097 -0.1419
  837YOPS   C4B 9504  10.138   1.954   7.758 -0.2115  0.0669 -0.1079
  838YOPS   CNO 9505   2.487   5.427   5.787  0.0492  0.0510 -0.1133
  838YOPS   PO4 9506   2.589   5.306   6.181 -0.0319  0.0522 -0.3981
  838YOPS   GL1 9507   2.528   5.517   6.638  0.1801 -0.0056  0.0301
  838YOPS   GL2 9508   2.477   5.863   6.777  0.0132  0.2321  0.0733
  838YOPS   C1A 9509   2.480   5.410   7.055  0.0665 -0.1447 -0.4820
  838YOPS   D2A 9510   2.463   5.213   7.426 -0.1747  0.2686 -0.0813
  838YOPS   C3A 9511   2.476   4.966   7.823 -0.4933  0.0349 -0.0192
  838YOPS   C4A 9512   2.371   4.615   8.049 -0.0890  0.2741  0.2043
  838YOPS   C1B 9513   2.417   5.927   7.326  0.0821 -0.1124 -0.1417
  838YOPS   C2B 9514   2.424   5.928   7.727 -0.1672 -0.0728 -0.1251
  838YOPS   D3B 9515   2.410   6.236   8.048  0.0540  0.1061 -0.1078
  838YOPS   C4B 9516   2.149   6.233   8.353 -0.0067 -0.0598 -0.1825
  839POPE   NH3 9517   8.809   1.960   5.650  0.0247  0.0019  0.2390
  839POPE   PO4 9518   8.414   1.969   5.778 -0.1246  0.0177  0.0808
  839POPE   GL1 9519   8.300   1.919   6.201  0.0908  0.1353 -0.1526
  839POPE   GL2 9520   8.543   1.646   6.263 -0.3076 -0.3338  0.1272
  839POPE   C1A 9521   8.231   1.973   6.716 -0.1347  0.0608 -0.0721
  839POPE   D2A 9522   8.144   2.329   6.929 -0.0594  0.3509 -0.0511
  839POPE   C3A 9523   8.120   2.512   7.395  0.3375 -0.3106 -0.0309
  839POPE   C4A 9524   7.756   2.763   7.597 -0.1165  0.2880 -0.0090
  839POPE   C1B 9525   8.674   1.624   6.625  0.2791  0.1342 -0.0842
  839POPE   C2B 9526   8.656   1.629   7.100  0.0512 -0.1663 -0.1614
  839POPE   C3B 9527   8.558   1.599   7.509  0.1862  0.0168  0.4787
  839POPE   C4B 9528   8.231   1.282   7.767 -0.1914 -0.3086  0.0408
  840POPE   NH3 9529   1.382  12.047   5.837  0.3129  0.1169  0.1006
  840POPE   PO4 9530   1.015  12.049   5.960 -0.2026  0.2480  0.2592
  840POPE   GL1 9531   1.122  12.228   6.311  0.0323 -0.3031 -0.2398
  840POPE   GL2 9532   1.104  11.930   6.420  0.2884 -0.1302  0.3567
  840POPE   C1A 9533   0.890  12.444   6.627  0.2615  0.0960  0.0467
  840POPE   D2A 9534   0.476  12.703   6.749  0.0818  0.2509  0.1565
  840POPE   C3A 9535   0.429  13.150   6.853  0.2868  0.0879  0.3430
  840POPE   C4A 9536   0.741  13.518   6.943 -0.1548  0.0299 -0.0399
  840POPE   C1B 9537   1.114  11.964   6.775  0.0162  0.1574 -0.2204
  840POPE   C2B 9538   0.883  12.078   7.147 -0.1440  0.1904  0.2111
  840POPE   C3B 9539   0.770  12.136   7.574  0.0890 -0.2493 -0.1963
  840POPE   C4B 9540   0.931  12.437   7.932  0.0902  0.4073 -0.1169
  841POPE   NH3 9541   5.825  13.094   5.674  0.0259 -0.0137 -0.0607
  841POPE   PO4 9542   5.830  13.495   5.865  0.2030 -0.0181 -0.1585
  841POPE   GL1 9543   5.907  13.690   6.244 -0.4770  0.2799 -0.1273
  841POPE   GL2 9544   6.152  13.947   6.296 -0.3416  0.0940 -0.1189
  841POPE   C1A 9545   5.887  13.793   6.732 -0.3168 -0.2463  0.0793
  841POPE   D2A 9546   6.183  13.857   7.053  0.0876  0.0432  0.1241
  841POPE   C3A 9547   6.154  13.574   7.392 -0.1940  0.0347  0.1249
  841POPE   C4A 9548   6.010  13.186   7.517 -0.2868  0.0962 -0.0363
  841POPE   C1B 9549   6.445  13.815   6.647 -0.0103  0.0140 -0.2495
  841POPE   C2B 9550   6.647  13.790   7.161  0.0637 -0.1149  0.1794
  841POPE   C3B 9551   6.504  13.996   7.467  0.3261 -0.1158  0.0442
  841POPE   C4B 9552   6.070  14.116   7.627 -0.2310  0.0605  0.0437
  842POPE   NH3 9553   4.527   4.288   6.077  0.0699  0.3075 -0.2637
  842POPE   PO4 9554   4.469   3.878   5.861 -0.0549 -0.3746  0.3169
  842POPE   GL1 9555   4.560   3.775   6.265  0.0949  0.0990 -0.2650
  842POPE   GL2 9556   4.495   3.534   6.342  0.2754  0.0124  0.1262
  842POPE   C1A 9557   4.747   3.886   6.663 -0.1749 -0.0791  0.1455
  842POPE   D2A 9558   4.913   4.013   7.086  0.2213  0.0396 -0.0668
  842POPE   C3A 9559   5.229   4.111   7.460 -0.0442 -0.6103 -0.2754
  842POPE   C4A 9560   5.569   4.002   7.763 -0.1188  0.1288 -0.0493
  842POPE   C1B 9561   4.584   3.404   6.769  0.1301 -0.3161  0.0652
  842POPE   C2B 9562   4.706   3.535   7.245  0.1467  0.0905  0.4044
  842POPE   C3B 9563   4.649   3.638   7.702 -0.0854 -0.2309 -0.1428
  842POPE   C4B 9564   4.410   3.702   8.135  0.1108  0.1742  0.0236
  843POPE   NH3 9565   9.970  14.462   5.820 -0.1822  0.0714 -0.1979
  843POPE   PO4 9566  10.327  14.718   5.766 -0.1534  0.0798  0.1085
  843POPE   GL1 9567  10.414  14.882   6.148 -0.2088 -0.0376  0.2131
  843POPE   GL2 9568  10.063  14.900   6.332  0.2029 -0.2532  0.0606
  843POPE   C1A 9569  10.471  15.051   6.539  0.0700 -0.0130  0.1171
  843POPE   D2A 9570  10.670  15.149   6.794  0.3042 -0.0192  0.2086
  843POPE   C3A 9571  10.664  15.371   7.132  0.0896  0.1200 -0.2168
  843POPE   C4A 9572  10.518  15.414   7.622 -0.4960 -0.2224  0.0191
  843POPE   C1B 9573   9.971  14.926   6.809 -0.1813 -0.1689 -0.0763
  843POPE   C2B 9574   9.912  14.664   7.220 -0.2524 -0.0443 -0.1434
  843POPE   C3B 9575  10.285  14.462   7.429  0.0537  0.2513  0.1038
  843POPE   C4B 9576  10.654  14.386   7.348 -0.1829 -0.1856  0.0158
  844POPE   NH3 9577   9.475   9.246   6.337  0.0765 -0.4546 -0.0135
  844POPE   PO4 9578   9.059   9.495   6.405 -0.2020 -0.2308  0.1480
  844POPE   GL1 9579   9.241   9.626   6.845  0.1983 -0.2000  0.1480
  844POPE   GL2 9580   9.322   9.254   6.802 -0.0679 -0.1428 -0.2461
  844POPE   C1A 9581   9.211   9.715   7.276 -0.1884  0.1516 -0.0300
  844POPE   D2A 9582   9.104   9.755   7.618  0.0906  0.1218 -0.0299
  844POPE   C3A 9583   9.343   9.474   7.848  0.1479 -0.1227 -0.3339
  844POPE   C4A 9584   9.189   9.263   8.024  0.1690 -0.0289 -0.1343
  844POPE   C1B 9585   9.309   9.262   7.233 -0.0895  0.0329  0.2307
  844POPE   C2B 9586   9.382   9.048   7.610 -0.1421 -0.0332 -0.3104
  844POPE   C3B 9587   9.570   8.906   8.037  0.0478 -0.1293 -0.2337
  844POPE   C4B 9588   9.968   8.943   8.203  0.1696  0.2037  0.1285
  845POPE   NH3 9589   4.545   0.073   6.089  0.0882 -0.1321  0.0901
  845POPE   PO4 9590   4.736  -0.074   6.336  0.2529  0.3539 -0.0385
  845POPE   GL1 9591   4.766   0.113   6.738  0.4178  0.0351 -0.0593
  845POPE   GL2 9592   4.653   0.439   6.687  0.2622 -0.1363 -0.2011
  845POPE   C1A 9593   4.701   0.320   7.171  0.1282 -0.0705  0.2724
  845POPE   D2A 9594   4.627   0.527   7.475 -0.0325  0.0428 -0.1342
  845POPE   C3A 9595   4.481   0.675   7.833  0.2896 -0.0731 -0.0124
  845POPE   C4A 9596   4.135   0.797   8.095 -0.2621 -0.0473 -0.1363
  845POPE   C1B 9597   4.586   0.781   6.944 -0.1007  0.2877  0.3406
  845POPE   C2B 9598   4.496   1.041   7.302  0.1626  0.0673  0.1463
  845POPE   C3B 9599   4.777   1.046   7.657 -0.0556 -0.1234 -0.0287
  845POPE   C4B 9600   4.753   1.135   8.011 -0.1894  0.0339 -0.1503
  846POPE   NH3 9601   5.551   6.839   6.018 -0.0479  0.1918  0.0282
  846POPE   PO4 9602   5.313   7.091   5.852 -0.0939  0.1968  0.1562
  846POPE   GL1 9603   5.120   6.987   6.295 -0.2018 -0.0304  0.2647
  846POPE   GL2 9604   4.891   7.205   6.216  0.2085  0.4254  0.1896
  846POPE   C1A 9605   5.295   7.101   6.678 -0.0768 -0.1492 -0.1488
  846POPE   D2A 9606   5.422   7.340   7.097 -0.0332 -0.1357 -0.0817
  846POPE   C3A 9607   5.350   7.239   7.394  0.0306  0.1274  0.1682
  846POPE   C4A 9608   5.427   7.117   7.761  0.2657  0.1200  0.0779
  846POPE   C1B 9609   4.788   7.071   6.671 -0.0502 -0.1849  0.0094
  846POPE   C2B 9610   4.956   7.100   7.014 -0.1136  0.2328 -0.1110
  846POPE   C3B 9611   4.885   7.359   7.451 -0.2036  0.2687 -0.1189
  846POPE   C4B 9612   4.772   7.522   7.941  0.0508 -0.4711 -0.0541
  847POPE   NH3 9613  10.118   5.352   6.298  0.0784 -0.2598 -0.0072
  847POPE   PO4 9614   9.925   5.619   6.181  0.0044 -0.1804  0.1505
  847POPE   GL1 9615   9.946   5.762   6.539  0.4238  0.0635  0.2517
  847POPE   GL2 9616   9.686   5.889   6.615  0.1126  0.3136 -0.2868
  847POPE   C1A 9617  10.058   5.800   6.961 -0.1287  0.5175 -0.4506
  847POPE   D2A 9618   9.997   5.687   7.353 -0.1263  0.0937 -0.0576
  847POPE   C3A 9619  10.024   6.002   7.628 -0.1523  0.1006 -0.0751
  847POPE   C4A 9620  10.371   6.102   7.813 -0.0963 -0.3008 -0.0957
  847POPE   C1B 9621   9.238   5.866   6.798  0.1201  0.1027  0.0115
  847POPE   C2B 9622   9.017   5.761   7.218 -0.3592 -0.2493  0.2779
  847POPE   C3B 9623   9.066   5.829   7.597  0.0806  0.0098 -0.3088
  847POPE   C4B 9624   9.281   5.982   7.990  0.0017 -0.0099  0.0615
  848POPE   NH3 9625   4.395   8.589   5.959  0.0981 -0.1355  0.1097
  848POPE   PO4 9626   4.156   8.943   6.302  0.2443 -0.0497 -0.2309
  848POPE   GL1 9627   4.093   8.435   6.381 -0.2957  0.4046 -0.1044
  848POPE   GL2 9628   3.773   8.221   6.420  0.1237 -0.0751 -0.0706
  848POPE   C1A 9629   4.161   8.218   6.760 -0.4326 -0.4011  0.2920
  848POPE   D2A 9630   4.210   7.860   7.068  0.0082  0.1765 -0.1489
  848POPE   C3A 9631   4.091   8.009   7.515 -0.0326  0.0703  0.2158
  848POPE   C4A 9632   4.234   8.225   7.864  0.0406  0.1895  0.1996
  848POPE   C1B 9633   3.706   7.960   6.785 -0.0906  0.0539 -0.2879
  848POPE   C2B 9634   3.639   7.967   7.263  0.1284 -0.1835  0.2811
  848POPE   C3B 9635   3.636   8.059   7.675  0.0340  0.0865 -0.0433
  848POPE   C4B 9636   3.701   7.694   8.018 -0.0059 -0.0037 -0.2618
  849POPE   NH3 9637  10.229   2.183   5.667  0.1667  0.4105 -0.1969
  849POPE   PO4 9638   9.896   1.926   5.689  0.1114 -0.1929  0.1904
  849POPE   GL1 9639   9.806   2.152   6.029  0.0573 -0.0518 -0.1367
  849POPE   GL2 9640   9.520   1.842   6.227  0.1043 -0.2116  0.1640
  849POPE   C1A 9641   9.989   2.334   6.498 -0.1708 -0.2324 -0.1277
  849POPE   D2A 9642  10.081   2.330   6.929 -0.2847 -0.0549 -0.0191
  849POPE   C3A 9643   9.980   2.070   7.267 -0.4802 -0.0833  0.0218
  849POPE   C4A 9644   9.916   1.702   7.414  0.0198  0.0896 -0.0654
  849POPE   C1B 9645   9.812   1.880   6.531 -0.3683 -0.0144  0.0792
  849POPE   C2B 9646   9.975   1.709   6.892  0.0335  0.1039 -0.0745
  849POPE   C3B 9647  10.135   1.311   7.023 -0.1543 -0.0307  0.0456
  849POPE   C4B 9648  10.242   1.346   7.489  0.2233  0.0015 -0.1100
  850POPE   NH3 9649   7.904   1.931   5.779  0.0416 -0.0268  0.1206
  850POPE   PO4 9650   7.577   1.757   5.993  0.0176 -0.1166  0.0683
  850POPE   GL1 9651   7.832   1.815   6.364  0.1294 -0.2658  0.1854
  850POPE   GL2 9652   8.104   1.498   6.549 -0.1018  0.2063  0.2021
  850POPE   C1A 9653   7.646   2.163   6.694 -0.0366 -0.0447  0.0695
  850POPE   D2A 9654   7.647   2.435   7.083  0.0179  0.0432  0.1381
  850POPE   C3A 9655   7.571   2.854   7.163 -0.1205 -0.1993 -0.1951
  850POPE   C4A 9656   7.603   3.257   7.364  0.0536  0.1884  0.2731
  850POPE   C1B 9657   8.172   1.607   7.026 -0.3614 -0.1655  0.1909
  850POPE   C2B 9658   8.297   2.004   7.232  0.0016  0.3128  0.2218
  850POPE   C3B 9659   8.416   2.210   7.692 -0.3536  0.2708 -0.0766
  850POPE   C4B 9660   8.232   2.170   8.235  0.2894  0.0328  0.0729
  851POPE   NH3 9661   4.304   5.910   6.244 -0.0419 -0.4192 -0.0201
  851POPE   PO4 9662   4.447   6.269   6.203 -0.2324 -0.2787 -0.1487
  851POPE   GL1 9663   4.405   6.241   6.671 -0.0048  0.1250  0.2637
  851POPE   GL2 9664   4.361   6.661   6.623  0.0164 -0.3368  0.0427
  851POPE   C1A 9665   4.180   6.277   7.091  0.0046 -0.0306 -0.1285
  851POPE   D2A 9666   4.320   6.573   7.365  0.0804 -0.1118 -0.0794
  851POPE   C3A 9667   4.164   6.712   7.657  0.0007 -0.2162  0.0095
  851POPE   C4A 9668   3.999   6.523   8.031  0.2349 -0.1844  0.0037
  851POPE   C1B 9669   4.452   6.888   6.968 -0.4072  0.2002  0.2346
  851POPE   C2B 9670   4.549   6.990   7.392 -0.1676 -0.0935  0.0095
  851POPE   C3B 9671   4.596   7.076   7.773  0.0793 -0.1363 -0.1855
  851POPE   C4B 9672   4.958   7.073   8.007  0.3817  0.1037  0.0399
  852POPE   NH3 9673  17.587   8.354   6.643  0.0729  0.0290  0.0449
  852POPE   PO4 9674  17.153   8.164   6.702 -0.1963  0.4421 -0.0323
  852POPE   GL1 9675  17.054   8.210   7.086 -0.1662 -0.4653 -0.0048
  852POPE   GL2 9676  17.364   8.410   7.115  0.0208 -0.1281 -0.3157
  852POPE   C1A 9677  16.936   8.246   7.535 -0.1906  0.0872 -0.2586
  852POPE   D2A 9678  16.903   8.741   7.679 -0.0543 -0.0101  0.1426
  852POPE   C3A 9679  16.839   8.889   8.113  0.0038  0.0475 -0.0303
  852POPE   C4A 9680  16.598   8.657   8.458  0.2219 -0.0915  0.1893
  852POPE   C1B 9681  17.375   8.600   7.546  0.0101 -0.0699 -0.0523
  852POPE   C2B 9682  17.292   8.663   7.978  0.0806  0.0881  0.0284
  852POPE   C3B 9683  17.277   8.887   8.349 -0.1862 -0.0455 -0.0000
  852POPE   C4B 9684  17.014   8.954   8.742 -0.4273  0.1701  0.0226
  853POPE   NH3 9685   7.254   1.322   6.060  0.3784 -0.0818  0.0958
  853POPE   PO4 9686   7.010   1.262   6.390 -0.1322  0.0892 -0.1476
  853POPE   GL1 9687   7.234   1.075   6.710 -0.3324  0.0769 -0.0515
  853POPE   GL2 9688   7.286   1.262   6.912  0.0612 -0.0545  0.0665
  853POPE   C1A 9689   7.544   0.790   7.072  0.1990  0.0694  0.1319
  853POPE   D2A 9690   7.768   0.323   7.224 -0.3332 -0.4445  0.1660
  853POPE   C3A 9691   7.677   0.169   7.544 -0.0574 -0.0490  0.0325
  853POPE   C4A 9692   7.792  -0.192   7.802 -0.0738  0.0653  0.2176
  853POPE   C1B 9693   7.745   1.293   7.181  0.0519 -0.0410  0.2814
  853POPE   C2B 9694   7.904   1.553   7.398  0.1011 -0.0425  0.1386
  853POPE   C3B 9695   8.110   1.753   7.766 -0.0844  0.0011  0.1766
  853POPE   C4B 9696   8.523   1.858   8.005 -0.2973 -0.0815  0.3148
  854POPE   NH3 9697  15.762   8.797   6.493 -0.0825 -0.0152  0.1646
  854POPE   PO4 9698  15.847   8.338   6.540  0.0465  0.3480  0.2036
  854POPE   GL1 9699  15.939   8.367   6.912  0.1880  0.0208 -0.0607
  854POPE   GL2 9700  15.854   8.698   6.954 -0.2271 -0.1921 -0.0722
  854POPE   C1A 9701  16.161   8.131   7.284  0.1023  0.1274 -0.0787
  854POPE   D2A 9702  16.246   8.184   7.697 -0.2242 -0.0841 -0.0503
  854POPE   C3A 9703  16.022   8.465   7.908  0.2047  0.2089 -0.3617
  854POPE   C4A 9704  16.109   8.452   8.374 -0.0433  0.0885 -0.0877
  854POPE   C1B 9705  16.261   8.730   7.084  0.4827 -0.2872 -0.2038
  854POPE   C2B 9706  16.461   8.568   7.483 -0.0778 -0.0295  0.1011
  854POPE   C3B 9707  16.451   8.667   7.876  0.0737  0.1412 -0.0807
  854POPE   C4B 9708  16.697   8.420   8.022 -0.2931 -0.0450 -0.1368
  855POPE   NH3 9709  17.852  14.068   5.884 -0.1955 -0.2919  0.0201
  855POPE   PO4 9710  18.058  13.701   6.022  0.2525  0.0539  0.1200
  855POPE   GL1 9711  18.095  13.666   6.444  0.2787  0.1051 -0.1858
  855POPE   GL2 9712  18.212  13.904   6.663  0.0361  0.1324 -0.2146
  855POPE   C1A 9713  17.738  13.629   6.772  0.1734  0.0197  0.2765
  855POPE   D2A 9714  17.540  13.543   7.162  0.3981 -0.0932  0.1262
  855POPE   C3A 9715  17.506  13.060   7.339  0.0869 -0.0442  0.1699
  855POPE   C4A 9716  17.634  12.698   7.495 -0.0429  0.0962 -0.0512
  855POPE   C1B 9717  18.123  13.660   7.039  0.1210 -0.1439  0.2988
  855POPE   C2B 9718  18.032  13.447   7.436 -0.0201 -0.0120  0.0481
  855POPE   C3B 9719  17.692  13.386   7.667 -0.0166  0.2261  0.0455
  855POPE   C4B 9720  17.307  13.383   7.900  0.1243 -0.0273  0.0178
  856POPE   NH3 9721   1.945  16.113   6.158 -0.2737 -0.1277  0.2388
  856POPE   PO4 9722   1.555  16.037   6.334 -0.2330 -0.0654  0.2042
  856POPE   GL1 9723   1.388  15.964   6.755 -0.1187 -0.2372  0.2242
  856POPE   GL2 9724   1.300  15.656   6.800 -0.2069 -0.0356 -0.3564
  856POPE   C1A 9725   1.494  16.085   7.167 -0.0635  0.1523  0.2915
  856POPE   D2A 9726   1.405  16.041   7.603  0.0048 -0.0608 -0.2101
  856POPE   C3A 9727   1.103  16.019   7.883 -0.0593  0.0003  0.1652
  856POPE   C4A 9728   0.862  16.053   8.237 -0.1948 -0.1913  0.3083
  856POPE   C1B 9729   1.171  15.715   7.281 -0.2928  0.3824  0.1446
  856POPE   C2B 9730   1.055  15.589   7.677 -0.0879  0.2053 -0.2533
  856POPE   C3B 9731   1.029  15.372   7.997 -0.0282  0.1321  0.0955
  856POPE   C4B 9732   0.670  15.336   8.224 -0.1042 -0.2239  0.0957
  857POPE   NH3 9733  14.914   7.218   7.105  0.0778 -0.2422  0.0322
  857POPE   PO4 9734  14.824   6.763   7.048 -0.2210 -0.1507  0.1763
  857POPE   GL1 9735  15.202   6.803   7.365 -0.2154  0.2550  0.1546
  857POPE   GL2 9736  15.146   7.124   7.524 -0.2280 -0.4086  0.0497
  857POPE   C1A 9737  15.205   6.663   7.798  0.0239  0.0742  0.1343
  857POPE   D2A 9738  15.208   6.272   7.907  0.1038 -0.0034 -0.1016
  857POPE   C3A 9739  15.308   6.292   8.360 -0.1696 -0.2249 -0.2570
  857POPE   C4A 9740  15.165   6.131   8.707 -0.1378  0.1098  0.0320
  857POPE   C1B 9741  15.201   7.202   7.902 -0.1188  0.3386 -0.0506
  857POPE   C2B 9742  15.483   7.448   8.111  0.2976 -0.1750  0.3766
  857POPE   C3B 9743  15.560   7.543   8.565  0.3498  0.0476 -0.0781
  857POPE   C4B 9744  15.579   7.807   8.939  0.2076  0.0146 -0.1653
  858POPE   NH3 9745   2.570  16.810   6.555 -0.3012  0.0655 -0.2330
  858POPE   PO4 9746   2.058  16.731   6.596  0.1507  0.0634  0.1369
  858POPE   GL1 9747   2.024  16.772   7.049  0.1786  0.0287  0.0895
  858POPE   GL2 9748   1.688  16.729   7.048 -0.3156  0.0209  0.1406
  858POPE   C1A 9749   2.123  16.714   7.488  0.1130 -0.0794  0.0729
  858POPE   D2A 9750   2.245  16.662   7.945 -0.3277 -0.3281  0.1926
  858POPE   C3A 9751   2.213  16.382   8.183  0.1842  0.4753 -0.2762
  858POPE   C4A 9752   2.120  15.997   8.357 -0.0884  0.0141 -0.0334
  858POPE   C1B 9753   1.697  16.500   7.471  0.1419  0.1176 -0.2585
  858POPE   C2B 9754   1.842  16.268   7.829  0.0343  0.0320  0.4406
  858POPE   C3B 9755   1.613  16.163   8.118 -0.1845 -0.1000  0.0286
  858POPE   C4B 9756   1.426  15.906   8.355 -0.1080 -0.0779 -0.0709
  859POPE   NH3 9757  16.139   1.820   6.482 -0.0420 -0.0922  0.1879
  859POPE   PO4 9758  16.186   1.380   6.452 -0.2367  0.0169  0.2308
  859POPE   GL1 9759  16.285   1.182   6.769 -0.2690 -0.3149  0.0001
  859POPE   GL2 9760  16.603   1.040   6.866 -0.1854  0.0284  0.1207
  859POPE   C1A 9761  16.099   1.068   7.163 -0.2434  0.0209 -0.1064
  859POPE   D2A 9762  15.848   0.963   7.474 -0.1219  0.0743  0.3795
  859POPE   C3A 9763  15.778   0.859   7.891 -0.0454 -0.0366  0.2353
  859POPE   C4A 9764  15.788   0.571   8.375 -0.1344  0.1773  0.1907
  859POPE   C1B 9765  16.731   1.064   7.333 -0.2828  0.2192  0.0057
  859POPE   C2B 9766  16.723   1.276   7.622 -0.0620  0.0996 -0.1392
  859POPE   C3B 9767  16.483   1.459   8.047 -0.0891 -0.0176  0.1534
  859POPE   C4B 9768  16.241   1.631   8.365  0.1358  0.3043  0.0350
  860POPE   NH3 9769  15.508   5.823   6.377 -0.1861 -0.0509  0.3082
  860POPE   PO4 9770  15.827   5.682   6.200  0.0644  0.0440  0.0813
  860POPE   GL1 9771  15.937   5.768   6.661 -0.0558 -0.1551 -0.2572
  860POPE   GL2 9772  15.734   5.507   6.707 -0.0353 -0.1142  0.1629
  860POPE   C1A 9773  16.165   6.074   6.939  0.2681 -0.0488 -0.2491
  860POPE   D2A 9774  16.229   6.524   7.150 -0.2007 -0.0316 -0.3486
  860POPE   C3A 9775  16.223   6.543   7.536  0.0834  0.2261 -0.1835
  860POPE   C4A 9776  16.485   6.627   7.872  0.0898 -0.2871  0.1937
  860POPE   C1B 9777  15.862   5.371   7.158  0.2023  0.1503 -0.0882
  860POPE   C2B 9778  15.900   5.300   7.635 -0.0748  0.0768 -0.2409
  860POPE   C3B 9779  16.195   5.300   7.914 -0.2980  0.0649  0.3126
  860POPE   C4B 9780  16.436   5.206   8.219 -0.0354  0.0083  0.1028
  861POPE   NH3 9781  10.532  11.554   6.026  0.2086  0.1134  0.1227
  861POPE   PO4 9782  10.110  11.586   6.053  0.2393 -0.5109 -0.3449
  861POPE   GL1 9783  10.130  11.719   6.400  0.2430 -0.0332  0.2257
  861POPE   GL2 9784  10.048  12.068   6.484  0.1324  0.1639 -0.2737
  861POPE   C1A 9785  10.026  11.610   6.915  0.2388 -0.1758 -0.2884
  861POPE   D2A 9786   9.903  11.895   7.213  0.2543  0.0983 -0.0837
  861POPE   C3A 9787   9.776  11.720   7.525  0.0600 -0.2377 -0.1256
  861POPE   C4A 9788   9.519  11.555   7.788 -0.0646 -0.0721 -0.0528
  861POPE   C1B 9789   9.783  12.211   6.854 -0.0236  0.1347 -0.1423
  861POPE   C2B 9790   9.506  12.210   7.174 -0.1619  0.0321  0.2978
  861POPE   C3B 9791   9.395  12.067   7.583 -0.1228  0.1459  0.2650
  861POPE   C4B 9792   9.102  11.806   7.741 -0.0377  0.4663 -0.2015
  862POPE   NH3 9793  16.106   2.990   6.213 -0.0261  0.0966 -0.2218
  862POPE   PO4 9794  16.127   3.445   6.215 -0.2572  0.2637 -0.0310
  862POPE   GL1 9795  15.996   3.623   6.697 -0.0021 -0.0766  0.1037
  862POPE   GL2 9796  15.671   3.570   6.866 -0.0391  0.0958 -0.2857
  862POPE   C1A 9797  16.142   3.755   7.108  0.0820 -0.0024 -0.0649
  862POPE   D2A 9798  16.288   3.930   7.471 -0.0737  0.2267 -0.1015
  862POPE   C3A 9799  16.065   4.322   7.664  0.2601  0.1405 -0.0057
  862POPE   C4A 9800  15.919   4.505   8.013 -0.4664 -0.1148 -0.0037
  862POPE   C1B 9801  15.706   3.427   7.204 -0.5766  0.3439  0.2884
  862POPE   C2B 9802  15.663   3.324   7.586  0.1780  0.1081  0.1828
  862POPE   C3B 9803  15.621   3.213   8.052  0.0989 -0.0942  0.1263
  862POPE   C4B 9804  15.343   3.171   8.432  0.0973 -0.4065  0.0961
  863POPE   NH3 9805  11.343  17.032   5.877 -0.2765 -0.1632  0.1044
  863POPE   PO4 9806  11.567  16.524   5.788 -0.0774 -0.0636  0.0508
  863POPE   GL1 9807  11.535  16.510   6.221 -0.1757  0.2376  0.2672
  863POPE   GL2 9808  11.542  16.812   6.284 -0.0846  0.2065  0.1379
  863POPE   C1A 9809  11.365  16.246   6.660  0.0028  0.3555 -0.1623
  863POPE   D2A 9810  11.418  16.353   7.108  0.2140  0.1599  0.3283
  863POPE   C3A 9811  11.817  16.502   7.297  0.0531 -0.0159  0.2318
  863POPE   C4A 9812  12.097  16.806   7.491  0.2904  0.5160 -0.3184
  863POPE   C1B 9813  11.576  16.731   6.743  0.3306 -0.0892 -0.1017
  863POPE   C2B 9814  11.713  16.985   7.152 -0.0024 -0.1118  0.1973
  863POPE   C3B 9815  11.844  17.325   7.371 -0.0566 -0.1949 -0.3035
  863POPE   C4B 9816  11.923  17.730   7.621 -0.0548  0.0256  0.0024
  864POPE   NH3 9817   6.625  17.464   6.511 -0.1815 -0.1255  0.0326
  864POPE   PO4 9818   6.724  16.985   6.329  0.3595  0.1168 -0.1310
  864POPE   GL1 9819   6.384  16.926   6.581 -0.3554 -0.1027 -0.0091
  864POPE   GL2 9820   6.443  16.563   6.580  0.0760  0.1265  0.2636
  864POPE   C1A 9821   6.348  17.107   7.060 -0.0138  0.1018 -0.0018
  864POPE   D2A 9822   6.447  17.240   7.479  0.2423 -0.3345 -0.1387
  864POPE   C3A 9823   6.217  17.036   7.707 -0.0729  0.1839 -0.1134
  864POPE   C4A 9824   6.124  16.696   8.036  0.3589 -0.1689 -0.1031
  864POPE   C1B 9825   6.570  16.625   6.954 -0.0495  0.3443 -0.0410
  864POPE   C2B 9826   6.483  16.697   7.383 -0.3063 -0.1735 -0.1181
  864POPE   C3B 9827   6.326  16.397   7.698  0.0132  0.1919 -0.0291
  864POPE   C4B 9828   6.342  16.060   7.968 -0.0500 -0.0597  0.3339
  865POPE   NH3 9829   6.819   3.993   5.705  0.0172 -0.1359  0.0304
  865POPE   PO4 9830   6.797   4.365   5.538 -0.0417  0.0413 -0.1989
  865POPE   GL1 9831   6.790   4.381   6.015  0.1467 -0.1598 -0.0833
  865POPE   GL2 9832   6.562   4.230   6.030 -0.2525  0.2571 -0.0826
  865POPE   C1A 9833   7.029   4.316   6.285  0.0301  0.0606 -0.0181
  865POPE   D2A 9834   7.151   4.068   6.589 -0.1160 -0.3470 -0.0208
  865POPE   C3A 9835   6.856   3.879   6.872  0.2630 -0.0250  0.0895
  865POPE   C4A 9836   6.562   4.015   7.165  0.2305 -0.2353  0.1944
  865POPE   C1B 9837   6.196   4.363   6.282  0.1967  0.1194  0.2550
  865POPE   C2B 9838   5.840   4.457   6.457 -0.0063 -0.1882  0.0982
  865POPE   C3B 9839   5.714   4.548   6.671 -0.0321 -0.0940 -0.1102
  865POPE   C4B 9840   5.819   4.698   7.045  0.0554  0.0875  0.1261
  866POPE   NH3 9841  15.795  16.938   5.789 -0.1650 -0.3043  0.0378
  866POPE   PO4 9842  16.246  17.026   5.933  0.0555  0.0223 -0.0873
  866POPE   GL1 9843  16.065  16.849   6.266 -0.2340 -0.0642 -0.3087
  866POPE   GL2 9844  15.715  16.675   6.224  0.1614 -0.0982  0.1613
  866POPE   C1A 9845  15.798  17.011   6.662 -0.0101 -0.0232 -0.0436
  866POPE   D2A 9846  15.539  17.161   6.962  0.0319 -0.1687 -0.1117
  866POPE   C3A 9847  15.636  17.499   7.234 -0.1438  0.1147 -0.0941
  866POPE   C4A 9848  15.549  17.549   7.759  0.0161 -0.1066 -0.0595
  866POPE   C1B 9849  15.342  16.975   6.415  0.0901  0.1198 -0.1029
  866POPE   C2B 9850  15.111  17.203   6.678  0.0650 -0.0506 -0.0644
  866POPE   C3B 9851  14.839  17.333   7.041  0.2426  0.1630  0.1320
  866POPE   C4B 9852  14.530  17.386   7.336  0.0182  0.0149 -0.3152
  867POPE   NH3 9853   0.243  18.404   6.521 -0.1122 -0.0549  0.1294
  867POPE   PO4 9854   0.378  18.866   6.683 -0.1874 -0.0483 -0.1020
  867POPE   GL1 9855  -0.056  18.699   6.851 -0.4120  0.0858  0.1343
  867POPE   GL2 9856  -0.045  18.303   6.934 -0.1024 -0.0443 -0.0357
  867POPE   C1A 9857  -0.240  18.687   7.210 -0.0212 -0.1476 -0.2203
  867POPE   D2A 9858  -0.206  18.940   7.635  0.4374 -0.1753 -0.2653
  867POPE   C3A 9859  -0.396  18.741   7.983  0.1672 -0.1216 -0.0264
  867POPE   C4A 9860  -0.512  18.612   8.422  0.3735 -0.0833 -0.0689
  867POPE   C1B 9861  -0.181  17.968   7.288 -0.0072 -0.0567  0.0759
  867POPE   C2B 9862  -0.387  17.962   7.601 -0.1846 -0.0693 -0.0143
  867POPE   C3B 9863  -0.365  17.800   8.012 -0.0241  0.2616  0.0083
  867POPE   C4B 9864  -0.400  17.342   8.212  0.1300  0.0079 -0.0669
  868POPE   NH3 9865   2.208  16.849   6.163 -0.1970  0.2811  0.0741
  868POPE   PO4 9866   2.310  16.453   6.289  0.1555  0.0299  0.3527
  868POPE   GL1 9867   2.151  16.196   6.594 -0.0882 -0.1469  0.1094
  868POPE   GL2 9868   2.333  16.052   6.709  0.0436 -0.0647  0.0223
  868POPE   C1A 9869   1.979  16.268   7.044  0.0323  0.2536  0.1583
  868POPE   D2A 9870   1.936  15.999   7.349  0.2070 -0.0268 -0.0175
  868POPE   C3A 9871   2.135  15.659   7.489  0.4604  0.2178 -0.0696
  868POPE   C4A 9872   1.965  15.238   7.599  0.1159  0.0580  0.2241
  868POPE   C1B 9873   2.351  15.870   7.027 -0.3132 -0.2476 -0.1159
  868POPE   C2B 9874   2.607  15.654   7.330  0.1461  0.1917 -0.1900
  868POPE   C3B 9875   2.599  15.577   7.780 -0.3480  0.1593  0.3007
  868POPE   C4B 9876   2.614  15.368   8.134 -0.2059  0.0028 -0.0665
  869YOPE   NH3 9877   4.777  17.851   6.223  0.0478  0.0697 -0.2369
  869YOPE   PO4 9878   4.455  18.022   6.068  0.1782  0.0856 -0.3520
  869YOPE   GL1 9879   4.330  18.107   6.527  0.0472 -0.0928  0.0110
  869YOPE   GL2 9880   4.645  18.085   6.720 -0.0984 -0.1543 -0.0382
  869YOPE   C1A 9881   4.193  18.326   6.972  0.2745 -0.2233 -0.0893
  869YOPE   D2A 9882   4.029  18.010   7.349 -0.3229  0.0308 -0.1599
  869YOPE   C3A 9883   4.035  17.954   7.842  0.1928 -0.3511  0.1085
  869YOPE   C4A 9884   4.104  17.967   8.177  0.1052  0.0601 -0.3424
  869YOPE   C1B 9885   4.756  18.267   7.129 -0.0402 -0.0403 -0.0466
  869YOPE   C2B 9886   4.419  18.487   7.419  0.2238  0.1612 -0.1392
  869YOPE   D3B 9887   4.388  18.569   7.904 -0.1855  0.0732  0.4829
  869YOPE   C4B 9888   4.546  18.815   8.185  0.0898  0.0698 -0.4501
  870YOPE   NH3 9889   5.633  15.303   5.974 -0.0209  0.1756 -0.5978
  870YOPE   PO4 9890   5.456  15.716   5.989  0.0365  0.6021 -0.0639
  870YOPE   GL1 9891   5.417  15.502   6.378  0.1561  0.1977 -0.0146
  870YOPE   GL2 9892   5.110  15.486   6.489 -0.0544  0.0327  0.0361
  870YOPE   C1A 9893   5.604  15.314   6.683 -0.0219  0.0816 -0.0815
  870YOPE   D2A 9894   5.829  15.116   7.056  0.3377 -0.0129 -0.1298
  870YOPE   C3A 9895   5.751  14.845   7.466  0.1122 -0.0956  0.3303
  870YOPE   C4A 9896   5.746  14.903   7.863 -0.0029 -0.1146 -0.0319
  870YOPE   C1B 9897   5.185  15.667   6.897  0.0853  0.0702 -0.0650
  870YOPE   C2B 9898   5.097  15.732   7.312 -0.4869 -0.1145 -0.1404
  870YOPE   D3B 9899   4.976  15.812   7.580 -0.0707 -0.1683 -0.1728
  870YOPE   C4B 9900   4.799  15.723   7.939  0.1479 -0.2066 -0.1774
  871YOPE   NH3 9901  15.270  14.894   5.683  0.5722 -0.0574  0.0543
  871YOPE   PO4 9902  14.970  15.166   5.726  0.0141 -0.1346 -0.2080
  871YOPE   GL1 9903  15.080  15.063   6.213  0.3141  0.0580 -0.0726
  871YOPE   GL2 9904  15.390  14.939   6.178 -0.2469  0.1220  0.1434
  871YOPE   C1A 9905  15.059  14.936   6.574 -0.4224 -0.1316  0.0924
  871YOPE   D2A 9906  15.126  14.926   6.995 -0.0299  0.0877  0.1359
  871YOPE   C3A 9907  14.974  14.925   7.406  0.1664 -0.0165 -0.0642
  871YOPE   C4A 9908  15.270  14.939   7.673 -0.2319 -0.0536  0.0395
  871YOPE   C1B 9909  15.566  15.062   6.571 -0.0235 -0.0225 -0.0517
  871YOPE   C2B 9910  15.565  15.395   6.880 -0.3615 -0.0527 -0.0796
  871YOPE   D3B 9911  15.423  15.254   7.270  0.0341  0.1071  0.2774
  871YOPE   C4B 9912  15.128  15.433   7.479 -0.1838  0.0190  0.1093
  872YOPE   NH3 9913  13.105   1.238   5.729  0.1132  0.3659  0.1919
  872YOPE   PO4 9914  13.285   1.558   6.116  0.2444 -0.1791  0.1889
  872YOPE   GL1 9915  13.397   1.390   6.594 -0.1237  0.0358 -0.0804
  872YOPE   GL2 9916  13.739   1.238   6.606  0.2601 -0.2208  0.3251
  872YOPE   C1A 9917  13.278   1.292   7.067  0.0716 -0.2778  0.1054
  872YOPE   D2A 9918  13.018   1.289   7.377  0.1445  0.2021  0.1071
  872YOPE   C3A 9919  13.114   1.624   7.689  0.1025  0.1799  0.0258
  872YOPE   C4A 9920  13.140   1.719   8.098 -0.0419 -0.0086  0.0917
  872YOPE   C1B 9921  13.759   1.221   7.054  0.0646  0.2549 -0.0585
  872YOPE   C2B 9922  13.507   1.120   7.489  0.1033  0.0850 -0.1779
  872YOPE   D3B 9923  13.210   1.106   7.782  0.0517  0.0033 -0.0768
  872YOPE   C4B 9924  12.982   0.759   7.918 -0.0463  0.0587 -0.0342
  873YOPE   NH3 9925  13.755  14.761   5.859 -0.2351  0.0106  0.2881
  873YOPE   PO4 9926  13.719  14.371   6.064  0.0393  0.0769  0.1119
  873YOPE   GL1 9927  13.752  14.205   6.464 -0.0024 -0.2858  0.0935
  873YOPE   GL2 9928  13.523  14.205   6.589 -0.1069  0.1420  0.5323
  873YOPE   C1A 9929  13.920  14.247   6.890 -0.1550 -0.2956  0.0882
  873YOPE   D2A 9930  13.796  14.295   7.298  0.0866 -0.1384  0.0365
  873YOPE   C3A 9931  13.908  14.669   7.487  0.0853  0.0352 -0.1688
  873YOPE   C4A 9932  13.699  15.088   7.508 -0.2936  0.1240  0.1810
  873YOPE   C1B 9933  13.409  14.242   6.976 -0.0124 -0.0549 -0.3231
  873YOPE   C2B 9934  13.308  14.319   7.371  0.3149 -0.1946  0.0490
  873YOPE   D3B 9935  13.479  14.403   7.648  0.2937 -0.0740  0.0066
  873YOPE   C4B 9936  13.696  14.572   7.996  0.2907  0.0703 -0.0598
  874YOPE   NH3 9937  14.978   8.135   6.445 -0.0920  0.6274 -0.2322
  874YOPE   PO4 9938  15.301   8.450   6.348 -0.1103 -0.1108  0.1389
  874YOPE   GL1 9939  15.362   8.234   6.727 -0.0742 -0.0163  0.0834
  874YOPE   GL2 9940  15.377   7.890   6.644 -0.1589 -0.3352  0.1073
  874YOPE   C1A 9941  15.459   8.467   7.199  0.0200 -0.0152  0.1416
  874YOPE   D2A 9942  15.859   8.557   7.421 -0.2854 -0.0496  0.0614
  874YOPE   C3A 9943  15.921   8.946   7.744  0.0249 -0.2061  0.2144
  874YOPE   C4A 9944  15.642   9.160   7.776 -0.0062 -0.2586  0.1601
  874YOPE   C1B 9945  15.648   7.912   7.028  0.1087  0.0579  0.1549
  874YOPE   C2B 9946  15.741   7.924   7.423 -0.1093  0.0692 -0.1373
  874YOPE   D3B 9947  15.929   7.865   7.823  0.1385  0.0585  0.0421
  874YOPE   C4B 9948  16.224   8.012   8.217 -0.2886  0.0072 -0.2356
  875YOPE   NH3 9949   6.356  10.682   6.131 -0.0252  0.3078 -0.2787
  875YOPE   PO4 9950   6.405  11.180   6.201 -0.0776  0.0955  0.1277
  875YOPE   GL1 9951   6.290  11.312   6.526 -0.1480  0.1350  0.0514
  875YOPE   GL2 9952   6.016  11.466   6.315 -0.0002 -0.4393 -0.0575
  875YOPE   C1A 9953   6.280  11.226   6.926 -0.1783  0.0642  0.1251
  875YOPE   D2A 9954   6.208  11.255   7.358 -0.1838  0.2580 -0.1814
  875YOPE   C3A 9955   5.949  11.265   7.726  0.0979  0.1230 -0.1231
  875YOPE   C4A 9956   5.800  11.304   8.105 -0.4371  0.3479 -0.0931
  875YOPE   C1B 9957   5.789  11.745   6.487 -0.1178 -0.0851  0.1472
  875YOPE   C2B 9958   5.924  12.036   6.867 -0.0487  0.6284  0.1387
  875YOPE   D3B 9959   5.731  12.110   7.265  0.1761 -0.0290  0.0142
  875YOPE   C4B 9960   5.716  12.385   7.721 -0.0821 -0.1600  0.0139
  876YOPE   NH3 9961   9.433   3.872   5.605  0.1183 -0.2398  0.1683
  876YOPE   PO4 9962   9.456   4.386   5.677 -0.1559 -0.1289  0.0666
  876YOPE   GL1 9963   9.383   4.168   6.047 -0.2800  0.0172  0.1826
  876YOPE   GL2 9964   9.742   4.096   6.143 -0.0494  0.4119 -0.0572
  876YOPE   C1A 9965   9.167   4.134   6.304 -0.4582  0.1103 -0.1469
  876YOPE   D2A 9966   9.172   4.084   6.753 -0.2655  0.2262 -0.0380
  876YOPE   C3A 9967   9.101   3.927   7.143 -0.0696  0.3643 -0.1638
  876YOPE   C4A 9968   9.213   4.038   7.604 -0.0992 -0.0003  0.1484
  876YOPE   C1B 9969   9.589   4.031   6.524  0.0761  0.1713  0.0678
  876YOPE   C2B 9970   9.690   4.051   6.936 -0.1253  0.1634 -0.2610
  876YOPE   D3B 9971   9.637   3.899   7.318 -0.1691  0.0221 -0.3443
  876YOPE   C4B 9972   9.896   3.941   7.582  0.3357  0.0267  0.0414
  877YOPE   NH3 9973  13.739   1.312   6.124  0.2039 -0.1403  0.0208
  877YOPE   PO4 9974  13.721   0.957   5.917  0.0328 -0.0463  0.3247
  877YOPE   GL1 9975  13.805   0.798   6.318  0.3997 -0.1101 -0.0807
  877YOPE   GL2 9976  13.774   0.518   6.335 -0.2033  0.2429 -0.2033
  877YOPE   C1A 9977  13.886   0.722   6.782 -0.2827  0.0826 -0.0226
  877YOPE   D2A 9978  13.836   0.390   7.017  0.0998  0.1233  0.0060
  877YOPE   C3A 9979  13.389   0.331   7.234  0.1737  0.0333 -0.1179
  877YOPE   C4A 9980  13.045   0.392   7.522 -0.2294  0.2932 -0.1456
  877YOPE   C1B 9981  14.008   0.219   6.596  0.2017  0.2367  0.0760
  877YOPE   C2B 9982  14.124   0.014   7.037 -0.2818  0.0179  0.0096
  877YOPE   D3B 9983  14.247  -0.165   7.365  0.0296 -0.1778  0.1498
  877YOPE   C4B 9984  14.569  -0.321   7.660  0.0788 -0.1802 -0.1289
  878YOPE   NH3 9985   8.818   7.094   6.330 -0.0626  0.0346  0.0014
  878YOPE   PO4 9986   8.902   7.432   6.065  0.0181 -0.1257 -0.2794
  878YOPE   GL1 9987   8.513   7.556   6.291  0.0793 -0.3196  0.1110
  878YOPE   GL2 9988   8.399   7.264   6.596 -0.2863 -0.0581  0.0739
  878YOPE   C1A 9989   8.287   7.970   6.452 -0.0180  0.2295 -0.1004
  878YOPE   D2A 9990   8.041   8.207   6.773 -0.0353  0.2836  0.1285
  878YOPE   C3A 9991   7.973   8.209   7.176  0.0742  0.3063 -0.0112
  878YOPE   C4A 9992   7.886   8.141   7.541 -0.3819 -0.1543  0.4349
  878YOPE   C1B 9993   8.523   7.187   6.997 -0.1545 -0.4247 -0.0365
  878YOPE   C2B 9994   8.562   7.457   7.326 -0.3336  0.0856  0.0851
  878YOPE   D3B 9995   8.562   7.773   7.642  0.2738 -0.0259 -0.4038
  878YOPE   C4B 9996   8.810   7.810   8.037  0.1458 -0.0419  0.3092
  879YOPE   NH3 9997  16.831  15.385   5.988 -0.3714  0.1963  0.0701
  879YOPE   PO4 9998  16.757  15.052   6.292  0.0323  0.1532  0.3264
  879YOPE   GL1 9999  16.785  15.363   6.560 -0.2828 -0.1709  0.2437
  879YOPE   GL210000  16.822  15.694   6.371 -0.0430 -0.1627 -0.0667
  879YOPE   C1A10001  16.568  15.466   6.774 -0.2278  0.0389  0.3195
  879YOPE   D2A10002  16.456  15.337   7.143  0.1522  0.1657  0.0446
  879YOPE   C3A10003  16.586  15.569   7.513  0.0918 -0.0096  0.5164
  879YOPE   C4A10004  16.735  15.537   7.960  0.2930  0.2207 -0.2421
  879YOPE   C1B10005  17.152  15.543   6.834  0.2129  0.0391 -0.0977
  879YOPE   C2B10006  17.429  15.671   7.162  0.0400 -0.1587  0.0758
  879YOPE   D3B10007  17.521  15.721   7.560 -0.1465 -0.2077 -0.1025
  879YOPE   C4B10008  17.585  15.578   7.897 -0.0304  0.1329 -0.2953
  880YOPE   NH310009   6.977   7.343   6.343 -0.0297  0.0812 -0.3356
  880YOPE   PO410010   7.248   7.728   6.307  0.0641  0.0186 -0.0587
  880YOPE   GL110011   7.390   7.666   6.738  0.2290  0.3703  0.2566
  880YOPE   GL210012   7.238   7.409   6.808 -0.4475  0.1698  0.2216
  880YOPE   C1A10013   7.428   7.822   7.183 -0.1825 -0.1840 -0.0645
  880YOPE   D2A10014   7.512   7.816   7.517  0.0118 -0.0202 -0.2096
  880YOPE   C3A10015   7.453   8.132   7.841 -0.0533  0.1505  0.0280
  880YOPE   C4A10016   7.150   8.180   8.152 -0.1209  0.1448 -0.1364
  880YOPE   C1B10017   7.407   7.340   7.275  0.0476 -0.1113  0.0235
  880YOPE   C2B10018   7.704   7.295   7.702  0.2540 -0.1815 -0.6506
  880YOPE   D3B10019   7.922   7.288   8.065 -0.1590  0.1370  0.0337
  880YOPE   C4B10020   8.182   6.942   8.101 -0.1161  0.0658 -0.2800
  881YOPE   NH310021  13.369   2.113   5.997 -0.0466  0.1055  0.1971
  881YOPE   PO410022  13.561   2.505   5.894 -0.0917  0.1742  0.1722
  881YOPE   GL110023  13.694   2.501   6.271  0.0597 -0.0237  0.3979
  881YOPE   GL210024  13.813   2.735   6.468 -0.1776  0.0613  0.0501
  881YOPE   C1A10025  13.562   2.364   6.721 -0.0258  0.1920 -0.0656
  881YOPE   D2A10026  13.259   2.412   6.982  0.2883  0.0932 -0.0298
  881YOPE   C3A10027  13.369   2.486   7.423  0.0806  0.1821 -0.1617
  881YOPE   C4A10028  13.518   2.474   7.804 -0.0739  0.0496  0.2019
  881YOPE   C1B10029  13.449   2.929   6.787  0.1829 -0.2073  0.6079
  881YOPE   C2B10030  13.610   3.263   7.000 -0.1381 -0.0887 -0.2079
  881YOPE   D3B10031  13.474   3.519   7.290  0.1453 -0.1823  0.0129
  881YOPE   C4B10032  13.333   3.979   7.465 -0.1770  0.0433 -0.1854
  882YOPE   NH310033  15.001  14.048   5.322 -0.2448  0.2007  0.1064
  882YOPE   PO410034  15.387  14.359   5.522 -0.0096  0.0548  0.2297
  882YOPE   GL110035  15.215  14.339   5.864  0.1384 -0.0555  0.2358
  882YOPE   GL210036  15.495  14.492   6.064 -0.1006 -0.2089  0.1251
  882YOPE   C1A10037  14.998  14.407   6.326  0.0460 -0.1943  0.0146
  882YOPE   D2A10038  14.875  14.511   6.741  0.0917  0.0640  0.1922
  882YOPE   C3A10039  14.535  14.586   6.685 -0.0491 -0.0223 -0.3423
  882YOPE   C4A10040  14.231  14.390   6.440 -0.1784 -0.1124  0.0784
  882YOPE   C1B10041  15.457  14.341   6.513 -0.0218 -0.4872  0.0037
  882YOPE   C2B10042  15.315  14.479   6.916  0.1079  0.1682 -0.2770
  882YOPE   D3B10043  15.574  14.708   7.037 -0.2821 -0.0382 -0.1843
  882YOPE   C4B10044  15.805  15.005   7.081 -0.1161  0.0242 -0.4909
  883YOPE   NH310045  13.778   7.045   6.937  0.0407  0.1660  0.2576
  883YOPE   PO410046  13.991   6.947   7.275  0.1897  0.2838  0.0063
  883YOPE   GL110047  14.060   7.158   7.530  0.1492 -0.0362 -0.1767
  883YOPE   GL210048  14.009   7.519   7.561 -0.1540  0.0670 -0.1680
  883YOPE   C1A10049  14.007   7.145   8.006  0.1358 -0.1377 -0.2598
  883YOPE   D2A10050  13.974   7.022   8.476 -0.0587  0.4254  0.1462
  883YOPE   C3A10051  13.525   7.056   8.547  0.2480  0.1069  0.0784
  883YOPE   C4A10052  13.046   7.156   8.638 -0.0679 -0.0827  0.1596
  883YOPE   C1B10053  14.165   7.672   7.984 -0.0174 -0.2609  0.0690
  883YOPE   C2B10054  14.354   7.752   8.454  0.1624 -0.2521  0.0997
  883YOPE   D3B10055  14.618   7.526   8.736 -0.1283 -0.1475 -0.1786
  883YOPE   C4B10056  14.658   7.566   9.260  0.0320 -0.1267 -0.1862
  884YOPE   NH310057  14.350   6.592   6.965 -0.0895 -0.3760  0.3374
  884YOPE   PO410058  14.372   7.038   6.910  0.0675  0.0400 -0.1466
  884YOPE   GL110059  14.504   7.014   7.266 -0.0800 -0.2280 -0.1449
  884YOPE   GL210060  14.444   6.704   7.405  0.2385 -0.0730 -0.0592
  884YOPE   C1A10061  14.516   7.211   7.659 -0.2230 -0.2468  0.1059
  884YOPE   D2A10062  14.524   7.234   7.982 -0.0722  0.1619 -0.0387
  884YOPE   C3A10063  14.695   7.501   8.103  0.0405  0.0914 -0.0949
  884YOPE   C4A10064  15.009   7.643   8.429 -0.1298 -0.0496  0.1305
  884YOPE   C1B10065  14.685   6.798   7.788  0.0474 -0.2813 -0.0945
  884YOPE   C2B10066  14.909   6.891   8.121 -0.2397  0.0165  0.2725
  884YOPE   D3B10067  15.041   7.151   8.420 -0.0948  0.1076  0.1349
  884YOPE   C4B10068  15.125   7.298   8.881  0.2086 -0.2764  0.0883
  885YOPE   NH310069   0.951   8.490   6.635 -0.0896  0.2347  0.3119
  885YOPE   PO410070   1.079   8.102   6.573  0.3540  0.1656 -0.1545
  885YOPE   GL110071   0.774   8.024   6.926 -0.2824  0.1681  0.2917
  885YOPE   GL210072   0.767   8.309   7.082  0.1191  0.1692 -0.0953
  885YOPE   C1A10073   0.486   7.992   7.346  0.0177 -0.0916  0.0445
  885YOPE   D2A10074   0.488   7.620   7.657 -0.0527 -0.3065  0.0468
  885YOPE   C3A10075   0.700   7.611   7.996 -0.0092 -0.2317 -0.2116
  885YOPE   C4A10076   0.613   7.395   8.379 -0.1926  0.2275 -0.2251
  885YOPE   C1B10077   1.097   8.154   7.349  0.1075  0.3269  0.0944
  885YOPE   C2B10078   1.338   8.203   7.649  0.0424 -0.3466  0.1304
  885YOPE   D3B10079   1.517   8.487   7.953 -0.1742  0.1696 -0.0381
  885YOPE   C4B10080   1.502   8.405   8.461  0.0262 -0.0230  0.1854
  886YOPE   NH310081  17.144  10.495   5.822  0.0254  0.2058 -0.1648
  886YOPE   PO410082  17.070  10.245   6.151 -0.1730  0.1537  0.3050
  886YOPE   GL110083  16.915  10.360   6.539 -0.1397 -0.0563  0.3250
  886YOPE   GL210084  17.036  10.100   6.664 -0.0388 -0.2662  0.2594
  886YOPE   C1A10085  16.992  10.748   6.665  0.3580 -0.0150 -0.1842
  886YOPE   D2A10086  17.144  10.849   7.094 -0.3509 -0.1061 -0.0881
  886YOPE   C3A10087  16.942  10.871   7.503 -0.0653  0.0752  0.0599
  886YOPE   C4A10088  16.782  10.677   7.892 -0.0735  0.0286  0.2114
  886YOPE   C1B10089  17.158  10.327   6.996  0.1169 -0.1343 -0.1182
  886YOPE   C2B10090  17.198  10.469   7.427 -0.2720  0.2156  0.0582
  886YOPE   D3B10091  17.270  10.454   7.814 -0.0688 -0.0312  0.0048
  886YOPE   C4B10092  17.095  10.373   8.254 -0.3294 -0.2359 -0.0475
  887YOPE   NH310093  13.684   6.344   6.640  0.1272  0.2092 -0.0215
  887YOPE   PO410094  13.809   6.540   6.989  0.0552  0.1671  0.0900
  887YOPE   GL110095  13.523   6.629   7.240 -0.0074 -0.0753 -0.1004
  887YOPE   GL210096  13.562   6.851   7.446  0.0877  0.1220  0.0328
  887YOPE   C1A10097  13.344   6.437   7.704  0.0677 -0.1505 -0.0575
  887YOPE   D2A10098  13.189   6.316   8.146 -0.1082 -0.2361 -0.3588
  887YOPE   C3A10099  13.423   6.339   8.517 -0.1564  0.4648 -0.0713
  887YOPE   C4A10100  13.442   6.567   8.841 -0.0379  0.0838  0.0905
  887YOPE   C1B10101  13.682   6.822   7.848 -0.1829  0.1301 -0.1884
  887YOPE   C2B10102  13.671   6.666   8.289 -0.2325 -0.0951  0.0296
  887YOPE   D3B10103  13.895   6.477   8.493 -0.1591  0.2224 -0.1654
  887YOPE   C4B10104  14.053   6.361   8.845 -0.3671  0.0395  0.0377
  888YOPE   NH310105  18.324   2.022   6.206  0.1346 -0.2403  0.1123
  888YOPE   PO410106  18.589   1.871   6.546 -0.2126 -0.0159 -0.0025
  888YOPE   GL110107  18.713   2.055   6.926 -0.2934 -0.1409 -0.1285
  888YOPE   GL210108  19.016   1.852   7.059 -0.0506  0.0835  0.0302
  888YOPE   C1A10109  18.809   2.422   7.216 -0.0467 -0.1574  0.0150
  888YOPE   D2A10110  18.826   2.546   7.679  0.2620 -0.3165  0.1014
  888YOPE   C3A10111  19.115   2.426   8.007 -0.0322  0.0721  0.2973
  888YOPE   C4A10112  19.215   2.052   8.180 -0.0794  0.0900  0.0486
  888YOPE   C1B10113  18.926   1.556   7.373 -0.0912  0.1412 -0.1358
  888YOPE   C2B10114  18.968   1.602   7.769 -0.0074  0.1295  0.6110
  888YOPE   D3B10115  19.008   1.606   8.151  0.2777  0.2545 -0.3970
  888YOPE   C4B10116  18.954   1.806   8.496  0.2545 -0.1989 -0.1467
  889YOPE   NH310117   0.275   2.895   6.425 -0.1045 -0.0043  0.1731
  889YOPE   PO410118   0.445   3.315   6.651 -0.2184 -0.0440 -0.1755
  889YOPE   GL110119   0.626   3.378   7.012  0.3280 -0.3717  0.1039
  889YOPE   GL210120   0.318   3.622   7.026  0.2650  0.0273 -0.2997
  889YOPE   C1A10121   0.904   3.608   7.196 -0.2524  0.1747 -0.0205
  889YOPE   D2A10122   1.085   3.672   7.477  0.1343 -0.0713  0.0456
  889YOPE   C3A10123   1.183   3.895   7.852  0.0897 -0.1165 -0.2232
  889YOPE   C4A10124   1.532   3.869   8.237 -0.0233  0.0744 -0.0199
  889YOPE   C1B10125   0.021   3.941   7.291 -0.5106  0.1003  0.0518
  889YOPE   C2B10126  -0.214   3.883   7.706  0.1025 -0.2533 -0.1109
  889YOPE   D3B10127  -0.322   3.947   8.071 -0.2465  0.1738  0.0324
  889YOPE   C4B10128  -0.247   3.655   8.475 -0.3003 -0.2381  0.1019
  890YOPE   NH310129   0.438   9.029   6.494 -0.0797 -0.4380  0.1344
  890YOPE   PO410130   0.418   8.561   6.492  0.4072  0.1701  0.1227
  890YOPE   GL110131   0.365   8.614   6.849  0.0878  0.0109  0.1592
  890YOPE   GL210132   0.536   8.902   6.932 -0.3241  0.3000 -0.1371
  890YOPE   C1A10133   0.334   8.419   7.331 -0.2766 -0.3364  0.0927
  890YOPE   D2A10134   0.404   8.406   7.800 -0.0569  0.0358  0.0275
  890YOPE   C3A10135   0.378   8.157   7.991  0.1242  0.0270 -0.1636
  890YOPE   C4A10136   0.209   7.952   8.306 -0.0342  0.1772  0.0607
  890YOPE   C1B10137   0.675   8.827   7.237 -0.0683  0.2544 -0.0234
  890YOPE   C2B10138   0.696   8.780   7.622  0.4597  0.2134  0.0661
  890YOPE   D3B10139   0.716   8.693   8.068  0.0390 -0.0276 -0.0166
  890YOPE   C4B10140   0.553   8.501   8.480 -0.2666 -0.1643  0.0213
  891YOPE   NH310141   0.717  11.715   6.196 -0.2882 -0.1358 -0.0203
  891YOPE   PO410142   0.296  11.752   6.037  0.1591 -0.0835 -0.0363
  891YOPE   GL110143   0.168  11.655   6.462 -0.0604 -0.1000  0.0036
  891YOPE   GL210144   0.343  11.846   6.560 -0.2042  0.3153 -0.3419
  891YOPE   C1A10145   0.007  11.389   6.821 -0.0114 -0.1151 -0.1114
  891YOPE   D2A10146   0.147  11.431   7.155 -0.1529  0.1070 -0.1716
  891YOPE   C3A10147  -0.006  11.541   7.451  0.1990 -0.0669 -0.1627
  891YOPE   C4A10148  -0.006  11.682   7.800  0.0254 -0.4511 -0.1512
  891YOPE   C1B10149   0.353  12.204   6.750 -0.0124  0.1581 -0.0777
  891YOPE   C2B10150   0.464  12.354   7.121 -0.0709  0.0962  0.0189
  891YOPE   D3B10151   0.537  12.562   7.539 -0.2530 -0.1772 -0.0176
  891YOPE   C4B10152   0.446  12.496   7.914  0.5067 -0.4346 -0.0348
  892YOPE   NH310153  16.241  10.029   6.290  0.1221  0.0752  0.0134
  892YOPE   PO410154  16.102  10.561   6.201  0.0514  0.0363  0.2135
  892YOPE   GL110155  16.080  10.558   6.704 -0.0276 -0.0251  0.0315
  892YOPE   GL210156  15.833  10.319   6.753 -0.0646 -0.2127 -0.1047
  892YOPE   C1A10157  16.224  10.438   7.176 -0.3725  0.0126  0.1039
  892YOPE   D2A10158  16.076  10.433   7.578  0.2293 -0.1273 -0.0417
  892YOPE   C3A10159  16.270  10.370   7.980  0.1785  0.0587  0.1246
  892YOPE   C4A10160  16.124  10.086   8.305 -0.2120 -0.0008  0.0088
  892YOPE   C1B10161  15.728  10.234   7.194  0.2021  0.1174  0.0149
  892YOPE   C2B10162  15.657  10.275   7.707 -0.1966 -0.3205 -0.2084
  892YOPE   D3B10163  15.734  10.299   8.072  0.2067  0.3196 -0.2075
  892YOPE   C4B10164  15.691  10.329   8.554  0.0547  0.0718  0.0890
  893YOPE   NH310165   8.449  11.335   5.557  0.1017  0.1105 -0.1477
  893YOPE   PO410166   8.300  11.844   5.561 -0.0962  0.3322 -0.1852
  893YOPE   GL110167   8.160  11.660   5.932 -0.1226 -0.1157 -0.2604
  893YOPE   GL210168   8.188  11.400   6.061 -0.2849  0.0452  0.0981
  893YOPE   C1A10169   8.029  11.834   6.387  0.3167 -0.3028  0.1346
  893YOPE   D2A10170   7.729  11.795   6.692  0.4625 -0.0422  0.0076
  893YOPE   C3A10171   7.726  11.922   7.156 -0.0388  0.0086 -0.0659
  893YOPE   C4A10172   7.598  11.731   7.657 -0.1942 -0.3969 -0.0674
  893YOPE   C1B10173   8.524  11.391   6.301 -0.0000 -0.0548 -0.0659
  893YOPE   C2B10174   8.852  11.460   6.494 -0.1574 -0.0650 -0.1008
  893YOPE   D3B10175   9.003  11.601   6.840 -0.1937  0.0105  0.2658
  893YOPE   C4B10176   9.056  11.854   7.264  0.0059  0.3866  0.3567
  894YOPE   NH310177  17.100   7.660   6.574  0.0645  0.2049  0.0629
  894YOPE   PO410178  17.190   7.241   6.733  0.0093 -0.2412 -0.1815
  894YOPE   GL110179  17.098   7.465   7.063 -0.0964  0.0711  0.0056
  894YOPE   GL210180  17.284   7.651   7.034 -0.2874 -0.2340  0.0163
  894YOPE   C1A10181  16.793   7.443   7.290  0.4138 -0.0810  0.0013
  894YOPE   D2A10182  16.777   7.393   7.771 -0.0926  0.0470  0.0389
  894YOPE   C3A10183  17.039   7.347   8.095 -0.0699  0.1168 -0.1393
  894YOPE   C4A10184  17.050   7.349   8.472  0.1508 -0.1484 -0.1845
  894YOPE   C1B10185  17.103   7.815   7.386  0.0896 -0.3944 -0.0148
  894YOPE   C2B10186  17.058   7.768   7.750 -0.0225 -0.0851  0.1038
  894YOPE   D3B10187  17.126   7.806   8.253 -0.0125  0.1532 -0.0142
  894YOPE   C4B10188  17.131   7.868   8.621 -0.2112  0.2595 -0.2872
  895YOPE   NH310189  11.241   6.277   6.378  0.3184  0.1307 -0.2777
  895YOPE   PO410190  10.965   6.092   6.055 -0.3976 -0.1296  0.0654
  895YOPE   GL110191  10.768   6.265   6.548 -0.2019  0.2792  0.1109
  895YOPE   GL210192  10.554   6.349   6.636 -0.0086 -0.1474  0.1531
  895YOPE   C1A10193  10.893   6.229   6.961 -0.2712 -0.0478  0.0913
  895YOPE   D2A10194  10.819   6.257   7.381  0.0117 -0.0817 -0.2369
  895YOPE   C3A10195  10.717   6.412   7.788  0.0810 -0.1098 -0.1266
  895YOPE   C4A10196  10.525   6.531   8.279 -0.1768  0.4811 -0.1748
  895YOPE   C1B10197  10.542   6.550   7.020  0.3395  0.2181 -0.0925
  895YOPE   C2B10198  10.318   6.545   7.440  0.0450  0.1190  0.0530
  895YOPE   D3B10199  10.143   6.544   7.820  0.0886 -0.1413  0.2240
  895YOPE   C4B10200  10.190   6.883   8.143  0.2140  0.2096 -0.1472
  896YOPE   NH310201   9.568   1.521   5.542  0.1366 -0.0821  0.1205
  896YOPE   PO410202   9.145   1.540   5.576 -0.0040  0.2878  0.2354
  896YOPE   GL110203   9.149   1.526   5.961 -0.0443  0.0896  0.0555
  896YOPE   GL210204   8.968   1.714   6.108 -0.2388 -0.1269 -0.0853
  896YOPE   C1A10205   9.185   1.316   6.292 -0.0265  0.1954 -0.1563
  896YOPE   D2A10206   9.081   1.272   6.761 -0.0117  0.1498 -0.1431
  896YOPE   C3A10207   8.920   1.141   7.204 -0.0472  0.0052  0.0653
  896YOPE   C4A10208   8.815   1.187   7.623  0.2143 -0.0678 -0.2523
  896YOPE   C1B10209   9.137   1.796   6.549  0.0236 -0.1391  0.2600
  896YOPE   C2B10210   9.056   1.830   6.961 -0.0498  0.0943  0.2586
  896YOPE   D3B10211   8.952   1.916   7.389 -0.0557 -0.3292  0.2610
  896YOPE   C4B10212   8.992   1.730   7.787 -0.1091  0.4066 -0.0239
  897YOPE   NH310213   0.782   3.056   6.363 -0.3190  0.0592 -0.1934
  897YOPE   PO410214   1.017   3.093   6.661  0.1236 -0.1267 -0.1753
  897YOPE   GL110215   1.164   3.194   7.148 -0.2386 -0.0089  0.0358
  897YOPE   GL210216   1.429   3.138   7.192 -0.1719  0.0881 -0.1944
  897YOPE   C1A10217   1.035   3.187   7.560 -0.0889 -0.3296 -0.3406
  897YOPE   D2A10218   1.239   2.999   7.923  0.1888 -0.2398  0.1362
  897YOPE   C3A10219   1.563   2.740   7.942 -0.3558  0.0765 -0.4313
  897YOPE   C4A10220   1.815   2.749   8.331  0.3072 -0.1506 -0.0933
  897YOPE   C1B10221   1.304   2.794   7.439 -0.0683  0.1559 -0.1303
  897YOPE   C2B10222   1.204   2.500   7.725 -0.0669 -0.0728 -0.0929
  897YOPE   D3B10223   1.071   2.569   8.168 -0.1920 -0.0753 -0.0737
  897YOPE   C4B10224   0.941   2.925   8.339 -0.0484 -0.1758  0.0849
  898YOPE   NH310225  10.889  17.314   5.843  0.0039  0.1633 -0.0478
  898YOPE   PO410226  10.682  17.048   5.960  0.1193  0.0101 -0.1659
  898YOPE   GL110227  10.656  17.080   6.344  0.0779 -0.1624  0.0547
  898YOPE   GL210228  10.991  17.213   6.317 -0.3962  0.0579 -0.0567
  898YOPE   C1A10229  10.428  17.085   6.735 -0.2433 -0.0965 -0.2121
  898YOPE   D2A10230  10.051  16.824   6.757 -0.2272  0.2161 -0.2025
  898YOPE   C3A10231   9.861  16.714   7.170 -0.0860  0.1467 -0.1049
  898YOPE   C4A10232   9.721  17.088   7.456 -0.0140  0.4075 -0.0399
  898YOPE   C1B10233  11.013  17.018   6.745 -0.1544  0.1001 -0.0652
  898YOPE   C2B10234  11.194  16.782   7.187  0.3859 -0.4103  0.0595
  898YOPE   D3B10235  11.348  16.560   7.576 -0.2408  0.0942  0.1846
  898YOPE   C4B10236  11.599  16.213   7.793 -0.0738  0.1799 -0.0310
  899YOPE   NH310237   1.670   7.087   6.266  0.2551  0.0336  0.0325
  899YOPE   PO410238   1.745   6.724   6.311 -0.2255 -0.0361  0.0456
  899YOPE   GL110239   2.120   6.924   6.611  0.1938  0.1640 -0.0579
  899YOPE   GL210240   1.949   7.185   6.860  0.1338 -0.2047  0.1965
  899YOPE   C1A10241   2.530   7.098   6.747  0.0466 -0.0776  0.0527
  899YOPE   D2A10242   2.753   7.452   6.603 -0.0263  0.2743 -0.0650
  899YOPE   C3A10243   3.136   7.321   6.612 -0.1545 -0.1006  0.2327
  899YOPE   C4A10244   3.453   7.218   6.352 -0.1261  0.1265  0.1071
  899YOPE   C1B10245   2.204   7.110   7.168 -0.2073  0.0828 -0.0160
  899YOPE   C2B10246   2.227   7.110   7.575  0.2005  0.2349 -0.0663
  899YOPE   D3B10247   2.493   6.916   7.845  0.1901 -0.0334 -0.1106
  899YOPE   C4B10248   2.790   6.624   7.951 -0.1320  0.1168 -0.5540
  900YOPE   NH310249   0.812   0.539   6.528 -0.1763  0.3511 -0.1769
  900YOPE   PO410250   1.173   0.874   6.581  0.0807 -0.3412  0.2107
  900YOPE   GL110251   1.208   1.257   6.941 -0.0321  0.3162  0.2145
  900YOPE   GL210252   0.865   1.329   7.108 -0.2456  0.0854  0.3044
  900YOPE   C1A10253   1.329   1.469   7.237  0.0601 -0.2094  0.1077
  900YOPE   D2A10254   1.379   1.425   7.705  0.0231  0.0168 -0.0820
  900YOPE   C3A10255   1.301   1.496   8.103 -0.2823 -0.2453  0.1591
  900YOPE   C4A10256   1.061   1.678   8.381 -0.0646  0.0446 -0.2617
  900YOPE   C1B10257   0.913   1.281   7.490 -0.0226 -0.3190  0.1959
  900YOPE   C2B10258   0.921   1.260   7.856  0.1385 -0.2443 -0.4039
  900YOPE   D3B10259   1.052   1.079   8.155  0.0841 -0.2445 -0.1056
  900YOPE   C4B10260   1.266   0.814   8.217  0.0551 -0.0197  0.3151
  901YOPE   NH310261  12.054  12.169   6.183 -0.0604 -0.0539 -0.2880
  901YOPE   PO410262  12.315  12.431   6.078  0.3091  0.0858 -0.0338
  901YOPE   GL110263  12.397  12.524   6.512 -0.1996  0.1204 -0.4488
  901YOPE   GL210264  12.781  12.430   6.566 -0.1450  0.2096 -0.2634
  901YOPE   C1A10265  12.497  12.582   6.946 -0.2511  0.4260 -0.0807
  901YOPE   D2A10266  12.327  12.385   7.391 -0.3104  0.0486  0.2386
  901YOPE   C3A10267  12.386  12.611   7.720 -0.0751  0.0437 -0.0732
  901YOPE   C4A10268  12.527  12.658   8.114 -0.0259  0.1468 -0.2137
  901YOPE   C1B10269  13.048  12.346   6.966  0.1248  0.3880  0.1553
  901YOPE   C2B10270  12.870  12.487   7.316  0.0006 -0.1340 -0.1056
  901YOPE   D3B10271  12.973  12.557   7.766  0.4265  0.1740  0.3351
  901YOPE   C4B10272  13.160  12.229   8.116 -0.0634  0.1036  0.0070
  902YOPE   NH310273   0.757   0.052   6.698 -0.6056 -0.1976  0.1351
  902YOPE   PO410274   0.672  -0.280   6.814 -0.0353 -0.1570  0.1514
  902YOPE   GL110275   0.611  -0.345   7.187 -0.0637 -0.0001  0.1430
  902YOPE   GL210276   0.299  -0.480   7.199  0.4362  0.0243 -0.2601
  902YOPE   C1A10277   0.636  -0.354   7.635  0.0847 -0.1600 -0.2764
  902YOPE   D2A10278   0.618  -0.444   8.029  0.0761  0.1037  0.0286
  902YOPE   C3A10279   0.389  -0.261   8.401 -0.1584  0.1248  0.0718
  902YOPE   C4A10280   0.004  -0.043   8.684 -0.1473  0.1095 -0.1561
  902YOPE   C1B10281   0.191  -0.576   7.597 -0.0873  0.1112  0.1147
  902YOPE   C2B10282   0.186  -0.797   7.966  0.2245 -0.0543  0.0676
  902YOPE   D3B10283   0.277  -0.706   8.322  0.4505  0.1532  0.0601
  902YOPE   C4B10284   0.546  -0.699   8.673  0.2295 -0.2174  0.4265
  903YOPE   NH310285   9.650   6.052   6.121  0.0458 -0.2189  0.0611
  903YOPE   PO410286  10.089   6.212   6.320 -0.0590 -0.4558  0.3122
  903YOPE   GL110287  10.034   6.232   6.681  0.0217  0.1614 -0.2249
  903YOPE   GL210288  10.018   6.598   6.753  0.1856  0.1403 -0.0649
  903YOPE   C1A10289  10.106   6.288   7.133 -0.0774  0.2005  0.0190
  903YOPE   D2A10290   9.806   6.540   7.363  0.2516  0.1502 -0.2184
  903YOPE   C3A10291   9.637   6.335   7.675  0.1525 -0.4668 -0.0859
  903YOPE   C4A10292   9.806   6.174   8.015 -0.0603 -0.2103 -0.1533
  903YOPE   C1B10293   9.657   6.760   6.937 -0.1277  0.0552 -0.1093
  903YOPE   C2B10294   9.378   6.723   7.277 -0.4328  0.2921  0.1819
  903YOPE   D3B10295   9.355   6.794   7.664  0.0788 -0.0741 -0.0755
  903YOPE   C4B10296   9.223   7.053   7.997  0.2704 -0.1344  0.0236
  904YOPE   NH310297  10.091  13.963   5.749  0.1604 -0.0303 -0.2976
  904YOPE   PO410298  10.413  14.204   5.680  0.3874 -0.2656 -0.2136
  904YOPE   GL110299  10.426  14.290   6.134 -0.3056 -0.0449  0.0596
  904YOPE   GL210300  10.126  14.409   6.275 -0.0532 -0.1711  0.0596
  904YOPE   C1A10301  10.501  14.437   6.549 -0.2305  0.1134  0.1794
  904YOPE   D2A10302  10.407  14.666   6.914 -0.1160 -0.0895 -0.0497
  904YOPE   C3A10303  10.538  14.822   7.151 -0.2948 -0.2392  0.0451
  904YOPE   C4A10304  10.695  14.865   7.538  0.0743 -0.2807  0.0481
  904YOPE   C1B10305   9.742  14.446   6.614 -0.1358 -0.1493  0.0262
  904YOPE   C2B10306   9.499  14.764   6.901  0.2192  0.0285  0.0722
  904YOPE   D3B10307   9.451  14.779   7.356 -0.0952 -0.1614  0.0334
  904YOPE   C4B10308   9.811  14.543   7.671  0.1545  0.2620  0.0603
  905YOPE   NH310309   1.292   7.725   6.373  0.0639 -0.0469  0.1370
  905YOPE   PO410310   1.623   7.470   6.636  0.4725 -0.0374  0.0274
  905YOPE   GL110311   1.686   7.638   6.967 -0.1694  0.4890  0.1340
  905YOPE   GL210312   1.911   7.817   7.032 -0.1010 -0.2481  0.3189
  905YOPE   C1A10313   1.862   7.437   7.441 -0.0655  0.2469  0.0810
  905YOPE   D2A10314   1.869   7.370   7.906  0.0875  0.1701 -0.0115
  905YOPE   C3A10315   2.193   7.259   8.139 -0.2350  0.0200 -0.0249
  905YOPE   C4A10316   2.307   7.175   8.535  0.0220  0.1832 -0.1616
  905YOPE   C1B10317   1.913   7.995   7.447 -0.1648  0.2698 -0.1570
  905YOPE   C2B10318   2.315   8.155   7.660  0.1884  0.2905  0.0414
  905YOPE   D3B10319   2.466   8.421   7.937 -0.0963 -0.0013 -0.0272
  905YOPE   C4B10320   2.825   8.502   8.175 -0.1069 -0.0291 -0.2532
  906YOPE   NH310321  15.874  13.155   5.920  0.2247  0.0242  0.0869
  906YOPE   PO410322  15.891  13.561   5.772 -0.0636  0.1474  0.2594
  906YOPE   GL110323  15.882  13.584   6.228  0.0917 -0.0355  0.2079
  906YOPE   GL210324  16.121  13.393   6.321 -0.0493 -0.2450 -0.3231
  906YOPE   C1A10325  15.719  13.496   6.662  0.1136  0.1257  0.2238
  906YOPE   D2A10326  15.848  13.337   7.040 -0.1116  0.0556  0.1068
  906YOPE   C3A10327  16.288  13.202   7.140  0.1140  0.0046  0.1876
  906YOPE   C4A10328  16.587  12.927   7.385  0.0738  0.1067 -0.0192
  906YOPE   C1B10329  16.215  13.624   6.688  0.2693 -0.0717  0.1236
  906YOPE   C2B10330  16.215  13.769   7.050 -0.3609  0.1340 -0.0470
  906YOPE   D3B10331  15.996  13.600   7.440 -0.3641  0.1680 -0.3838
  906YOPE   C4B10332  15.849  13.436   7.831  0.0685  0.0133 -0.2956
  907YOPE   NH310333  12.732   4.412   6.043 -0.0718 -0.0837 -0.1901
  907YOPE   PO410334  12.355   4.695   6.061  0.1354 -0.1391  0.1146
  907YOPE   GL110335  12.247   4.817   6.447  0.1748  0.1053  0.0964
  907YOPE   GL210336  12.503   4.818   6.624 -0.0047  0.2100 -0.0010
  907YOPE   C1A10337  11.966   4.752   6.848 -0.0302 -0.0080 -0.3826
  907YOPE   D2A10338  11.777   4.612   7.217 -0.1076  0.3521  0.0377
  907YOPE   C3A10339  11.486   4.742   7.298  0.1729  0.2976 -0.3342
  907YOPE   C4A10340  11.440   5.004   7.669 -0.0325  0.0781 -0.0785
  907YOPE   C1B10341  12.841   4.748   6.855 -0.0196 -0.0014 -0.0273
  907YOPE   C2B10342  13.060   4.543   7.023  0.0429  0.1271  0.1690
  907YOPE   D3B10343  13.202   4.144   6.903  0.0921  0.0936  0.0423
  907YOPE   C4B10344  13.481   3.926   6.959 -0.0115  0.1226 -0.1664
  908YOPE   NH310345  16.901  14.027   5.936  0.0749 -0.0811 -0.0143
  908YOPE   PO410346  17.370  14.047   5.854 -0.2358 -0.0636  0.0947
  908YOPE   GL110347  17.469  13.984   6.258 -0.2916 -0.0334 -0.0384
  908YOPE   GL210348  17.649  13.791   6.324 -0.1608 -0.0385  0.3325
  908YOPE   C1A10349  17.325  14.200   6.530 -0.2264  0.1603  0.0505
  908YOPE   D2A10350  17.192  14.572   6.766 -0.0185  0.0709 -0.1368
  908YOPE   C3A10351  17.254  14.717   7.129  0.1570  0.0200  0.1177
  908YOPE   C4A10352  17.093  14.791   7.557  0.0648 -0.2614  0.1009
  908YOPE   C1B10353  17.297  13.734   6.655 -0.2143  0.1679  0.1704
  908YOPE   C2B10354  16.970  13.772   7.006  0.0238 -0.2304  0.3148
  908YOPE   D3B10355  16.697  13.825   7.212  0.1939  0.1985 -0.2891
  908YOPE   C4B10356  16.521  13.525   7.417  0.3522  0.0418  0.2011
  909YOPE   NH310357  11.744  14.210   6.171 -0.1992  0.0766 -0.0536
  909YOPE   PO410358  11.667  14.665   6.131 -0.2020  0.2561 -0.2892
  909YOPE   GL110359  11.604  14.763   6.488  0.0781 -0.0901  0.1762
  909YOPE   GL210360  11.555  15.111   6.382  0.2258 -0.0714 -0.1256
  909YOPE   C1A10361  11.561  14.806   6.928 -0.0422  0.0013 -0.0342
  909YOPE   D2A10362  11.593  15.094   7.229  0.0743  0.3579 -0.1673
  909YOPE   C3A10363  11.601  14.998   7.707  0.0315 -0.2333  0.2582
  909YOPE   C4A10364  11.492  14.926   8.198 -0.2516 -0.1969 -0.1148
  909YOPE   C1B10365  11.273  15.126   6.709  0.0609  0.2107 -0.1765
  909YOPE   C2B10366  11.136  15.068   7.091 -0.2212  0.4252  0.0077
  909YOPE   D3B10367  11.052  15.221   7.498 -0.3117 -0.0775 -0.1889
  909YOPE   C4B10368  11.295  15.286   7.934  0.2078  0.1674  0.0739
  910YOPE   NH310369  15.627   3.672   6.307  0.1762 -0.1252 -0.0326
  910YOPE   PO410370  15.301   3.433   6.516 -0.2033 -0.4367  0.1934
  910YOPE   GL110371  14.954   3.179   6.685 -0.2973  0.1589  0.0143
  910YOPE   GL210372  14.697   3.123   6.684  0.0787  0.3061 -0.1231
  910YOPE   C1A10373  14.869   3.332   7.100 -0.3015  0.5039 -0.3632
  910YOPE   D2A10374  14.837   3.479   7.475  0.6074 -0.0681  0.0768
  910YOPE   C3A10375  14.797   3.921   7.359  0.1850  0.3880  0.2719
  910YOPE   C4A10376  14.962   4.240   7.414 -0.0030  0.0172  0.0334
  910YOPE   C1B10377  14.561   2.977   7.100  0.0163  0.3232 -0.1624
  910YOPE   C2B10378  14.717   2.929   7.388 -0.2156 -0.1705 -0.0374
  910YOPE   D3B10379  14.680   3.186   7.840 -0.1092 -0.0584 -0.1400
  910YOPE   C4B10380  14.538   3.451   8.145 -0.0170 -0.1073 -0.2268
  911YOPE   NH310381   5.317   6.079   6.021 -0.1224 -0.3465 -0.1168
  911YOPE   PO410382   5.581   6.360   5.876 -0.2647 -0.4047 -0.0539
  911YOPE   GL110383   5.506   6.421   6.301  0.0676  0.0752 -0.1410
  911YOPE   GL210384   5.792   6.300   6.522 -0.2584  0.1644  0.2135
  911YOPE   C1A10385   5.388   6.059   6.638  0.0069 -0.0423 -0.1420
  911YOPE   D2A10386   5.610   6.138   7.015  0.1259  0.0189 -0.0828
  911YOPE   C3A10387   5.221   6.294   7.154 -0.4039  0.1341  0.3968
  911YOPE   C4A10388   5.002   6.220   7.541 -0.0306 -0.4997  0.0194
  911YOPE   C1B10389   5.930   6.550   6.822 -0.0717  0.4406  0.2148
  911YOPE   C2B10390   6.066   6.588   7.277 -0.0251 -0.2438  0.0685
  911YOPE   D3B10391   6.147   6.446   7.693 -0.1566 -0.0126  0.2512
  911YOPE   C4B10392   6.049   6.249   8.055 -0.2561 -0.2409 -0.0235
  912YOPE   NH310393  10.015   8.002   6.262  0.0398 -0.2832 -0.1145
  912YOPE   PO410394   9.731   7.655   6.216  0.2520  0.0551 -0.0225
  912YOPE   GL110395   9.637   7.393   6.597  0.0384 -0.2787 -0.2775
  912YOPE   GL210396   9.631   7.008   6.540  0.0073  0.2656  0.3913
  912YOPE   C1A10397   9.608   7.287   7.028  0.1511  0.1808 -0.0969
  912YOPE   D2A10398   9.542   7.187   7.382  0.0186 -0.1942 -0.2662
  912YOPE   C3A10399   9.376   7.474   7.695 -0.2021 -0.4258  0.0020
  912YOPE   C4A10400   9.265   7.580   8.057 -0.0705  0.2826  0.0092
  912YOPE   C1B10401   9.246   7.086   6.766  0.0633  0.0257 -0.0808
  912YOPE   C2B10402   9.104   7.124   7.131  0.0222  0.2099 -0.0737
  912YOPE   D3B10403   9.026   7.187   7.512 -0.1271 -0.6022 -0.2383
  912YOPE   C4B10404   8.796   7.359   7.939 -0.3406  0.1484 -0.0017
  913YOPE   NH310405   6.784  13.199   5.928  0.1439 -0.1704 -0.0377
  913YOPE   PO410406   6.897  13.215   6.333 -0.0548 -0.1442 -0.1414
  913YOPE   GL110407   7.109  13.126   6.733 -0.0383 -0.0702  0.2270
  913YOPE   GL210408   7.354  12.961   6.615  0.2185 -0.1358 -0.2157
  913YOPE   C1A10409   6.952  12.900   7.058  0.1423 -0.1137  0.0840
  913YOPE   D2A10410   6.695  12.741   7.318 -0.1164  0.2215 -0.1771
  913YOPE   C3A10411   6.742  12.846   7.742 -0.0680 -0.0690 -0.2695
  913YOPE   C4A10412   6.951  13.099   7.953 -0.1027 -0.2108  0.0422
  913YOPE   C1B10413   7.244  12.577   6.809 -0.1521 -0.3782  0.2934
  913YOPE   C2B10414   7.097  12.428   7.203 -0.0209  0.3499 -0.0483
  913YOPE   D3B10415   6.977  12.321   7.666 -0.2358 -0.1109  0.0373
  913YOPE   C4B10416   6.945  12.377   8.047  0.2857 -0.0032  0.1762
  914YOPE   NH310417  10.502   7.936   6.325 -0.1787  0.2589 -0.0982
  914YOPE   PO410418  10.281   7.605   6.507 -0.1584 -0.0448  0.1654
  914YOPE   GL110419  10.280   7.699   7.012  0.0180 -0.0157  0.0831
  914YOPE   GL210420  10.498   7.520   7.060 -0.0374 -0.0855 -0.0350
  914YOPE   C1A10421  10.243   7.847   7.396  0.1715 -0.0202 -0.0441
  914YOPE   D2A10422  10.301   7.940   7.796  0.1185  0.0288  0.0888
  914YOPE   C3A10423  10.630   8.205   7.880 -0.0689  0.2385  0.2256
  914YOPE   C4A10424  11.104   8.293   8.089  0.0923 -0.1037 -0.5300
  914YOPE   C1B10425  10.599   7.550   7.606 -0.2556  0.0596  0.0047
  914YOPE   C2B10426  10.520   7.451   8.035 -0.0232  0.2751  0.0770
  914YOPE   D3B10427  10.806   7.380   8.437 -0.2821 -0.0192  0.0180
  914YOPE   C4B10428  11.054   7.071   8.684  0.0779  0.1152  0.1442
  915YOPE   NH310429   5.711  16.173   5.976 -0.1232 -0.2394 -0.0644
  915YOPE   PO410430   5.945  16.528   5.930 -0.1867 -0.4158  0.0502
  915YOPE   GL110431   5.870  16.506   6.339  0.3209 -0.1468 -0.1394
  915YOPE   GL210432   5.920  16.850   6.579  0.3627  0.2382 -0.2522
  915YOPE   C1A10433   5.630  16.479   6.689 -0.3026 -0.1197  0.1639
  915YOPE   D2A10434   5.467  16.715   7.080  0.1177 -0.1728 -0.1919
  915YOPE   C3A10435   5.345  16.567   7.441  0.3041 -0.0598 -0.0845
  915YOPE   C4A10436   5.317  16.344   7.907  0.2169  0.0875 -0.0018
  915YOPE   C1B10437   6.014  16.710   6.940  0.0647 -0.0618 -0.1391
  915YOPE   C2B10438   6.020  16.627   7.415 -0.0076 -0.0205  0.2850
  915YOPE   D3B10439   5.723  16.660   7.705 -0.2612  0.1730  0.0651
  915YOPE   C4B10440   5.599  16.737   7.980  0.3121 -0.1623 -0.0467
  916YOPE   NH310441  16.654  17.462   6.089 -0.0788 -0.2987 -0.1486
  916YOPE   PO410442  16.342  17.640   5.802 -0.3616 -0.0182  0.3049
  916YOPE   GL110443  16.242  17.694   6.201  0.1272 -0.3466  0.1767
  916YOPE   GL210444  16.373  17.887   6.274  0.0643 -0.0210  0.1201
  916YOPE   C1A10445  16.049  17.681   6.585  0.0052 -0.2368  0.1837
  916YOPE   D2A10446  15.788  17.979   6.801 -0.1339 -0.3088 -0.0418
  916YOPE   C3A10447  15.738  17.987   7.257 -0.3678  0.1417 -0.2370
  916YOPE   C4A10448  15.539  17.995   7.610 -0.1399  0.0664 -0.0595
  916YOPE   C1B10449  16.374  17.899   6.803  0.0480  0.2426 -0.1421
  916YOPE   C2B10450  16.260  17.929   7.200 -0.3610  0.1544  0.2330
  916YOPE   D3B10451  16.028  18.222   7.550  0.1518  0.1514 -0.0396
  916YOPE   C4B10452  15.741  18.379   7.924  0.1058 -0.1966 -0.1016
  917YOPE   NH310453   1.519  14.787   6.233  0.2000  0.1314 -0.0775
  917YOPE   PO410454   1.457  15.243   6.116 -0.1490  0.1007 -0.0230
  917YOPE   GL110455   1.190  15.255   6.476  0.1255  0.2207  0.1814
  917YOPE   GL210456   1.240  14.857   6.659 -0.1347 -0.0020  0.2204
  917YOPE   C1A10457   1.212  15.177   7.038  0.1230  0.0397  0.0416
  917YOPE   D2A10458   1.044  15.048   7.562  0.1451 -0.0337  0.0554
  917YOPE   C3A10459   1.355  14.994   7.818  0.2970 -0.0011  0.1409
  917YOPE   C4A10460   1.668  15.209   8.134  0.1148 -0.1046  0.0475
  917YOPE   C1B10461   1.400  14.485   6.880  0.0211 -0.1290  0.3057
  917YOPE   C2B10462   1.374  14.268   7.220 -0.2414  0.1252  0.1916
  917YOPE   D3B10463   1.042  14.120   7.598  0.1311 -0.0410  0.1327
  917YOPE   C4B10464   0.680  13.968   7.849 -0.2529 -0.1918  0.2197
  918YOPE   NH310465   8.853   3.204   5.346 -0.3142  0.3211 -0.2483
  918YOPE   PO410466   8.723   3.339   5.727  0.2118 -0.0537  0.0722
  918YOPE   GL110467   8.982   3.282   6.142 -0.0149  0.1326 -0.1400
  918YOPE   GL210468   9.338   3.061   6.287 -0.3833  0.1022  0.1665
  918YOPE   C1A10469   8.923   3.177   6.604 -0.1664 -0.1403 -0.2035
  918YOPE   D2A10470   8.865   2.961   6.962  0.0944  0.0976 -0.0740
  918YOPE   C3A10471   8.905   2.855   7.444 -0.2172  0.1158  0.0531
  918YOPE   C4A10472   8.694   3.013   7.801 -0.2017  0.1389  0.2420
  918YOPE   C1B10473   9.322   3.055   6.792  0.1391  0.1694  0.0381
  918YOPE   C2B10474   9.403   2.938   7.139  0.1183  0.0961 -0.1635
  918YOPE   D3B10475   9.534   3.175   7.537 -0.2341  0.0227  0.0233
  918YOPE   C4B10476   9.489   3.517   7.655 -0.2366  0.0562  0.0732
  919YOPE   NH310477   9.172   9.938   6.169  0.0689  0.0498 -0.0825
  919YOPE   PO410478   8.893  10.209   6.116  0.0404  0.0455  0.0119
  919YOPE   GL110479   8.892  10.399   6.420  0.0271  0.1807 -0.0909
  919YOPE   GL210480   9.108  10.664   6.504 -0.1698 -0.3189  0.1447
  919YOPE   C1A10481   8.703  10.427   6.793 -0.0626 -0.0089  0.0630
  919YOPE   D2A10482   8.657  10.525   7.201  0.2295 -0.3110 -0.1239
  919YOPE   C3A10483   8.972  10.643   7.524  0.0009  0.0321  0.1903
  919YOPE   C4A10484   9.001  10.821   7.905 -0.0029  0.0092 -0.0275
  919YOPE   C1B10485   9.101  10.708   7.007 -0.0435  0.0728 -0.3423
  919YOPE   C2B10486   9.351  10.904   7.258 -0.1070  0.1249 -0.1132
  919YOPE   D3B10487   9.551  11.025   7.653  0.1560 -0.0147  0.2130
  919YOPE   C4B10488   9.357  11.078   8.116  0.0695 -0.3033 -0.1130
  920YOPE   NH310489  17.321  18.031   6.330 -0.2525  0.1349 -0.0785
  920YOPE   PO410490  17.031  17.770   6.197 -0.2037  0.1944 -0.2151
  920YOPE   GL110491  16.852  17.573   6.609 -0.0647  0.2020  0.0174
  920YOPE   GL210492  16.637  17.502   6.603  0.0703 -0.2802 -0.1632
  920YOPE   C1A10493  16.903  17.283   6.939  0.1150 -0.2600 -0.0160
  920YOPE   D2A10494  17.084  17.314   7.419  0.2664  0.0195 -0.0847
  920YOPE   C3A10495  17.483  17.080   7.628 -0.2166  0.0504  0.1381
  920YOPE   C4A10496  17.743  16.950   7.978 -0.1827  0.3063  0.1667
  920YOPE   C1B10497  16.329  17.400   6.890 -0.0215  0.2534  0.1140
  920YOPE   C2B10498  16.120  17.454   7.223  0.1859  0.0683 -0.0646
  920YOPE   D3B10499  16.065  17.583   7.586  0.2546 -0.2870 -0.1882
  920YOPE   C4B10500  16.008  17.825   7.928  0.2448 -0.2154  0.0540
  921YOPE   NH310501  10.334  15.242   5.716 -0.0379  0.1397 -0.0842
  921YOPE   PO410502  10.253  15.661   5.901  0.0877  0.0263  0.0092
  921YOPE   GL110503   9.902  15.791   6.125 -0.0348 -0.2243  0.0362
  921YOPE   GL210504   9.650  15.656   6.043  0.1195 -0.0939 -0.1092
  921YOPE   C1A10505   9.726  16.065   6.472  0.0690 -0.0366  0.1514
  921YOPE   D2A10506   9.415  16.128   6.734 -0.3831 -0.3223 -0.0855
  921YOPE   C3A10507   9.307  15.920   7.100  0.1979  0.0955 -0.1233
  921YOPE   C4A10508   9.345  15.547   7.250  0.0825 -0.0697  0.0522
  921YOPE   C1B10509   9.398  15.710   6.430  0.3188  0.0773  0.0028
  921YOPE   C2B10510   9.029  15.682   6.810  0.1649  0.1906 -0.1312
  921YOPE   D3B10511   8.970  15.355   6.921 -0.3720 -0.1790  0.0286
  921YOPE   C4B10512   9.169  15.075   7.089  0.0700 -0.0975  0.1807
  922YOPE   NH310513  12.088   5.769   6.513 -0.1926  0.1071 -0.1187
  922YOPE   PO410514  11.634   5.694   6.463  0.1150 -0.2348  0.4118
  922YOPE   GL110515  11.661   5.874   6.850  0.2328 -0.3512  0.1425
  922YOPE   GL210516  11.390   6.150   6.893  0.2185  0.0603 -0.0396
  922YOPE   C1A10517  11.650   5.801   7.247 -0.0572  0.1386  0.2342
  922YOPE   D2A10518  11.453   5.914   7.745 -0.0400  0.1029 -0.3274
  922YOPE   C3A10519  11.301   5.562   7.951 -0.0861 -0.5799  0.3250
  922YOPE   C4A10520  10.899   5.404   8.185 -0.2293 -0.1164 -0.0404
  922YOPE   C1B10521  11.316   6.184   7.238  0.0802  0.1389  0.3016
  922YOPE   C2B10522  11.241   6.448   7.716  0.1612 -0.0028  0.2565
  922YOPE   D3B10523  10.997   6.759   8.022 -0.1557  0.1975  0.0800
  922YOPE   C4B10524  10.680   6.990   8.055 -0.0679 -0.1300  0.1416
  923YOPE   NH310525  16.354  12.424   6.166 -0.2906 -0.1331  0.1993
  923YOPE   PO410526  16.098  12.723   6.203  0.1190 -0.1014  0.1101
  923YOPE   GL110527  16.108  12.577   6.585 -0.0811 -0.0187 -0.2554
  923YOPE   GL210528  15.731  12.521   6.594 -0.1224 -0.0851  0.0606
  923YOPE   C1A10529  15.931  12.400   6.985  0.0598 -0.0305 -0.1399
  923YOPE   D2A10530  15.828  12.165   7.338  0.0084  0.0699  0.1498
  923YOPE   C3A10531  15.727  12.393   7.688 -0.2912  0.0765  0.0161
  923YOPE   C4A10532  15.682  12.416   8.083  0.0035 -0.0157  0.0337
  923YOPE   C1B10533  15.729  12.857   6.894 -0.1424 -0.0411 -0.2776
  923YOPE   C2B10534  15.788  12.915   7.258 -0.2522 -0.0355 -0.2119
  923YOPE   D3B10535  16.103  13.098   7.583  0.3597  0.0087 -0.1053
  923YOPE   C4B10536  16.430  13.025   7.858  0.1267 -0.3431  0.0654
  924YOPE   NH310537   0.823  10.797   6.209  0.3333  0.2321 -0.0865
  924YOPE   PO410538   0.682  10.456   6.177 -0.1139  0.1948  0.2097
  924YOPE   GL110539   0.414  10.619   6.479 -0.0588 -0.3994  0.2438
  924YOPE   GL210540   0.118  10.363   6.568  0.0569  0.0221  0.0880
  924YOPE   C1A10541   0.162  10.849   6.840  0.2877 -0.0149  0.1049
  924YOPE   D2A10542   0.098  10.775   7.234 -0.0573  0.2588  0.1548
  924YOPE   C3A10543   0.087  11.009   7.524 -0.1554  0.2010  0.1530
  924YOPE   C4A10544   0.366  11.180   7.748  0.0533 -0.0775  0.0146
  924YOPE   C1B10545   0.105  10.362   7.018 -0.2642 -0.1811 -0.1984
  924YOPE   C2B10546   0.113  10.057   7.455  0.1502  0.1366  0.2656
  924YOPE   D3B10547   0.168  10.360   7.792  0.0076 -0.0391 -0.0419
  924YOPE   C4B10548   0.151  10.761   7.941 -0.1547 -0.0804 -0.0374
  925YOPE   NH310549  11.727   8.966   6.254  0.1369 -0.0147  0.3906
  925YOPE   PO410550  12.084   8.785   6.026  0.2977  0.1282 -0.0495
  925YOPE   GL110551  12.212   8.773   6.502  0.1424  0.0709  0.1389
  925YOPE   GL210552  12.442   8.909   6.818  0.1107  0.0076  0.1993
  925YOPE   C1A10553  12.177   8.533   6.987 -0.0221  0.1574 -0.1578
  925YOPE   D2A10554  12.272   8.270   7.430  0.1460 -0.2019 -0.0052
  925YOPE   C3A10555  12.191   7.977   7.683  0.0568  0.0546 -0.0247
  925YOPE   C4A10556  12.448   7.686   8.034  0.3736 -0.1442  0.1957
  925YOPE   C1B10557  12.479   8.840   7.262 -0.0513 -0.0516 -0.2615
  925YOPE   C2B10558  12.527   8.852   7.693  0.2704  0.0536 -0.2666
  925YOPE   D3B10559  12.447   8.750   7.931 -0.1080  0.1825 -0.1848
  925YOPE   C4B10560  12.648   8.569   8.285 -0.2798  0.1415 -0.1758
  926YOPE   NH310561   2.478  13.460   5.826 -0.1936  0.1209  0.1223
  926YOPE   PO410562   2.041  13.274   5.728  0.0694  0.0950  0.2841
  926YOPE   GL110563   1.972  13.163   6.162  0.0133  0.0341  0.1362
  926YOPE   GL210564   2.298  13.143   6.289  0.2699 -0.0040 -0.2348
  926YOPE   C1A10565   1.803  13.464   6.340  0.2019 -0.0445 -0.5230
  926YOPE   D2A10566   1.671  13.630   6.720  0.1679  0.3459 -0.0164
  926YOPE   C3A10567   1.740  13.929   7.060  0.0097 -0.0246  0.2484
  926YOPE   C4A10568   1.623  13.961   7.511 -0.1349  0.3622 -0.2054
  926YOPE   C1B10569   2.124  13.249   6.647  0.1473  0.3514  0.1860
  926YOPE   C2B10570   2.006  13.403   7.087 -0.1358  0.0344 -0.1877
  926YOPE   D3B10571   1.657  13.487   7.329 -0.2237 -0.1343  0.3151
  926YOPE   C4B10572   1.339  13.421   7.643 -0.0303  0.0725 -0.2514
  927YOPE   NH310573   3.080   3.991   6.166  0.0043 -0.0203 -0.1977
  927YOPE   PO410574   3.457   3.727   6.144 -0.2693 -0.3945  0.0740
  927YOPE   GL110575   3.479   3.935   6.461 -0.1908 -0.3637 -0.3456
  927YOPE   GL210576   3.222   3.831   6.612 -0.3251 -0.1093 -0.1745
  927YOPE   C1A10577   3.700   3.961   6.866  0.0502  0.2494 -0.0904
  927YOPE   D2A10578   3.723   4.013   7.240  0.1096 -0.1097  0.2631
  927YOPE   C3A10579   3.765   4.388   7.434 -0.1070  0.2409 -0.1813
  927YOPE   C4A10580   3.999   4.721   7.545 -0.1278  0.1573  0.4568
  927YOPE   C1B10581   3.179   3.903   7.057 -0.0898 -0.0899 -0.3367
  927YOPE   C2B10582   3.265   4.252   7.451  0.1081 -0.0677  0.1451
  927YOPE   D3B10583   3.407   4.450   7.791 -0.2401 -0.1137 -0.1200
  927YOPE   C4B10584   3.768   4.546   7.981 -0.2962  0.0605 -0.1129
  928YOPE   NH310585  12.516  15.174   5.978  0.0422  0.3231  0.2402
  928YOPE   PO410586  12.731  14.723   6.038  0.2060  0.0993 -0.2876
  928YOPE   GL110587  12.602  14.836   6.500 -0.4064  0.2023 -0.0704
  928YOPE   GL210588  12.461  15.136   6.537  0.3526 -0.0692 -0.4556
  928YOPE   C1A10589  12.529  14.752   6.909 -0.0904  0.0254 -0.0407
  928YOPE   D2A10590  12.944  14.582   7.131  0.0455 -0.1771  0.0491
  928YOPE   C3A10591  12.851  14.643   7.609 -0.2614 -0.0304  0.1143
  928YOPE   C4A10592  12.625  14.583   7.939  0.0903  0.2058 -0.4141
  928YOPE   C1B10593  12.314  15.148   7.036 -0.3817  0.0347 -0.1448
  928YOPE   C2B10594  12.152  14.998   7.454 -0.0623  0.0680  0.2680
  928YOPE   D3B10595  12.047  15.004   7.907  0.1683  0.2033  0.0754
  928YOPE   C4B10596  12.047  14.935   8.258 -0.1163 -0.3937  0.0771
  929YOPE   NH310597   9.462   8.755   6.200  0.2396 -0.0580 -0.0906
  929YOPE   PO410598   9.898   8.944   6.194  0.0276  0.0500 -0.0522
  929YOPE   GL110599   9.927   9.133   6.561  0.0619 -0.0984  0.0007
  929YOPE   GL210600   9.822   9.429   6.623 -0.0334 -0.3953  0.1594
  929YOPE   C1A10601  10.124   9.146   6.981 -0.1294 -0.0939  0.1906
  929YOPE   D2A10602  10.303   9.254   7.370  0.3951 -0.0475 -0.4067
  929YOPE   C3A10603  10.491   8.945   7.615 -0.0070 -0.0410 -0.0989
  929YOPE   C4A10604  10.423   8.826   8.161  0.1501  0.0700  0.1325
  929YOPE   C1B10605   9.734   9.448   6.969  0.0535 -0.3826  0.0753
  929YOPE   C2B10606   9.804   9.343   7.343  0.1569 -0.0935  0.1386
  929YOPE   D3B10607   9.965   9.176   7.766 -0.0271 -0.1110 -0.0490
  929YOPE   C4B10608  10.262   9.332   8.173 -0.0670 -0.1498 -0.0000
  930YOPE   NH310609   9.204  16.677   5.651 -0.2601 -0.0617  0.0039
  930YOPE   PO410610   9.106  16.262   5.717 -0.1506 -0.2055 -0.1065
  930YOPE   GL110611   8.799  16.384   6.077  0.1741 -0.3523 -0.2237
  930YOPE   GL210612   8.447  16.484   6.096 -0.1118 -0.1191  0.0857
  930YOPE   C1A10613   8.726  16.424   6.609  0.0639 -0.0695  0.1868
  930YOPE   D2A10614   8.348  16.366   6.809 -0.0560 -0.0855 -0.0373
  930YOPE   C3A10615   8.427  16.335   7.176  0.0385  0.1563 -0.0091
  930YOPE   C4A10616   8.296  16.345   7.561  0.0958 -0.1064 -0.5608
  930YOPE   C1B10617   8.421  16.095   6.421 -0.1292 -0.2138 -0.0642
  930YOPE   C2B10618   8.601  15.886   6.777 -0.2544  0.1587 -0.1030
  930YOPE   D3B10619   8.891  16.133   6.992 -0.0803  0.1634  0.3461
  930YOPE   C4B10620   9.052  16.228   7.386  0.2199  0.1309  0.0580
  931YOPE   NH310621   7.504   2.725   6.069 -0.1944 -0.2885 -0.2677
  931YOPE   PO410622   7.110   2.605   5.978 -0.2062  0.3322  0.3643
  931YOPE   GL110623   7.018   2.913   6.279  0.1416 -0.0808  0.1081
  931YOPE   GL210624   6.813   3.196   6.131  0.3157 -0.0966  0.1652
  931YOPE   C1A10625   7.003   3.080   6.681  0.2841 -0.2911 -0.2373
  931YOPE   D2A10626   6.913   3.085   7.156  0.1144 -0.2435 -0.1668
  931YOPE   C3A10627   7.161   3.047   7.463 -0.2695  0.0140 -0.0482
  931YOPE   C4A10628   7.470   3.099   7.867 -0.2439  0.0555 -0.0196
  931YOPE   C1B10629   6.642   3.432   6.492 -0.0426 -0.1001 -0.1210
  931YOPE   C2B10630   6.647   3.431   6.833  0.0293  0.3321  0.0763
  931YOPE   D3B10631   6.623   3.563   7.216  0.0014  0.0141  0.0379
  931YOPE   C4B10632   6.835   3.932   7.556  0.2227 -0.1160  0.1009
  932YOPE   NH310633   2.549  11.038   6.582  0.1030  0.1859  0.1950
  932YOPE   PO410634   2.447  11.333   6.134 -0.0833  0.0321 -0.0511
  932YOPE   GL110635   2.509  11.515   6.563  0.1125  0.0857 -0.1421
  932YOPE   GL210636   2.786  11.794   6.548 -0.3217  0.1384  0.1725
  932YOPE   C1A10637   2.209  11.793   6.743  0.3527 -0.1323  0.3488
  932YOPE   D2A10638   1.984  12.108   7.070  0.1078  0.0544 -0.1806
  932YOPE   C3A10639   1.919  11.987   7.537  0.2423 -0.0332  0.1797
  932YOPE   C4A10640   1.885  12.139   7.889 -0.0235  0.3004  0.1000
  932YOPE   C1B10641   2.672  11.807   6.914 -0.1153  0.1384 -0.2373
  932YOPE   C2B10642   2.433  11.891   7.210  0.0175 -0.0451 -0.0862
  932YOPE   D3B10643   2.483  11.942   7.777  0.0463  0.2023  0.0420
  932YOPE   C4B10644   2.510  11.996   8.216 -0.1090 -0.1668  0.1169
  933YOPE   NH310645   1.809  11.206   6.147 -0.2854 -0.0672  0.1693
  933YOPE   PO410646   2.081  11.232   6.523 -0.1545 -0.1370  0.3250
  933YOPE   GL110647   2.135  11.200   6.903 -0.2174 -0.2678 -0.0710
  933YOPE   GL210648   2.231  10.902   7.029  0.2988  0.4030 -0.2222
  933YOPE   C1A10649   2.215  11.424   7.208 -0.2329 -0.2261  0.2736
  933YOPE   D2A10650   2.152  11.568   7.548  0.0553  0.1102 -0.4424
  933YOPE   C3A10651   1.883  11.402   7.855 -0.4394 -0.0009 -0.3076
  933YOPE   C4A10652   1.705  11.296   8.247  0.0895  0.1950  0.2418
  933YOPE   C1B10653   2.366  10.546   7.472 -0.0368  0.0168 -0.0182
  933YOPE   C2B10654   2.281  10.501   7.884  0.0870  0.1954 -0.0363
  933YOPE   D3B10655   2.020  10.384   8.178  0.0350 -0.0267  0.3611
  933YOPE   C4B10656   1.871   9.994   8.420 -0.0446  0.0021  0.0512
  934YOPE   NH310657  10.625   2.090   5.972  0.2501  0.2310  0.2472
  934YOPE   PO410658  11.104   2.157   5.904  0.1570 -0.2113 -0.1200
  934YOPE   GL110659  11.246   2.139   6.310  0.5221 -0.3556 -0.1806
  934YOPE   GL210660  11.301   2.490   6.411 -0.2004  0.0344  0.0677
  934YOPE   C1A10661  11.386   2.084   6.829  0.0493 -0.1965 -0.2685
  934YOPE   D2A10662  11.420   2.290   7.216  0.1269 -0.0311 -0.4282
  934YOPE   C3A10663  11.403   2.000   7.490  0.2090 -0.0792  0.0658
  934YOPE   C4A10664  11.671   1.719   7.479  0.3732 -0.0406 -0.0767
  934YOPE   C1B10665  11.105   2.452   6.750  0.0270 -0.1705  0.0214
  934YOPE   C2B10666  10.924   2.477   7.210  0.1129  0.3928 -0.2485
  934YOPE   D3B10667  10.967   2.163   7.526 -0.0071 -0.0071 -0.1334
  934YOPE   C4B10668  11.043   2.073   7.915  0.0149 -0.1166  0.3739
  935YOPE   NH310669  15.035   1.018   6.094  0.2115  0.1800  0.1623
  935YOPE   PO410670  15.300   1.466   6.070  0.3374  0.1294 -0.2008
  935YOPE   GL110671  15.334   1.477   6.557  0.1907  0.2818  0.0177
  935YOPE   GL210672  15.454   1.619   6.760  0.2119  0.1168 -0.2141
  935YOPE   C1A10673  15.208   1.043   6.778  0.0745 -0.3032  0.0574
  935YOPE   D2A10674  15.164   0.889   7.210  0.0833 -0.0493  0.2156
  935YOPE   C3A10675  15.428   0.607   7.554  0.1747  0.0502  0.2171
  935YOPE   C4A10676  15.546   0.395   7.955 -0.1548 -0.2159  0.0691
  935YOPE   C1B10677  15.240   1.577   7.218  0.0107 -0.1507 -0.2887
  935YOPE   C2B10678  14.980   1.604   7.711  0.2166  0.1549 -0.0243
  935YOPE   D3B10679  14.718   1.596   7.989  0.3053  0.0339 -0.1164
  935YOPE   C4B10680  14.402   1.508   8.379 -0.4208 -0.2899 -0.3666
  936YOPE   NH310681  17.668   9.058   5.933 -0.1437  0.2640 -0.3049
  936YOPE   PO410682  18.026   9.438   6.134 -0.1079  0.1308  0.3492
  936YOPE   GL110683  17.890   9.656   6.526 -0.1539  0.0726 -0.1330
  936YOPE   GL210684  18.108   9.656   6.810 -0.2267  0.0390 -0.0396
  936YOPE   C1A10685  17.749   9.964   6.928  0.1389 -0.0960  0.1919
  936YOPE   D2A10686  17.673  10.108   7.310 -0.0184 -0.2045  0.0061
  936YOPE   C3A10687  17.859  10.152   7.789  0.2675  0.0084  0.0727
  936YOPE   C4A10688  18.088  10.287   8.058 -0.0271 -0.0058  0.1122
  936YOPE   C1B10689  18.147   9.719   7.181  0.1688  0.1483 -0.1523
  936YOPE   C2B10690  18.134   9.858   7.583 -0.4615 -0.2447 -0.2291
  936YOPE   D3B10691  18.363   9.757   7.877  0.1024 -0.0120 -0.0247
  936YOPE   C4B10692  18.474   9.951   8.231 -0.0374 -0.0233 -0.0079
  937YOPE   NH310693   5.162   8.751   5.671 -0.1692 -0.2982 -0.2326
  937YOPE   PO410694   5.484   8.507   6.017 -0.2586 -0.1492 -0.0762
  937YOPE   GL110695   5.370   8.568   6.481  0.0725  0.1383 -0.0126
  937YOPE   GL210696   5.099   8.689   6.608  0.1931  0.0237 -0.1223
  937YOPE   C1A10697   5.380   8.553   6.928  0.0801  0.0881 -0.1127
  937YOPE   D2A10698   5.549   8.444   7.389 -0.3950  0.3226 -0.0438
  937YOPE   C3A10699   5.586   8.124   7.692  0.1577  0.2336 -0.3006
  937YOPE   C4A10700   5.874   8.194   8.056  0.1030  0.0532 -0.1345
  937YOPE   C1B10701   4.856   8.671   6.910  0.2648 -0.1256  0.1232
  937YOPE   C2B10702   4.772   8.755   7.310  0.0008  0.1040 -0.1757
  937YOPE   D3B10703   4.809   9.057   7.633 -0.0611 -0.2516 -0.1196
  937YOPE   C4B10704   4.975   8.821   7.852 -0.2655  0.3253 -0.1410
  938YOPE   NH310705   1.736  12.864   5.767  0.1869  0.1216 -0.3465
  938YOPE   PO410706   1.752  12.463   5.893  0.1213  0.1684 -0.1493
  938YOPE   GL110707   2.011  12.641   6.295 -0.0970  0.2223  0.2303
  938YOPE   GL210708   2.301  12.585   6.328  0.1082 -0.2631 -0.0614
  938YOPE   C1A10709   1.997  12.792   6.704  0.0814 -0.3580  0.0682
  938YOPE   D2A10710   1.989  12.588   7.125 -0.2000 -0.1397  0.0457
  938YOPE   C3A10711   1.698  12.388   7.408 -0.0640  0.0219  0.1611
  938YOPE   C4A10712   1.518  12.412   7.792 -0.1323 -0.2245  0.2282
  938YOPE   C1B10713   2.494  12.857   6.662 -0.2443  0.0520 -0.1670
  938YOPE   C2B10714   2.310  13.015   7.067 -0.1277 -0.2249  0.1920
  938YOPE   D3B10715   2.324  12.932   7.439  0.0042  0.2360  0.1275
  938YOPE   C4B10716   2.022  12.678   7.684  0.1227 -0.3410 -0.1108
  939POPC   NC310717   7.658   3.939   5.294  0.3778 -0.0038 -0.0087
  939POPC   PO410718   7.383   3.781   5.565 -0.1343  0.0118  0.0916
  939POPC   GL110719   7.375   3.720   5.935  0.0500  0.0477 -0.0117
  939POPC   GL210720   7.666   3.758   6.141 -0.0615 -0.1005 -0.0795
  939POPC   C1A10721   7.330   3.325   6.194  0.1170 -0.1595 -0.0283
  939POPC   D2A10722   7.477   3.090   6.670 -0.2174 -0.0865 -0.0109
  939POPC   C3A10723   7.384   2.623   6.679 -0.0929 -0.0289  0.1612
  939POPC   C4A10724   7.128   2.276   6.755 -0.0234  0.1846 -0.0935
  939POPC   C1B10725   7.629   3.555   6.521 -0.0408  0.1236  0.1341
  939POPC   C2B10726   7.746   3.438   6.912  0.0910 -0.1732  0.1612
  939POPC   C3B10727   8.098   3.494   7.173  0.2949 -0.0676  0.1833
  939POPC   C4B10728   8.154   3.592   7.504  0.0268 -0.2126 -0.2276
  940POPC   NC310729  17.702  11.452   5.942  0.0999  0.1516  0.2569
  940POPC   PO410730  17.561  11.802   6.076  0.0429 -0.2414  0.1180
  940POPC   GL110731  17.338  12.022   6.474  0.0639  0.0153 -0.2557
  940POPC   GL210732  17.054  12.236   6.487 -0.1823  0.0469  0.3184
  940POPC   C1A10733  17.323  12.159   6.939  0.0368  0.2646  0.0824
  940POPC   D2A10734  16.833  12.264   7.026 -0.1242  0.2660  0.2125
  940POPC   C3A10735  16.750  12.427   7.366  0.1390 -0.0348  0.1663
  940POPC   C4A10736  16.663  12.588   7.746 -0.1200  0.1709  0.0294
  940POPC   C1B10737  16.831  11.893   6.686  0.4147 -0.0528 -0.2911
  940POPC   C2B10738  16.837  11.774   7.116 -0.0496 -0.1587 -0.2256
  940POPC   C3B10739  16.965  11.983   7.413  0.2591 -0.1330 -0.0506
  940POPC   C4B10740  16.961  12.139   7.831 -0.1578  0.0572  0.0611
  941POPC   NC310741   4.462   1.352   6.388 -0.0114  0.1206  0.0778
  941POPC   PO410742   4.290   1.778   6.193 -0.0277  0.2269 -0.3434
  941POPC   GL110743   4.278   1.852   6.658  0.5065 -0.0157  0.1333
  941POPC   GL210744   3.934   1.781   6.774  0.0673 -0.0338 -0.0208
  941POPC   C1A10745   4.508   1.701   7.108  0.1665  0.0760  0.1382
  941POPC   D2A10746   4.726   1.501   7.584  0.2231 -0.0980  0.1994
  941POPC   C3A10747   4.584   1.746   7.933 -0.1346  0.0626  0.0901
  941POPC   C4A10748   4.646   2.061   8.280  0.1243  0.5120 -0.0062
  941POPC   C1B10749   3.961   1.882   7.242  0.2414 -0.2257  0.2275
  941POPC   C2B10750   4.241   1.941   7.623  0.0778 -0.0442 -0.0016
  941POPC   C3B10751   4.155   2.131   8.018  0.0376  0.1332  0.1129
  941POPC   C4B10752   3.940   2.205   8.383  0.1987  0.0388 -0.0963
  942POPC   NC310753   5.214   0.915   6.175  0.1372  0.3233  0.2068
  942POPC   PO410754   5.510   0.899   6.535 -0.2428 -0.4384 -0.1182
  942POPC   GL110755   5.659   0.900   6.912  0.0665 -0.0471 -0.0416
  942POPC   GL210756   5.903   1.082   6.811  0.3555 -0.1346 -0.0374
  942POPC   C1A10757   5.832   1.065   7.296  0.2472 -0.0129  0.1419
  942POPC   D2A10758   6.029   1.119   7.669  0.0300  0.3069 -0.0367
  942POPC   C3A10759   5.836   1.054   8.011 -0.1182  0.2353 -0.2134
  942POPC   C4A10760   5.785   1.369   8.323  0.1242 -0.0721 -0.0440
  942POPC   C1B10761   6.205   1.209   7.016  0.1451 -0.2431 -0.3426
  942POPC   C2B10762   6.315   1.448   7.324 -0.0399 -0.0971 -0.1208
  942POPC   C3B10763   6.382   1.422   7.766 -0.1520 -0.0083  0.4122
  942POPC   C4B10764   6.607   1.641   7.956 -0.0002  0.3665  0.1560
  943POPC   NC310765  17.555   6.838   6.113 -0.0416 -0.1357  0.0364
  943POPC   PO410766  17.347   6.753   6.539  0.0112 -0.0095 -0.0339
  943POPC   GL110767  17.291   6.680   7.019 -0.2180 -0.0875  0.0991
  943POPC   GL210768  17.046   6.938   7.155  0.2396 -0.0338  0.2028
  943POPC   C1A10769  17.120   6.485   7.381 -0.0925  0.0508  0.0245
  943POPC   D2A10770  17.012   6.425   7.741  0.1122  0.0991 -0.1395
  943POPC   C3A10771  17.290   6.529   8.079  0.2238  0.1970 -0.2900
  943POPC   C4A10772  17.229   6.729   8.459  0.1692  0.2209  0.0944
  943POPC   C1B10773  17.291   6.906   7.545 -0.0153 -0.1121  0.1273
  943POPC   C2B10774  17.416   7.014   8.018  0.0516 -0.4614  0.0700
  943POPC   C3B10775  17.674   7.123   8.213  0.0436  0.0043 -0.0540
  943POPC   C4B10776  17.972   7.093   8.582 -0.0382  0.3960 -0.1822
  944POPC   NC310777  11.506   8.067   6.345 -0.0814 -0.0753 -0.1711
  944POPC   PO410778  11.120   7.736   6.305  0.0117 -0.1074  0.1529
  944POPC   GL110779  11.279   7.852   6.747 -0.0772  0.0399  0.2677
  944POPC   GL210780  11.265   8.226   6.903 -0.2699 -0.2706 -0.1794
  944POPC   C1A10781  11.101   7.585   7.012 -0.1238  0.1247  0.0673
  944POPC   D2A10782  10.925   7.232   7.074  0.1807 -0.0175 -0.2153
  944POPC   C3A10783  10.556   7.091   7.236  0.1271 -0.1298  0.0814
  944POPC   C4A10784  10.401   7.024   7.668 -0.3345 -0.3176  0.2905
  944POPC   C1B10785  11.504   7.911   7.205 -0.1147  0.0322 -0.0088
  944POPC   C2B10786  11.674   7.732   7.494 -0.1085 -0.1201 -0.1536
  944POPC   C3B10787  11.525   7.521   7.939  0.0421  0.0037 -0.6420
  944POPC   C4B10788  11.228   7.226   8.074 -0.1134  0.2987  0.3263
  945POPC   NC310789  17.239   5.867   6.374  0.1220  0.1079 -0.0422
  945POPC   PO410790  16.777   5.934   6.352  0.1489 -0.1625 -0.3814
  945POPC   GL110791  16.641   5.521   6.564 -0.1166 -0.0767  0.0926
  945POPC   GL210792  16.937   5.442   6.717 -0.0181 -0.2978  0.1884
  945POPC   C1A10793  16.273   5.340   6.812  0.1460 -0.2837 -0.1066
  945POPC   D2A10794  16.301   4.915   6.864 -0.0313  0.1650 -0.3201
  945POPC   C3A10795  16.141   4.929   7.290  0.0991 -0.1021 -0.2442
  945POPC   C4A10796  16.238   4.826   7.791  0.0220  0.2032  0.0084
  945POPC   C1B10797  16.772   5.223   7.028 -0.1845 -0.1457  0.1616
  945POPC   C2B10798  16.616   5.123   7.294 -0.0389 -0.0467 -0.1943
  945POPC   C3B10799  16.678   5.347   7.721 -0.1273 -0.1290  0.1993
  945POPC   C4B10800  16.588   5.666   8.014 -0.1144 -0.2712 -0.2152
  946POPC   NC310801  12.901   0.306   5.906 -0.2913  0.1053 -0.1059
  946POPC   PO410802  12.438   0.291   5.758 -0.1089  0.2223  0.1928
  946POPC   GL110803  12.457   0.274   6.178 -0.1847  0.4285  0.0767
  946POPC   GL210804  12.497   0.519   6.437 -0.0658  0.1008 -0.1517
  946POPC   C1A10805  12.314  -0.095   6.388  0.1543  0.1373  0.1199
  946POPC   D2A10806  12.115  -0.364   6.739  0.0595 -0.3369  0.0540
  946POPC   C3A10807  11.741  -0.207   6.800  0.0248 -0.1165  0.0563
  946POPC   C4A10808  11.333  -0.213   6.906 -0.1230  0.1236 -0.0445
  946POPC   C1B10809  12.183   0.393   6.881  0.0406 -0.1407  0.1107
  946POPC   C2B10810  11.993   0.202   7.227 -0.3336 -0.1469 -0.0657
  946POPC   C3B10811  11.617   0.135   7.413 -0.0515  0.4606  0.2325
  946POPC   C4B10812  11.338  -0.240   7.403 -0.0040  0.2290  0.2477
  947POPC   NC310813  16.086  15.911   5.983 -0.0101 -0.1074 -0.0569
  947POPC   PO410814  16.110  16.372   6.082  0.0492 -0.0609 -0.0497
  947POPC   GL110815  16.341  16.511   6.468  0.0977 -0.0177 -0.0346
  947POPC   GL210816  16.713  16.474   6.499  0.3519  0.2303  0.0030
  947POPC   C1A10817  16.367  16.513   6.983  0.0454 -0.0837  0.3577
  947POPC   D2A10818  16.076  16.312   7.236  0.0892 -0.0562  0.0914
  947POPC   C3A10819  15.858  16.717   7.475 -0.0706  0.1941 -0.1612
  947POPC   C4A10820  15.798  17.124   7.599  0.1208 -0.0657  0.1446
  947POPC   C1B10821  16.829  16.382   6.999 -0.2754  0.1504  0.0849
  947POPC   C2B10822  16.717  16.272   7.421  0.0162  0.1424 -0.0866
  947POPC   C3B10823  16.429  16.206   7.663  0.0787 -0.1338 -0.2293
  947POPC   C4B10824  15.997  16.212   7.742  0.0169 -0.1037  0.0541
  948POPC   NC310825   1.955   1.993   6.388 -0.0357  0.1909  0.0902
  948POPC   PO410826   2.399   2.023   6.407 -0.2819  0.1243  0.0109
  948POPC   GL110827   2.202   2.143   6.799  0.1860 -0.2483 -0.1346
  948POPC   GL210828   2.124   2.395   6.835  0.1520  0.2428 -0.0305
  948POPC   C1A10829   2.089   1.904   7.084 -0.0991 -0.4680 -0.0497
  948POPC   D2A10830   2.070   1.966   7.515 -0.1576  0.0751 -0.0152
  948POPC   C3A10831   2.166   1.896   7.848 -0.1196  0.1821  0.3618
  948POPC   C4A10832   2.098   1.631   8.268 -0.2298 -0.2548 -0.0889
  948POPC   C1B10833   2.160   2.451   7.240 -0.1672  0.1762 -0.1575
  948POPC   C2B10834   2.083   2.555   7.666  0.1188 -0.1043 -0.0169
  948POPC   C3B10835   2.117   2.837   7.993 -0.0563  0.2776 -0.0304
  948POPC   C4B10836   2.181   3.193   8.180  0.2710  0.1983  0.2007
  949POPC   NC310837   5.921   0.426   6.593 -0.1101 -0.0443 -0.0696
  949POPC   PO410838   5.789   0.067   6.712 -0.0338  0.3091  0.0246
  949POPC   GL110839   5.559  -0.018   7.010 -0.0024 -0.0082  0.2839
  949POPC   GL210840   5.288   0.064   6.958  0.0428 -0.1337 -0.1559
  949POPC   C1A10841   5.637   0.035   7.455  0.1362  0.1062  0.2853
  949POPC   D2A10842   5.953   0.139   7.713 -0.0443 -0.0509 -0.1084
  949POPC   C3A10843   5.918   0.115   8.212  0.1182  0.2739  0.0036
  949POPC   C4A10844   5.738   0.111   8.556 -0.5806 -0.2086 -0.1755
  949POPC   C1B10845   5.133   0.095   7.341  0.0769  0.1649 -0.3160
  949POPC   C2B10846   4.884   0.049   7.617  0.0749 -0.3684 -0.2084
  949POPC   C3B10847   4.877   0.119   7.975 -0.2991  0.1951 -0.0158
  949POPC   C4B10848   4.956   0.089   8.410  0.1603 -0.1673  0.2377
  950POPC   NC310849   3.925  13.990   4.935 -0.1714  0.0474 -0.1135
  950POPC   PO410850   3.883  13.546   5.285 -0.1481  0.1083  0.2059
  950POPC   GL110851   3.642  13.613   5.663  0.0589 -0.1610 -0.1075
  950POPC   GL210852   3.623  13.459   5.907  0.3872  0.0737 -0.0768
  950POPC   C1A10853   3.475  13.890   6.133 -0.2617 -0.2127 -0.0593
  950POPC   D2A10854   3.398  14.025   6.609 -0.1007  0.0120  0.2158
  950POPC   C3A10855   3.678  14.167   6.947 -0.2310  0.1256  0.0352
  950POPC   C4A10856   3.847  14.091   7.344 -0.0828 -0.2227  0.0961
  950POPC   C1B10857   3.413  13.123   6.128 -0.1477  0.3491  0.1178
  950POPC   C2B10858   3.425  12.772   6.433 -0.0096 -0.1496 -0.2880
  950POPC   C3B10859   3.360  12.567   6.825 -0.2418 -0.0573  0.1834
  950POPC   C4B10860   3.224  12.420   7.142 -0.1543 -0.1805  0.0165
  951POPC   NC310861  17.877   4.128   6.592 -0.0298 -0.2600  0.0654
  951POPC   PO410862  17.517   3.836   6.640  0.0614 -0.1895 -0.1439
  951POPC   GL110863  17.774   3.650   6.948 -0.0275  0.0281 -0.1029
  951POPC   GL210864  17.959   3.825   7.008  0.1945 -0.0808 -0.0712
  951POPC   C1A10865  17.856   3.528   7.377  0.0644  0.0813  0.1449
  951POPC   D2A10866  17.815   3.534   7.867  0.1481  0.1892  0.1604
  951POPC   C3A10867  17.688   3.764   8.215  0.2056  0.4564 -0.3753
  951POPC   C4A10868  17.816   4.134   8.437  0.0053  0.1732 -0.2086
  951POPC   C1B10869  17.869   4.007   7.353  0.2162  0.2758 -0.0273
  951POPC   C2B10870  17.699   4.028   7.698 -0.0939  0.4702  0.0666
  951POPC   C3B10871  17.472   4.147   8.028  0.1770  0.2468  0.4517
  951POPC   C4B10872  17.293   4.235   8.406  0.0688 -0.2807  0.2541
  952POPC   NC310873  16.350  14.784   5.995 -0.0271 -0.1277 -0.0777
  952POPC   PO410874  16.564  14.372   5.989 -0.0027 -0.0772  0.0059
  952POPC   GL110875  16.539  14.122   6.346  0.3608  0.1332  0.0015
  952POPC   GL210876  16.879  13.912   6.471 -0.0770 -0.0309 -0.2293
  952POPC   C1A10877  16.416  14.120   6.780 -0.0295 -0.0822 -0.1066
  952POPC   D2A10878  16.391  14.360   7.087  0.0301  0.1728  0.3920
  952POPC   C3A10879  16.350  14.090   7.464 -0.4914 -0.1059 -0.2174
  952POPC   C4A10880  16.133  13.849   7.806 -0.1189  0.0383 -0.1861
  952POPC   C1B10881  16.885  14.237   6.725  0.3597 -0.0462  0.1580
  952POPC   C2B10882  16.880  14.313   7.161  0.0854  0.2051  0.1537
  952POPC   C3B10883  16.707  14.602   7.335 -0.1504 -0.1056  0.3052
  952POPC   C4B10884  16.646  15.024   7.540 -0.0761  0.2876  0.2397
  953POPC   NC310885  14.325   9.447   6.512 -0.1680 -0.0281 -0.1599
  953POPC   PO410886  13.944   9.625   6.369 -0.0792 -0.0919 -0.0893
  953POPC   GL110887  13.842   9.578   6.785  0.0148 -0.3004 -0.1923
  953POPC   GL210888  13.459   9.428   6.777  0.1936  0.2451 -0.1000
  953POPC   C1A10889  13.699   9.700   7.202 -0.1251 -0.1841 -0.0566
  953POPC   D2A10890  13.687  10.009   7.531 -0.4315 -0.0691  0.1590
  953POPC   C3A10891  13.624   9.891   7.960  0.0635  0.3157  0.0979
  953POPC   C4A10892  13.643   9.703   8.363  0.2553  0.0363 -0.0481
  953POPC   C1B10893  13.218   9.600   7.193 -0.0413 -0.2310  0.0494
  953POPC   C2B10894  13.294   9.602   7.635 -0.4098  0.0679  0.0267
  953POPC   C3B10895  13.455   9.384   8.010 -0.3360 -0.0835 -0.1206
  953POPC   C4B10896  13.673   9.201   8.301 -0.0566  0.3953  0.1238
  954POPC   NC310897   9.106   5.371   5.928 -0.1071 -0.1051  0.2215
  954POPC   PO410898   9.085   5.813   6.012  0.2552  0.0168 -0.1203
  954POPC   GL110899   8.889   5.591   6.465  0.0400  0.0697 -0.2842
  954POPC   GL210900   9.130   5.411   6.700  0.2405  0.1624  0.0522
  954POPC   C1A10901   8.741   5.452   6.913  0.3496  0.0573 -0.1214
  954POPC   D2A10902   8.365   5.384   7.145  0.0123 -0.0774  0.0747
  954POPC   C3A10903   8.345   5.564   7.521 -0.3607  0.3227 -0.0374
  954POPC   C4A10904   8.627   5.772   7.860 -0.0429 -0.1892  0.3285
  954POPC   C1B10905   9.210   5.302   7.107  0.1919 -0.0500 -0.1796
  954POPC   C2B10906   9.233   4.959   7.343 -0.0428 -0.2227 -0.5134
  954POPC   C3B10907   9.495   4.831   7.704  0.1081 -0.0373 -0.1684
  954POPC   C4B10908   9.858   4.773   8.059 -0.0474  0.1223 -0.4054
  955POPC   NC310909   1.386  13.884   5.706  0.0082 -0.0905  0.2390
  955POPC   PO410910   1.129  13.456   5.675 -0.0083 -0.0913  0.0897
  955POPC   GL110911   1.121  13.550   6.050  0.1860  0.2263  0.0750
  955POPC   GL210912   0.960  13.331   6.151 -0.3449  0.2381  0.1714
  955POPC   C1A10913   1.063  13.669   6.509  0.0149  0.0698 -0.0135
  955POPC   D2A10914   1.256  13.360   6.894 -0.1215 -0.2864  0.0617
  955POPC   C3A10915   1.104  13.174   7.273 -0.1741 -0.0009 -0.1365
  955POPC   C4A10916   0.928  12.851   7.646 -0.1134  0.5057 -0.1942
  955POPC   C1B10917   0.951  13.101   6.496 -0.0157  0.0637 -0.3198
  955POPC   C2B10918   0.920  12.965   6.842 -0.0813 -0.1587 -0.1220
  955POPC   C3B10919   0.900  12.598   7.106 -0.1946 -0.0215 -0.0391
  955POPC   C4B10920   1.121  12.460   7.468 -0.1334  0.0998  0.0226
  956POPC   NC310921  12.288  12.936   6.215  0.4079 -0.1910 -0.1518
  956POPC   PO410922  11.862  12.721   6.012  0.0540  0.1387  0.0960
  956POPC   GL110923  11.894  12.654   6.475  0.2134  0.2209 -0.1831
  956POPC   GL210924  11.567  12.751   6.774 -0.0166 -0.2240 -0.1812
  956POPC   C1A10925  11.924  12.369   6.847 -0.2839 -0.2379  0.1453
  956POPC   D2A10926  11.800  12.348   7.342  0.3406 -0.0528  0.3090
  956POPC   C3A10927  12.040  12.150   7.673  0.1454  0.4568  0.1770
  956POPC   C4A10928  12.170  12.311   8.144 -0.0253 -0.1085  0.2444
  956POPC   C1B10929  11.402  12.592   7.165  0.1365 -0.1108 -0.0165
  956POPC   C2B10930  11.289  12.523   7.598 -0.1569  0.0703 -0.0632
  956POPC   C3B10931  11.248  12.411   8.022  0.1260 -0.0581  0.2023
  956POPC   C4B10932  11.403  12.198   8.456  0.1326 -0.1075 -0.0977
  957POPC   NC310933  12.728   0.078   5.308 -0.0860 -0.1792 -0.0061
  957POPC   PO410934  12.710  -0.157   5.777 -0.0562  0.0595 -0.0517
  957POPC   GL110935  12.770  -0.194   6.241  0.1221 -0.0771 -0.1328
  957POPC   GL210936  12.950   0.041   6.377  0.2177  0.0993  0.3673
  957POPC   C1A10937  12.835  -0.312   6.708 -0.0685  0.0560  0.4183
  957POPC   D2A10938  12.678  -0.405   7.027 -0.0675  0.0097  0.4435
  957POPC   C3A10939  12.750  -0.664   7.304  0.0453 -0.2036 -0.3281
  957POPC   C4A10940  12.882  -0.998   7.396  0.0609 -0.2887 -0.0370
  957POPC   C1B10941  12.765   0.139   6.633 -0.3358 -0.1186  0.2068
  957POPC   C2B10942  12.485  -0.003   6.917 -0.1151 -0.1054  0.1783
  957POPC   C3B10943  12.244  -0.239   7.170  0.0119  0.1672  0.2248
  957POPC   C4B10944  11.840  -0.329   7.310  0.2236 -0.2563 -0.0330
  958POPC   NC310945  15.861   0.668   6.045 -0.0746 -0.0272 -0.0556
  958POPC   PO410946  16.003   0.994   6.216 -0.2929 -0.4552  0.3242
  958POPC   GL110947  15.899   0.909   6.619 -0.1208 -0.0484 -0.1908
  958POPC   GL210948  15.761   1.214   6.783 -0.0254  0.1808 -0.0401
  958POPC   C1A10949  15.767   0.732   7.015 -0.2384  0.1734 -0.2336
  958POPC   D2A10950  15.812   0.373   7.274 -0.1637 -0.1010  0.0921
  958POPC   C3A10951  16.021   0.306   7.711 -0.2355 -0.3281 -0.0853
  958POPC   C4A10952  16.257   0.153   8.067 -0.0518  0.0659 -0.3596
  958POPC   C1B10953  15.557   1.159   7.085 -0.4020 -0.2276 -0.2584
  958POPC   C2B10954  15.365   1.182   7.558 -0.3514  0.1340 -0.1781
  958POPC   C3B10955  15.223   0.885   7.871 -0.2265  0.1704 -0.1645
  958POPC   C4B10956  15.374   0.807   8.248 -0.2396  0.1524  0.0781
  959POPC   NC310957   0.639  13.718   6.013 -0.1811  0.2260  0.3784
  959POPC   PO410958   0.380  14.060   5.735 -0.1050  0.2147 -0.0666
  959POPC   GL110959   0.588  14.142   6.257  0.2269 -0.2215 -0.0552
  959POPC   GL210960   0.345  14.116   6.414  0.0530 -0.0580  0.0246
  959POPC   C1A10961   0.764  14.043   6.607  0.3377  0.2476 -0.0835
  959POPC   D2A10962   0.904  14.081   7.090 -0.2618  0.0141  0.0330
  959POPC   C3A10963   0.550  13.902   7.356 -0.5301 -0.2177 -0.2162
  959POPC   C4A10964   0.237  14.000   7.673 -0.2928 -0.1593  0.3435
  959POPC   C1B10965   0.290  13.908   6.836  0.3893 -0.1595 -0.0060
  959POPC   C2B10966   0.120  13.745   7.237  0.1152 -0.0543 -0.1397
  959POPC   C3B10967   0.384  13.425   7.344  0.0828  0.0928  0.1998
  959POPC   C4B10968   0.628  13.014   7.299 -0.0247 -0.2287 -0.0429
  960POPC   NC310969   7.930   3.398   5.368  0.1137 -0.1902 -0.0097
  960POPC   PO410970   7.944   3.688   5.628 -0.1670 -0.2886 -0.2165
  960POPC   GL110971   8.127   3.682   6.161 -0.0856  0.0065  0.0720
  960POPC   GL210972   8.080   3.884   6.307  0.0126 -0.1062  0.1803
  960POPC   C1A10973   8.136   3.510   6.628  0.2288 -0.2993 -0.0695
  960POPC   D2A10974   8.419   3.229   6.942 -0.2908 -0.0022  0.1116
  960POPC   C3A10975   8.577   3.290   7.328 -0.0676  0.1076 -0.0502
  960POPC   C4A10976   8.593   3.520   7.713  0.3373 -0.0877 -0.2336
  960POPC   C1B10977   8.180   4.031   6.722  0.0266 -0.2259  0.0842
  960POPC   C2B10978   8.157   3.999   7.232  0.1126  0.0155  0.0823
  960POPC   C3B10979   8.247   4.155   7.662 -0.0392 -0.0682  0.0062
  960POPC   C4B10980   8.530   4.003   8.065  0.0947  0.0476 -0.0928
  961POPC   NC310981   8.668   9.294   6.270 -0.3413 -0.1995  0.0951
  961POPC   PO410982   8.171   9.563   6.268 -0.0259  0.2722  0.0855
  961POPC   GL110983   8.319   9.566   6.597  0.1361  0.0798 -0.3653
  961POPC   GL210984   8.285   9.235   6.609  0.0802 -0.0594 -0.2684
  961POPC   C1A10985   8.448   9.573   6.970 -0.0377  0.0387 -0.1096
  961POPC   D2A10986   8.448   9.691   7.439 -0.0110  0.1584  0.1146
  961POPC   C3A10987   8.270   9.436   7.852  0.2604  0.0716 -0.0644
  961POPC   C4A10988   7.847   9.500   8.101 -0.0304  0.1687 -0.0203
  961POPC   C1B10989   8.253   9.115   7.087 -0.2712 -0.0671 -0.0600
  961POPC   C2B10990   8.078   9.238   7.403 -0.0167 -0.1263 -0.1087
  961POPC   C3B10991   7.827   9.136   7.713  0.2678 -0.3253 -0.1581
  961POPC   C4B10992   7.433   9.291   7.858  0.0902 -0.2271 -0.0273
  962POPC   NC310993  14.722  16.063   5.437 -0.1130 -0.1947 -0.1471
  962POPC   PO410994  14.824  15.652   5.712 -0.1610 -0.0488  0.0758
  962POPC   GL110995  14.991  15.951   6.011 -0.1780  0.1503  0.2242
  962POPC   GL210996  14.871  16.006   6.230  0.1052  0.1272  0.1245
  962POPC   C1A10997  15.364  16.058   6.269  0.0169  0.1797  0.0018
  962POPC   D2A10998  15.747  16.102   6.289  0.3793  0.0140  0.0617
  962POPC   C3A10999  15.898  16.297   6.675  0.1226 -0.0901  0.0577
  962POPC   C4A11000  15.858  16.601   6.907 -0.0224  0.0632  0.0746
  962POPC   C1B11001  14.957  16.215   6.616 -0.1671  0.1708  0.3174
  962POPC   C2B11002  14.919  16.348   7.045  0.0089  0.0291 -0.0934
  962POPC   C3B11003  14.950  16.341   7.515 -0.3045  0.3694  0.1115
  962POPC   C4B11004  15.073  16.265   7.963  0.0357  0.0361  0.2199
  963POPC   NC311005   2.686  12.604   5.596  0.0958  0.1767  0.0681
  963POPC   PO411006   2.729  13.061   5.627  0.1021  0.2033 -0.2105
  963POPC   GL111007   2.916  13.261   6.053 -0.0318 -0.0794  0.3705
  963POPC   GL211008   2.995  13.607   5.982  0.0485  0.1339 -0.4196
  963POPC   C1A11009   3.025  13.077   6.434 -0.1020  0.0571  0.3205
  963POPC   D2A11010   2.970  12.738   6.633 -0.0388 -0.1425 -0.1372
  963POPC   C3A11011   2.851  12.756   7.011 -0.0975 -0.0171  0.0071
  963POPC   C4A11012   2.855  12.678   7.438  0.1134 -0.1520  0.0119
  963POPC   C1B11013   3.285  13.532   6.355  0.0975 -0.2171 -0.2487
  963POPC   C2B11014   3.246  13.528   6.727  0.0076 -0.0216 -0.0645
  963POPC   C3B11015   3.341  13.532   7.151 -0.0107  0.1652  0.1071
  963POPC   C4B11016   3.548  13.638   7.472 -0.0380  0.0338  0.2285
  964POPC   NC311017   5.279   5.385   5.543 -0.1923  0.3189 -0.0063
  964POPC   PO411018   5.492   5.511   5.896  0.0803 -0.3448  0.0615
  964POPC   GL111019   5.639   5.314   6.367 -0.2253  0.1407  0.1338
  964POPC   GL211020   5.960   5.493   6.475 -0.0829 -0.1200 -0.0591
  964POPC   C1A11021   5.781   5.117   6.789  0.2207  0.1582  0.0988
  964POPC   D2A11022   6.116   5.066   7.192  0.0720  0.4024  0.2724
  964POPC   C3A11023   6.163   5.162   7.648  0.0366  0.2058 -0.0600
  964POPC   C4A11024   6.205   5.299   8.045 -0.2714  0.3914 -0.2104
  964POPC   C1B11025   6.192   5.450   6.882 -0.1126 -0.1102  0.0951
  964POPC   C2B11026   6.056   5.519   7.265  0.0484  0.0270  0.2552
  964POPC   C3B11027   5.926   5.617   7.709 -0.2419 -0.1119 -0.1127
  964POPC   C4B11028   5.494   5.546   7.829  0.1435  0.2732 -0.2083
  965POPC   NC311029   4.650  10.324   6.079 -0.0616  0.2176 -0.3142
  965POPC   PO411030   4.233  10.366   6.099  0.0520  0.0708  0.1667
  965POPC   GL111031   4.222  10.402   6.517 -0.1678  0.2801 -0.0066
  965POPC   GL211032   3.966  10.569   6.599 -0.3006  0.0693 -0.1383
  965POPC   C1A11033   4.359  10.454   6.982  0.0649  0.1883  0.3223
  965POPC   D2A11034   4.583  10.597   7.374 -0.2611 -0.0783  0.1781
  965POPC   C3A11035   4.545  10.758   7.689 -0.1577 -0.1271  0.0597
  965POPC   C4A11036   4.504  10.858   8.065  0.1065 -0.3013  0.2063
  965POPC   C1B11037   3.877  10.680   7.046 -0.1406  0.1036 -0.2781
  965POPC   C2B11038   4.075  10.473   7.387 -0.0166 -0.0058 -0.3621
  965POPC   C3B11039   4.383  10.289   7.700  0.3839 -0.1579  0.4448
  965POPC   C4B11040   4.685  10.307   8.041  0.0879  0.1453  0.1146
  966POPC   NC311041   7.475  17.308   5.986  0.0736  0.0319  0.1601
  966POPC   PO411042   7.880  17.321   5.837  0.2221  0.0127  0.2085
  966POPC   GL111043   8.049  17.337   6.128  0.1666 -0.1743 -0.2062
  966POPC   GL211044   8.234  17.575   6.295  0.0407  0.1604 -0.0952
  966POPC   C1A11045   8.103  17.186   6.576  0.3700 -0.0014 -0.0116
  966POPC   D2A11046   8.199  17.254   6.989 -0.0938  0.0778 -0.0295
  966POPC   C3A11047   8.491  17.189   7.324 -0.0277 -0.0065  0.0867
  966POPC   C4A11048   8.771  17.223   7.631 -0.1496  0.2103 -0.0247
  966POPC   C1B11049   8.169  17.717   6.752 -0.2272  0.0482  0.1053
  966POPC   C2B11050   8.382  17.766   7.154  0.0832  0.0161 -0.0579
  966POPC   C3B11051   8.428  17.724   7.544 -0.2945 -0.2697  0.1358
  966POPC   C4B11052   8.792  17.833   7.710  0.2991 -0.0014  0.0104
  967POPC   NC311053   7.022   2.031   5.854  0.2965 -0.1873  0.2915
  967POPC   PO411054   6.849   1.652   5.920  0.0268 -0.0109  0.1517
  967POPC   GL111055   6.847   1.834   6.288  0.2216 -0.2428  0.1889
  967POPC   GL211056   6.534   1.768   6.532 -0.2886 -0.1037 -0.0784
  967POPC   C1A11057   6.997   1.819   6.748 -0.0101 -0.1685 -0.0560
  967POPC   D2A11058   7.279   1.811   6.990 -0.1718 -0.1685  0.3647
  967POPC   C3A11059   7.354   2.066   7.314 -0.0589 -0.0018  0.1267
  967POPC   C4A11060   7.352   2.484   7.476 -0.2131  0.4157  0.3241
  967POPC   C1B11061   6.456   1.766   6.975 -0.0613 -0.1039 -0.1805
  967POPC   C2B11062   6.426   1.865   7.499  0.0073  0.1601  0.3959
  967POPC   C3B11063   6.168   1.869   7.821 -0.1874 -0.4321 -0.1879
  967POPC   C4B11064   6.174   1.661   8.181  0.0124 -0.0645 -0.3141
  968POPC   NC311065  16.539  16.587   6.004 -0.0854  0.1037  0.1772
  968POPC   PO411066  16.829  16.968   5.963 -0.1526  0.0078  0.2334
  968POPC   GL111067  16.612  16.959   6.370 -0.0439 -0.0222 -0.0306
  968POPC   GL211068  16.785  16.945   6.588  0.0398  0.1214  0.1927
  968POPC   C1A11069  16.273  16.902   6.736 -0.3627  0.1784  0.0313
  968POPC   D2A11070  16.133  16.959   7.138  0.2275 -0.0767 -0.2115
  968POPC   C3A11071  16.361  16.674   7.421  0.0079 -0.1992  0.0318
  968POPC   C4A11072  16.627  16.693   7.795  0.1091 -0.2612 -0.2697
  968POPC   C1B11073  16.660  16.869   7.050  0.1430 -0.2825  0.1039
  968POPC   C2B11074  16.640  17.030   7.469  0.3581 -0.2500  0.2103
  968POPC   C3B11075  16.751  17.232   7.806 -0.0463 -0.0831 -0.1086
  968POPC   C4B11076  16.573  17.069   8.117  0.0683  0.1670  0.1540
  969POPC   NC311077   6.663  16.055   5.899  0.1860  0.0297 -0.2428
  969POPC   PO411078   7.013  15.807   5.927  0.2623  0.4389  0.0946
  969POPC   GL111079   7.079  16.019   6.269  0.3600  0.0832 -0.1442
  969POPC   GL211080   6.717  16.149   6.412  0.0422 -0.2520 -0.0864
  969POPC   C1A11081   7.297  16.169   6.625  0.1483  0.0508  0.2656
  969POPC   D2A11082   7.305  16.353   7.026 -0.4746  0.1552  0.1533
  969POPC   C3A11083   7.416  16.205   7.463  0.1293 -0.0858 -0.1153
  969POPC   C4A11084   7.517  15.918   7.794  0.1112 -0.1369  0.3055
  969POPC   C1B11085   6.819  16.182   6.828  0.0977 -0.0684  0.0821
  969POPC   C2B11086   6.726  16.294   7.239 -0.2708  0.1669  0.0817
  969POPC   C3B11087   6.964  16.412   7.534 -0.1707 -0.1490 -0.0910
  969POPC   C4B11088   6.776  16.438   7.914  0.3983  0.3210  0.0146
  970POPC   NC311089   1.581   3.276   5.894 -0.1886  0.3001  0.1533
  970POPC   PO411090   1.639   3.242   6.262 -0.0671 -0.3376 -0.0655
  970POPC   GL111091   1.599   3.149   6.659  0.0280  0.1236 -0.0092
  970POPC   GL211092   1.404   3.414   6.667 -0.1528  0.1517  0.1879
  970POPC   C1A11093   1.789   3.406   6.996  0.2998  0.3697  0.2004
  970POPC   D2A11094   1.847   3.494   7.394 -0.1011  0.3250 -0.1150
  970POPC   C3A11095   1.519   3.457   7.740  0.1460  0.1112 -0.2928
  970POPC   C4A11096   1.359   3.479   8.044 -0.2168  0.0855 -0.0806
  970POPC   C1B11097   1.465   3.741   6.975  0.1951  0.0632  0.2628
  970POPC   C2B11098   1.660   3.943   7.397  0.2077  0.0428 -0.0628
  970POPC   C3B11099   1.884   3.794   7.781 -0.6693  0.0360 -0.1578
  970POPC   C4B11100   1.977   4.082   8.146  0.1148 -0.1066 -0.0725
  971POPC   NC311101   9.801   0.599   5.778  0.0745  0.0159  0.1518
  971POPC   PO411102   9.337   0.613   5.611  0.3298  0.3064 -0.2160
  971POPC   GL111103   9.291   0.574   6.050  0.2743  0.1751  0.0442
  971POPC   GL211104   9.141   0.789   6.133 -0.3446  0.0406 -0.2487
  971POPC   C1A11105   8.951   0.455   6.477 -0.3527  0.0415  0.1865
  971POPC   D2A11106   8.705   0.295   6.784 -0.0370 -0.0306 -0.1454
  971POPC   C3A11107   8.573  -0.148   6.943  0.2207 -0.0210 -0.2335
  971POPC   C4A11108   8.686  -0.384   7.289  0.2403  0.0435  0.0671
  971POPC   C1B11109   9.349   0.881   6.532 -0.0844  0.2231  0.1009
  971POPC   C2B11110   9.314   0.891   7.031  0.2054  0.3004 -0.1604
  971POPC   C3B11111   9.376   0.861   7.472 -0.1022 -0.3650  0.1454
  971POPC   C4B11112   9.686   0.843   7.815 -0.0488  0.0988  0.0709
  972POPC   NC311113   0.281  16.222   5.897  0.2509  0.2081  0.0139
  972POPC   PO411114  -0.123  15.963   6.150  0.2537  0.2315  0.0955
  972POPC   GL111115  -0.203  15.969   6.609 -0.0470  0.1823  0.1805
  972POPC   GL211116  -0.567  16.130   6.716  0.1129  0.3674  0.2222
  972POPC   C1A11117  -0.099  15.761   6.920 -0.0624  0.0185 -0.1265
  972POPC   D2A11118   0.128  15.444   7.024  0.1932 -0.0011 -0.0605
  972POPC   C3A11119  -0.012  15.563   7.374 -0.1175 -0.2465  0.2693
  972POPC   C4A11120  -0.021  15.585   7.813 -0.0236 -0.0186 -0.1073
  972POPC   C1B11121  -0.634  15.978   7.118  0.2642 -0.0476 -0.1194
  972POPC   C2B11122  -0.483  15.688   7.302 -0.0476  0.0066  0.0968
  972POPC   C3B11123  -0.441  15.385   7.578  0.0083 -0.1880  0.1918
  972POPC   C4B11124  -0.497  15.256   8.042  0.0157 -0.1476 -0.1636
  973POPC   NC311125  18.323  10.681   6.242  0.0153 -0.2712  0.1133
  973POPC   PO411126  18.071  10.303   6.428  0.2238  0.1914  0.0677
  973POPC   GL111127  17.984  10.462   6.808 -0.1504  0.2004  0.1724
  973POPC   GL211128  17.692  10.641   6.699 -0.1864 -0.0524 -0.0647
  973POPC   C1A11129  18.118  10.237   7.179  0.2742 -0.1432  0.2497
  973POPC   D2A11130  18.254  10.559   7.521  0.4189 -0.0846  0.0891
  973POPC   C3A11131  18.138  10.780   7.803  0.0962 -0.0099  0.0994
  973POPC   C4A11132  18.113  10.736   8.206 -0.0931 -0.1769 -0.5239
  973POPC   C1B11133  17.634  10.589   7.143 -0.0947  0.0269 -0.1955
  973POPC   C2B11134  17.744  10.618   7.502  0.1068  0.0830  0.2623
  973POPC   C3B11135  17.676  10.662   7.971  0.0600 -0.2220 -0.1983
  973POPC   C4B11136  17.713  10.347   8.342  0.0794 -0.1596 -0.3360
  974POPC   NC311137  12.665   3.972   5.473 -0.0229 -0.2261 -0.0663
  974POPC   PO411138  12.882   4.005   5.824 -0.1568 -0.2618  0.2686
  974POPC   GL111139  12.851   3.822   6.172  0.0989 -0.0399 -0.2711
  974POPC   GL211140  12.706   3.524   6.383  0.1328  0.2507 -0.2047
  974POPC   C1A11141  13.128   3.756   6.532 -0.1819  0.0951 -0.0032
  974POPC   D2A11142  13.463   3.419   6.549 -0.1990 -0.1378  0.3591
  974POPC   C3A11143  13.815   3.592   6.694  0.0704 -0.1457 -0.0180
  974POPC   C4A11144  13.925   3.710   7.016 -0.1231  0.4702  0.1661
  974POPC   C1B11145  12.751   3.762   6.838  0.2750  0.2334 -0.0299
  974POPC   C2B11146  12.886   3.817   7.147  0.0048 -0.0808 -0.0445
  974POPC   C3B11147  12.972   3.594   7.602  0.1546  0.2743  0.0258
  974POPC   C4B11148  13.153   3.780   8.058 -0.1561 -0.2039  0.0555
  975POPC   NC311149  14.967  17.092   5.431 -0.0607 -0.1461  0.0354
  975POPC   PO411150  15.459  17.272   5.625 -0.1927  0.1374  0.2327
  975POPC   GL111151  15.492  17.323   6.048 -0.0786  0.0351 -0.0086
  975POPC   GL211152  15.786  17.277   6.226 -0.0638 -0.2097  0.1310
  975POPC   C1A11153  15.102  17.414   6.242 -0.1035 -0.1449  0.1308
  975POPC   D2A11154  14.757  17.578   6.175 -0.0002 -0.1090  0.0560
  975POPC   C3A11155  14.593  17.974   6.083  0.2550  0.0139 -0.0798
  975POPC   C4A11156  14.787  18.371   6.111  0.3649 -0.2164  0.2520
  975POPC   C1B11157  15.580  17.468   6.552  0.1236  0.0271  0.0793
  975POPC   C2B11158  15.256  17.756   6.679 -0.0719  0.1920 -0.1128
  975POPC   C3B11159  15.217  17.708   7.120 -0.2028  0.3009 -0.0462
  975POPC   C4B11160  15.115  17.761   7.483 -0.1664  0.2057  0.0480
  976POPC   NC311161  11.189   8.641   5.762 -0.2093  0.0520  0.2020
  976POPC   PO411162  11.270   9.080   6.049  0.0536 -0.3662  0.0157
  976POPC   GL111163  11.343   9.247   6.445 -0.0295 -0.0231 -0.2680
  976POPC   GL211164  11.727   9.386   6.527  0.3649 -0.4538  0.2335
  976POPC   C1A11165  11.451   9.270   6.896 -0.1968 -0.1125 -0.0724
  976POPC   D2A11166  11.428   9.546   7.249 -0.1300  0.0364 -0.1977
  976POPC   C3A11167  11.681   9.326   7.645  0.0108 -0.0328  0.1720
  976POPC   C4A11168  11.698   9.265   8.124  0.0502 -0.0814  0.0150
  976POPC   C1B11169  11.847   9.552   6.973 -0.1382 -0.0401 -0.0846
  976POPC   C2B11170  11.944   9.626   7.377  0.2148  0.1024 -0.0205
  976POPC   C3B11171  11.906   9.704   7.849  0.0149 -0.2981 -0.0684
  976POPC   C4B11172  11.804   9.751   8.180 -0.0056 -0.2611  0.1407
  977POPC   NC311173   6.503   9.137   5.904  0.3098 -0.0855 -0.3780
  977POPC   PO411174   6.460   9.572   6.005 -0.1934  0.0337 -0.2789
  977POPC   GL111175   6.334   9.413   6.405  0.2022 -0.2041  0.0030
  977POPC   GL211176   6.623   9.272   6.448  0.0717 -0.1172 -0.1429
  977POPC   C1A11177   6.400   9.304   6.900  0.0779  0.1504 -0.0085
  977POPC   D2A11178   6.219   9.121   7.170  0.0723 -0.0291  0.3637
  977POPC   C3A11179   6.449   8.862   7.522 -0.1807 -0.0916 -0.2764
  977POPC   C4A11180   6.416   8.752   7.966  0.5827  0.0117 -0.1711
  977POPC   C1B11181   6.852   9.125   6.731  0.2316 -0.1262 -0.0725
  977POPC   C2B11182   6.766   9.072   7.152  0.2239  0.2559  0.1194
  977POPC   C3B11183   6.513   9.322   7.565 -0.0177  0.1851  0.1374
  977POPC   C4B11184   6.355   9.281   8.041  0.0290 -0.0126 -0.2039
  978POPC   NC311185  11.888  10.731   6.194 -0.0899  0.3769  0.0160
  978POPC   PO411186  12.107  11.147   6.204 -0.0466  0.0759  0.2047
  978POPC   GL111187  12.105  11.154   6.490 -0.0843  0.1445  0.1033
  978POPC   GL211188  12.068  10.839   6.672 -0.0386 -0.1207 -0.1145
  978POPC   C1A11189  12.009  11.376   6.800  0.2558 -0.0333 -0.1072
  978POPC   D2A11190  12.288  11.400   7.192  0.3478 -0.3737 -0.2096
  978POPC   C3A11191  12.087  11.456   7.675 -0.2915 -0.0783  0.1344
  978POPC   C4A11192  11.897  11.678   7.941 -0.3145 -0.0339  0.2193
  978POPC   C1B11193  11.942  11.023   7.147 -0.2496  0.0747  0.2746
  978POPC   C2B11194  11.686  11.063   7.568 -0.0909 -0.1297  0.5392
  978POPC   C3B11195  11.283  11.161   7.763 -0.1464 -0.3069  0.0850
  978POPC   C4B11196  10.836  11.030   7.697  0.2443  0.1434  0.3340
  979YOPC   NC311197   2.389   4.212   5.764  0.2397  0.1566  0.0633
  979YOPC   PO411198   2.079   4.546   5.928  0.0661 -0.1518 -0.1457
  979YOPC   GL111199   2.221   4.492   6.376  0.1076  0.3047  0.0047
  979YOPC   GL211200   2.083   4.366   6.662  0.1315  0.0279 -0.0288
  979YOPC   C1A11201   2.575   4.529   6.639  0.3084 -0.0098 -0.2134
  979YOPC   D2A11202   2.874   4.246   6.759  0.1874  0.2414  0.0943
  979YOPC   C3A11203   3.363   4.323   6.875  0.3395 -0.3900 -0.1504
  979YOPC   C4A11204   3.675   4.641   7.005 -0.1339 -0.3275  0.0166
  979YOPC   C1B11205   1.964   4.561   6.955 -0.0260  0.0664 -0.0426
  979YOPC   C2B11206   1.704   4.778   7.128  0.3834 -0.0018  0.1956
  979YOPC   D3B11207   1.531   4.677   7.554 -0.2278 -0.5200  0.0760
  979YOPC   C4B11208   1.665   4.326   7.804 -0.1077  0.0935  0.0608
  980YOPC   NC311209  12.921  13.458   5.737 -0.0979 -0.3144  0.3268
  980YOPC   PO411210  12.462  13.380   5.977  0.0096  0.1581 -0.1123
  980YOPC   GL111211  12.424  13.486   6.400 -0.0974 -0.0345  0.0822
  980YOPC   GL211212  12.527  13.792   6.553 -0.1714  0.2316  0.1811
  980YOPC   C1A11213  12.041  13.670   6.523  0.0210  0.1319 -0.2100
  980YOPC   D2A11214  11.845  13.889   6.698  0.1082 -0.2662 -0.1981
  980YOPC   C3A11215  11.983  14.134   7.089  0.2854 -0.3505 -0.1442
  980YOPC   C4A11216  12.409  14.347   7.236  0.2572  0.1354 -0.0319
  980YOPC   C1B11217  12.581  13.825   7.056 -0.1085 -0.1633 -0.0441
  980YOPC   C2B11218  12.242  13.688   7.366 -0.4109 -0.3079 -0.2082
  980YOPC   D3B11219  12.282  13.575   7.798  0.0948  0.1697 -0.2536
  980YOPC   C4B11220  12.222  13.437   8.237 -0.0318 -0.0961 -0.0391
  981YOPC   NC311221  13.762   8.163   6.721  0.1382  0.1054 -0.1583
  981YOPC   PO411222  14.113   7.976   6.827 -0.0568  0.1135  0.2629
  981YOPC   GL111223  14.077   7.939   7.187  0.0273 -0.1703  0.1805
  981YOPC   GL211224  13.838   8.157   7.238 -0.1603 -0.2470  0.0426
  981YOPC   C1A11225  14.132   8.077   7.583  0.1519 -0.1707  0.2552
  981YOPC   D2A11226  14.041   8.272   8.015 -0.2224 -0.3987 -0.1740
  981YOPC   C3A11227  13.953   8.077   8.381  0.1240  0.1722 -0.2338
  981YOPC   C4A11228  13.600   8.047   8.815  0.2957 -0.1820  0.2488
  981YOPC   C1B11229  13.676   8.309   7.589 -0.0057  0.2717  0.3230
  981YOPC   C2B11230  13.550   8.432   7.986 -0.1149  0.0352  0.1031
  981YOPC   D3B11231  13.822   8.698   8.233  0.1224 -0.3347 -0.0757
  981YOPC   C4B11232  14.040   8.656   8.577  0.2681  0.0151 -0.0548
  982YOPC   NC311233  14.452   9.996   6.542  0.1695 -0.2610 -0.0755
  982YOPC   PO411234  14.861   9.716   6.631 -0.0211 -0.0284 -0.2964
  982YOPC   GL111235  14.666   9.565   7.031 -0.4201 -0.2261 -0.1870
  982YOPC   GL211236  14.346   9.653   6.975  0.0322 -0.1226  0.3770
  982YOPC   C1A11237  14.716   9.183   7.231  0.2188  0.0925  0.3239
  982YOPC   D2A11238  14.943   9.019   7.608  0.1431  0.1538 -0.2006
  982YOPC   C3A11239  14.751   8.969   8.120 -0.2135 -0.0598 -0.2386
  982YOPC   C4A11240  14.682   9.046   8.445  0.0518 -0.0175  0.2102
  982YOPC   C1B11241  14.262   9.497   7.408  0.3454  0.0807  0.1427
  982YOPC   C2B11242  14.507   9.270   7.714  0.1293 -0.2127  0.0496
  982YOPC   D3B11243  14.641   9.406   8.026  0.0137 -0.1097  0.2115
  982YOPC   C4B11244  14.975   9.559   8.295 -0.2021 -0.2532 -0.3713
  983YOPC   NC311245  10.333  13.022   6.038  0.0801  0.1514 -0.2508
  983YOPC   PO411246  10.229  12.636   5.895 -0.1193 -0.1230  0.1822
  983YOPC   GL111247  10.095  12.635   6.367  0.1018  0.1412 -0.0222
  983YOPC   GL211248   9.779  12.595   6.481  0.0459 -0.2374 -0.2071
  983YOPC   C1A11249  10.185  12.579   6.772 -0.0338 -0.0883 -0.1895
  983YOPC   D2A11250  10.261  12.249   7.097  0.0166 -0.0635  0.3074
  983YOPC   C3A11251  10.068  12.296   7.552  0.3727 -0.2933 -0.2648
  983YOPC   C4A11252   9.973  12.613   7.867 -0.2377 -0.0061  0.2609
  983YOPC   C1B11253   9.568  12.735   6.841 -0.0407  0.0008 -0.1377
  983YOPC   C2B11254   9.299  12.703   7.264 -0.0331  0.1489 -0.2019
  983YOPC   D3B11255   9.489  12.537   7.711  0.0437  0.1357  0.3672
  983YOPC   C4B11256   9.225  12.289   7.980  0.0825 -0.0464 -0.2010
  984YOPC   NC311257  14.954   0.664   5.687 -0.1570 -0.2103  0.0727
  984YOPC   PO411258  14.642   0.818   5.792 -0.0991 -0.4608  0.0287
  984YOPC   GL111259  14.624   0.757   6.117 -0.1934  0.1065 -0.0091
  984YOPC   GL211260  14.303   0.721   6.423  0.2658  0.2605  0.1971
  984YOPC   C1A11261  14.604   0.351   6.301 -0.2507 -0.0419  0.0132
  984YOPC   D2A11262  14.772   0.224   6.715 -0.0695  0.0857  0.0110
  984YOPC   C3A11263  14.658  -0.094   7.083 -0.1654 -0.3263 -0.0499
  984YOPC   C4A11264  14.734  -0.592   7.190  0.1173 -0.2592  0.1640
  984YOPC   C1B11265  14.380   0.490   6.802 -0.0011 -0.1438 -0.0807
  984YOPC   C2B11266  14.386   0.393   7.197 -0.1219  0.3227 -0.1252
  984YOPC   D3B11267  14.417   0.630   7.580 -0.0591  0.2496 -0.0853
  984YOPC   C4B11268  14.478   0.521   7.906  0.1870  0.0897 -0.3556
  985YOPC   NC311269  16.431   2.128   6.101 -0.2263 -0.0304 -0.3116
  985YOPC   PO411270  16.615   2.129   6.548 -0.1020 -0.0094 -0.1099
  985YOPC   GL111271  16.262   2.085   6.930 -0.0543  0.0740  0.2911
  985YOPC   GL211272  16.562   2.161   7.033  0.1955  0.2303  0.1801
  985YOPC   C1A11273  15.790   2.155   7.115 -0.1685 -0.0135  0.2230
  985YOPC   D2A11274  15.350   2.036   7.159 -0.0742  0.0137 -0.2336
  985YOPC   C3A11275  15.085   2.018   7.573 -0.0553  0.1077 -0.0328
  985YOPC   C4A11276  14.875   2.189   7.836 -0.1978 -0.0378 -0.0275
  985YOPC   C1B11277  16.664   2.269   7.475 -0.2037 -0.1004 -0.2691
  985YOPC   C2B11278  16.453   2.298   7.829 -0.1855 -0.2411  0.2004
  985YOPC   D3B11279  16.120   2.618   7.952  0.4034 -0.2791 -0.4363
  985YOPC   C4B11280  15.714   2.796   8.282 -0.2383  0.1627 -0.0729
  986YOPC   NC311281  17.814   6.470   6.948  0.2756 -0.1625  0.0844
  986YOPC   PO411282  18.078   6.810   6.899  0.1779  0.2884 -0.3315
  986YOPC   GL111283  18.047   6.724   7.297 -0.0162 -0.1769 -0.1039
  986YOPC   GL211284  17.741   6.777   7.338  0.0366 -0.1814  0.2166
  986YOPC   C1A11285  18.269   6.852   7.619 -0.1641  0.0550 -0.3347
  986YOPC   D2A11286  18.269   6.898   8.048 -0.3483  0.0518 -0.1430
  986YOPC   C3A11287  18.311   7.209   8.261 -0.1375 -0.1136 -0.0889
  986YOPC   C4A11288  18.566   7.405   8.567  0.0479 -0.0440  0.0277
  986YOPC   C1B11289  17.773   6.785   7.795  0.0336 -0.1854  0.0062
  986YOPC   C2B11290  17.820   6.615   8.305  0.1531 -0.1623 -0.0812
  986YOPC   D3B11291  18.198   6.285   8.441  0.2767  0.0735 -0.2437
  986YOPC   C4B11292  18.291   5.911   8.539 -0.3682 -0.3243  0.1905
  987YOPC   NC311293   3.340   2.350   5.876 -0.0808  0.1757  0.3535
  987YOPC   PO411294   3.683   2.395   6.131  0.1768  0.0059 -0.0726
  987YOPC   GL111295   3.624   2.450   6.610 -0.0250 -0.2557  0.2544
  987YOPC   GL211296   3.926   2.416   6.853 -0.0521 -0.0104 -0.0831
  987YOPC   C1A11297   3.517   2.571   7.075 -0.1594 -0.1914  0.3254
  987YOPC   D2A11298   3.536   2.600   7.604 -0.0217  0.2682  0.1290
  987YOPC   C3A11299   3.522   2.318   7.939  0.0707 -0.1005  0.2083
  987YOPC   C4A11300   3.507   2.456   8.321 -0.0359 -0.0683 -0.1314
  987YOPC   C1B11301   4.275   2.691   7.102 -0.0706  0.1549 -0.1902
  987YOPC   C2B11302   4.711   2.562   7.243  0.3260 -0.2105 -0.1033
  987YOPC   D3B11303   4.875   2.784   7.659  0.0847  0.1402 -0.0024
  987YOPC   C4B11304   4.931   2.851   8.077  0.1239  0.1116 -0.1204
  988YOPC   NC311305   3.545   5.744   5.962  0.0091  0.1659  0.0228
  988YOPC   PO411306   3.971   5.523   6.047 -0.0647 -0.0075 -0.0287
  988YOPC   GL111307   3.965   5.306   6.406 -0.0549 -0.1521 -0.0843
  988YOPC   GL211308   4.292   5.156   6.391  0.1643 -0.0334  0.0367
  988YOPC   C1A11309   3.925   5.231   6.741  0.0682 -0.3103 -0.0517
  988YOPC   D2A11310   3.905   5.352   7.146  0.0264 -0.0809  0.2530
  988YOPC   C3A11311   3.866   5.207   7.472 -0.0016 -0.2576  0.2061
  988YOPC   C4A11312   3.969   5.084   7.885 -0.3323  0.0118 -0.3241
  988YOPC   C1B11313   4.375   5.451   6.721  0.1708 -0.1577 -0.2748
  988YOPC   C2B11314   4.388   5.556   7.121 -0.0852 -0.0371  0.0875
  988YOPC   D3B11315   4.214   5.599   7.503  0.0654  0.1897  0.0126
  988YOPC   C4B11316   4.208   5.496   7.898 -0.1296  0.4002  0.0216
  989YOPC   NC311317   2.806   6.730   5.844  0.1668  0.0083  0.1347
  989YOPC   PO411318   2.957   6.348   5.789  0.1337  0.3039  0.2809
  989YOPC   GL111319   2.812   6.415   6.207  0.0657 -0.1291  0.1438
  989YOPC   GL211320   3.031   6.509   6.349 -0.1441  0.2603 -0.1731
  989YOPC   C1A11321   2.584   6.477   6.571 -0.1365 -0.1598 -0.1003
  989YOPC   D2A11322   2.622   6.311   6.915 -0.1740 -0.1138 -0.1124
  989YOPC   C3A11323   3.008   6.501   7.051  0.1876 -0.0963 -0.1975
  989YOPC   C4A11324   3.256   6.394   6.756 -0.0315 -0.0349  0.2831
  989YOPC   C1B11325   2.954   6.843   6.633 -0.1612 -0.1276 -0.2349
  989YOPC   C2B11326   2.965   7.030   7.007  0.1573  0.1002 -0.0813
  989YOPC   D3B11327   3.264   7.336   7.229  0.0280 -0.1963  0.4257
  989YOPC   C4B11328   3.333   7.707   6.944  0.1392  0.4254  0.0111
  990YOPC   NC311329  11.110  12.310   5.994 -0.0628 -0.3433 -0.0222
  990YOPC   PO411330  11.567  12.348   6.186 -0.0026  0.1527 -0.3634
  990YOPC   GL111331  11.335  12.340   6.619 -0.0949  0.0124  0.1157
  990YOPC   GL211332  11.086  12.557   6.455 -0.1203 -0.0565  0.0542
  990YOPC   C1A11333  11.446  12.129   7.017 -0.0749  0.0465  0.1140
  990YOPC   D2A11334  11.376  12.051   7.399  0.0668  0.2776  0.1934
  990YOPC   C3A11335  11.526  12.120   7.709 -0.2207 -0.0706 -0.1130
  990YOPC   C4A11336  11.693  12.154   8.067  0.1389 -0.3040  0.1195
  990YOPC   C1B11337  10.856  12.463   6.851 -0.2205  0.2132 -0.0558
  990YOPC   C2B11338  10.770  12.220   7.201  0.0289 -0.2271 -0.1030
  990YOPC   D3B11339  10.562  12.452   7.539 -0.0061  0.1786  0.1418
  990YOPC   C4B11340  10.484  12.750   7.807 -0.0103 -0.2871 -0.1946
  991YOPC   NC311341  13.327  11.524   6.065  0.3146  0.3452 -0.0293
  991YOPC   PO411342  13.684  11.662   6.211 -0.0021 -0.1944 -0.0731
  991YOPC   GL111343  13.937  11.734   6.588  0.1476 -0.0353 -0.1240
  991YOPC   GL211344  13.778  11.986   6.665 -0.1868 -0.0910  0.0808
  991YOPC   C1A11345  13.993  11.576   6.972 -0.1370  0.2161  0.0461
  991YOPC   D2A11346  14.217  11.263   7.233 -0.1000  0.2624 -0.2961
  991YOPC   C3A11347  14.181  11.280   7.662 -0.2377 -0.0725  0.0843
  991YOPC   C4A11348  14.255  11.399   7.967  0.2432 -0.0130  0.0090
  991YOPC   C1B11349  13.497  12.164   6.816 -0.3213 -0.0054 -0.2033
  991YOPC   C2B11350  13.420  12.247   7.254  0.1645 -0.0573 -0.0839
  991YOPC   D3B11351  13.443  12.205   7.708 -0.0512 -0.1446  0.0448
  991YOPC   C4B11352  13.419  11.823   7.838  0.1101  0.6414 -0.2049
  992YOPC   NC311353   5.433   1.352   6.375  0.0563 -0.2708 -0.1308
  992YOPC   PO411354   5.009   1.329   6.455 -0.2784 -0.0739 -0.1678
  992YOPC   GL111355   4.783   1.205   6.797  0.2341 -0.0932 -0.0548
  992YOPC   GL211356   4.578   1.285   6.854  0.1383 -0.1485  0.3476
  992YOPC   C1A11357   5.003   1.058   7.147  0.3196  0.2224 -0.1592
  992YOPC   D2A11358   5.340   1.094   7.422 -0.3639 -0.0890 -0.0910
  992YOPC   C3A11359   5.291   1.128   7.816 -0.1025 -0.0459 -0.2966
  992YOPC   C4A11360   5.406   1.139   8.173  0.3606 -0.1537 -0.0806
  992YOPC   C1B11361   4.962   1.557   7.114 -0.2123  0.1190  0.2632
  992YOPC   C2B11362   5.195   1.580   7.441  0.0321 -0.0738  0.0157
  992YOPC   D3B11363   5.290   1.847   7.770  0.0182  0.1926  0.1706
  992YOPC   C4B11364   5.291   2.219   7.643  0.1224  0.0674  0.0944
  993YOPC   NC311365   1.492  17.417   6.075 -0.1452 -0.1182 -0.1136
  993YOPC   PO411366   1.101  17.238   6.267 -0.1484  0.0018 -0.1076
  993YOPC   GL111367   1.074  17.183   6.712  0.0276  0.0253 -0.0866
  993YOPC   GL211368   1.000  17.071   7.117 -0.2066  0.1404 -0.0893
  993YOPC   C1A11369   1.242  17.459   7.008  0.0924 -0.1755 -0.2819
  993YOPC   D2A11370   1.342  17.597   7.353 -0.0639  0.0631  0.1677
  993YOPC   C3A11371   1.335  17.581   7.782  0.0747 -0.1545 -0.0156
  993YOPC   C4A11372   1.183  17.606   8.084 -0.1214  0.2306  0.5434
  993YOPC   C1B11373   1.086  17.207   7.562 -0.1172 -0.4641 -0.1377
  993YOPC   C2B11374   1.110  17.145   8.035  0.0232  0.2579  0.1178
  993YOPC   D3B11375   1.502  17.031   8.214  0.0414  0.1151  0.0524
  993YOPC   C4B11376   1.862  17.167   8.343  0.0420 -0.0960  0.3711
  994YOPC   NC311377   8.623   2.410   5.575  0.3540  0.0383 -0.2638
  994YOPC   PO411378   8.172   2.383   5.684  0.1743 -0.0220  0.0466
  994YOPC   GL111379   8.351   2.412   6.101 -0.1245  0.0981 -0.2094
  994YOPC   GL211380   8.693   2.238   6.147 -0.0025 -0.4718  0.0278
  994YOPC   C1A11381   8.472   2.525   6.519 -0.0351  0.2722 -0.1574
  994YOPC   D2A11382   8.513   2.793   6.707  0.0278  0.1971  0.1957
  994YOPC   C3A11383   8.425   3.112   6.438 -0.0954 -0.3468  0.0805
  994YOPC   C4A11384   8.236   2.918   6.209 -0.0186  0.2162 -0.1290
  994YOPC   C1B11385   8.846   2.132   6.496 -0.0009 -0.0134 -0.0407
  994YOPC   C2B11386   8.668   2.119   6.913  0.1445 -0.0093  0.2662
  994YOPC   D3B11387   8.610   2.381   7.286  0.0604 -0.1006  0.3622
  994YOPC   C4B11388   8.503   2.746   7.219 -0.0955 -0.1644 -0.1177
  995YOPC   NC311389   0.871   7.021   6.520  0.1203 -0.0333  0.2369
  995YOPC   PO411390   1.199   7.240   6.444  0.0664  0.1695  0.1584
  995YOPC   GL111391   1.133   7.419   6.756  0.3988  0.0462 -0.0585
  995YOPC   GL211392   1.214   7.704   6.852 -0.0389 -0.0895 -0.2895
  995YOPC   C1A11393   1.228   7.298   7.198 -0.1891 -0.1015 -0.1741
  995YOPC   D2A11394   1.401   7.228   7.529 -0.1084 -0.0410  0.5220
  995YOPC   C3A11395   1.293   7.405   7.978  0.1032  0.2670 -0.0249
  995YOPC   C4A11396   1.220   7.831   8.063  0.1211 -0.0802  0.4215
  995YOPC   C1B11397   1.385   7.777   7.312  0.1245  0.2100  0.0062
  995YOPC   C2B11398   1.525   7.747   7.652 -0.0536  0.4737  0.0380
  995YOPC   D3B11399   1.773   8.010   7.922 -0.1824 -0.0433  0.1768
  995YOPC   C4B11400   2.026   8.313   8.161 -0.0714  0.4048  0.0320
  996YOPC   NC311401   0.636   1.984   6.506  0.1135  0.1127 -0.2044
  996YOPC   PO411402   1.093   2.069   6.505 -0.0448 -0.2216  0.4992
  996YOPC   GL111403   1.332   1.883   6.850  0.0541 -0.2756  0.4723
  996YOPC   GL211404   1.622   1.823   6.950 -0.0808 -0.1694 -0.3432
  996YOPC   C1A11405   1.019   1.874   7.156 -0.2758 -0.1550 -0.2117
  996YOPC   D2A11406   0.921   1.756   7.490 -0.3259  0.2309  0.1920
  996YOPC   C3A11407   1.225   1.906   7.750 -0.1763 -0.0951 -0.0308
  996YOPC   C4A11408   1.243   2.129   8.071  0.0887 -0.2149  0.0784
  996YOPC   C1B11409   1.599   1.846   7.442  0.2620 -0.0732  0.0295
  996YOPC   C2B11410   1.683   1.763   7.974  0.2267  0.0099  0.2273
  996YOPC   D3B11411   1.629   1.696   8.473  0.1042  0.0939 -0.0175
  996YOPC   C4B11412   1.922   1.524   8.714 -0.0058  0.1984  0.4830
  997YOPC   NC311413  13.105   6.970   6.539  0.0936  0.1702  0.2320
  997YOPC   PO411414  13.369   6.746   6.790  0.3465  0.2150  0.0403
  997YOPC   GL111415  13.298   7.069   7.142  0.0306 -0.1578  0.2590
  997YOPC   GL211416  13.477   7.313   7.282  0.2841  0.1567  0.2734
  997YOPC   C1A11417  13.159   7.017   7.609 -0.1500  0.0178  0.0150
  997YOPC   D2A11418  13.219   6.830   7.997  0.0406  0.0325 -0.2018
  997YOPC   C3A11419  13.120   6.694   8.426  0.2514 -0.1423 -0.0120
  997YOPC   C4A11420  12.891   6.637   8.755  0.0336  0.2174 -0.0890
  997YOPC   C1B11421  13.585   7.299   7.592  0.0360  0.1083  0.1138
  997YOPC   C2B11422  13.572   7.295   8.054  0.0849 -0.4605 -0.0301
  997YOPC   D3B11423  13.348   7.551   8.268  0.1588  0.3285 -0.2310
  997YOPC   C4B11424  12.994   7.871   8.203 -0.1956  0.0560  0.2495
  998YOPC   NC311425  14.402   2.759   6.447 -0.1395 -0.4354  0.1927
  998YOPC   PO411426  14.379   3.083   6.231 -0.1635 -0.0886 -0.0327
  998YOPC   GL111427  14.181   3.219   6.575  0.1874  0.0704 -0.6395
  998YOPC   GL211428  14.339   3.526   6.723  0.4915  0.1285 -0.0502
  998YOPC   C1A11429  14.086   3.240   7.021 -0.0759 -0.2608 -0.0232
  998YOPC   D2A11430  14.270   3.141   7.460  0.0669  0.0223  0.2208
  998YOPC   C3A11431  14.137   3.162   7.935 -0.2826 -0.1510 -0.2099
  998YOPC   C4A11432  13.871   2.945   8.322  0.1242 -0.0398 -0.0602
  998YOPC   C1B11433  14.351   3.638   7.226 -0.1243  0.2626  0.0827
  998YOPC   C2B11434  14.454   3.686   7.701  0.1656  0.1773 -0.1929
  998YOPC   D3B11435  14.391   3.929   7.949 -0.1352  0.1483  0.0943
  998YOPC   C4B11436  14.676   4.247   7.838 -0.0753  0.1161 -0.0352
  999YOPC   NC311437  11.665  16.074   5.939  0.2402  0.0327 -0.0383
  999YOPC   PO411438  12.104  16.250   5.983  0.1608  0.1967 -0.0602
  999YOPC   GL111439  11.965  16.387   6.409 -0.1153 -0.3476 -0.2242
  999YOPC   GL211440  12.030  16.396   6.735  0.0607 -0.0776  0.1347
  999YOPC   C1A11441  12.014  16.865   6.528  0.0586  0.0458  0.2367
  999YOPC   D2A11442  12.004  17.302   6.830 -0.2575 -0.1718  0.1464
  999YOPC   C3A11443  12.361  17.672   6.730 -0.0561  0.1349  0.1732
  999YOPC   C4A11444  12.483  17.750   6.322  0.2724  0.1782 -0.0685
  999YOPC   C1B11445  12.192  16.705   7.001 -0.1463 -0.0409  0.3371
  999YOPC   C2B11446  12.281  17.120   7.138  0.0140  0.1826  0.0021
  999YOPC   D3B11447  12.643  17.327   6.937 -0.3847 -0.0987  0.1924
  999YOPC   C4B11448  12.855  17.577   6.659 -0.1901 -0.1783 -0.2510
 1000YOPC   NC311449   4.122   6.636   6.089 -0.0348 -0.0870 -0.2442
 1000YOPC   PO411450   4.545   6.601   5.834  0.1948  0.1269  0.0935
 1000YOPC   GL111451   4.795   6.598   6.284  0.3589  0.2205 -0.1197
 1000YOPC   GL211452   4.975   6.331   6.408 -0.0949  0.2510 -0.0366
 1000YOPC   C1A11453   4.865   6.583   6.814 -0.0640  0.3813 -0.0626
 1000YOPC   D2A11454   4.864   6.641   7.204  0.1350 -0.2654  0.0620
 1000YOPC   C3A11455   5.000   6.823   7.528  0.3594  0.3075  0.1426
 1000YOPC   C4A11456   5.169   6.685   7.829  0.0861  0.0765  0.3695
 1000YOPC   C1B11457   5.362   6.613   6.800  0.0128 -0.0919  0.0312
 1000YOPC   C2B11458   5.338   6.843   7.132  0.0110 -0.2367  0.0751
 1000YOPC   D3B11459   5.465   6.579   7.431  0.2454 -0.1692  0.0175
 1000YOPC   C4B11460   5.701   6.576   7.859  0.0645 -0.0420 -0.1258
 1001YOPC   NC311461   6.303  16.824   6.056  0.1870  0.0791  0.0966
 1001YOPC   PO411462   6.305  16.321   6.164 -0.1638 -0.0326 -0.1419
 1001YOPC   GL111463   6.176  16.099   6.462  0.0760 -0.2275 -0.2880
 1001YOPC   GL211464   5.834  15.932   6.417 -0.2905  0.0108 -0.1622
 1001YOPC   C1A11465   6.250  16.185   6.853  0.3839 -0.3495 -0.3156
 1001YOPC   D2A11466   6.263  16.232   7.268  0.1731 -0.4221 -0.2371
 1001YOPC   C3A11467   5.980  15.968   7.579  0.2178 -0.1282  0.1506
 1001YOPC   C4A11468   5.910  15.736   7.849  0.2160 -0.1909  0.1291
 1001YOPC   C1B11469   5.976  15.691   6.771  0.1396  0.0887 -0.0338
 1001YOPC   C2B11470   5.659  15.651   7.112  0.2058  0.0881 -0.0193
 1001YOPC   D3B11471   5.575  15.553   7.506  0.1468 -0.2197 -0.0875
 1001YOPC   C4B11472   5.607  15.382   7.956  0.1552  0.0638  0.3037
 1002YOPC   NC311473   6.108  15.271   5.809  0.1500 -0.0046  0.0786
 1002YOPC   PO411474   6.135  14.927   6.033  0.0647 -0.4769  0.1387
 1002YOPC   GL111475   6.183  14.929   6.387 -0.1941  0.0844 -0.1872
 1002YOPC   GL211476   6.098  15.120   6.603  0.0967  0.2030  0.3433
 1002YOPC   C1A11477   6.471  14.802   6.648  0.3151  0.0270 -0.1648
 1002YOPC   D2A11478   6.632  14.839   7.040 -0.0742  0.1242  0.0901
 1002YOPC   C3A11479   7.050  14.891   7.300 -0.0166  0.0416  0.0334
 1002YOPC   C4A11480   7.303  14.996   7.627 -0.1359  0.4603  0.0394
 1002YOPC   C1B11481   6.303  15.186   6.957  0.0600  0.2319  0.3571
 1002YOPC   C2B11482   6.511  15.174   7.422  0.0734  0.2920 -0.2568
 1002YOPC   D3B11483   6.469  15.442   7.760  0.1865 -0.0872 -0.1990
 1002YOPC   C4B11484   6.255  15.465   8.201  0.2856  0.0807 -0.0731
 1003YOPC   NC311485  13.489   9.858   6.488  0.0625  0.1214  0.2958
 1003YOPC   PO411486  13.665  10.211   6.604  0.1181  0.2068 -0.1319
 1003YOPC   GL111487  13.551  10.198   6.967 -0.2384  0.1006 -0.2978
 1003YOPC   GL211488  13.627  10.516   6.969 -0.2334  0.1807  0.1406
 1003YOPC   C1A11489  13.308  10.161   7.199 -0.2111  0.0663 -0.0209
 1003YOPC   D2A11490  13.257  10.193   7.626 -0.0506  0.0990  0.3974
 1003YOPC   C3A11491  13.053  10.438   7.907 -0.1900 -0.0094  0.1431
 1003YOPC   C4A11492  12.900  10.466   8.358  0.0247  0.0158 -0.1823
 1003YOPC   C1B11493  13.779  10.464   7.393 -0.0966 -0.0517 -0.3249
 1003YOPC   C2B11494  13.655  10.403   7.845 -0.0924 -0.1518  0.0385
 1003YOPC   D3B11495  13.941  10.286   8.093  0.1342 -0.0060 -0.1249
 1003YOPC   C4B11496  13.918  10.110   8.459  0.2426 -0.0975 -0.0250
 1004YOPC   NC311497   3.997  15.041   6.081 -0.1670 -0.0431 -0.0833
 1004YOPC   PO411498   3.600  15.209   5.903  0.0464  0.2417  0.0337
 1004YOPC   GL111499   3.465  15.023   6.347 -0.3167 -0.0205 -0.0839
 1004YOPC   GL211500   3.590  15.299   6.428  0.1272 -0.0025 -0.0177
 1004YOPC   C1A11501   3.427  15.011   6.788 -0.2203 -0.0432  0.2081
 1004YOPC   D2A11502   3.346  14.943   7.247 -0.2529 -0.0317  0.0980
 1004YOPC   C3A11503   3.658  14.877   7.609 -0.2129  0.1575  0.1144
 1004YOPC   C4A11504   4.055  14.650   7.579  0.1761  0.1343  0.0299
 1004YOPC   C1B11505   3.776  15.340   6.750 -0.1236  0.0546 -0.1388
 1004YOPC   C2B11506   3.876  15.758   6.847 -0.0076  0.0377  0.0842
 1004YOPC   D3B11507   4.148  16.106   6.695  0.2496  0.0460 -0.4437
 1004YOPC   C4B11508   4.548  16.355   6.696 -0.0721  0.1028  0.1763
 1005YOPC   NC311509  15.007  11.299   6.324  0.0778  0.0256  0.0704
 1005YOPC   PO411510  15.315  11.566   6.099 -0.1553 -0.0716 -0.0133
 1005YOPC   GL111511  15.433  11.770   6.488 -0.1686  0.0686  0.1327
 1005YOPC   GL211512  15.385  12.113   6.632  0.0273 -0.4120 -0.0002
 1005YOPC   C1A11513  15.464  11.624   6.935  0.2520  0.0727 -0.2227
 1005YOPC   D2A11514  15.609  11.698   7.357  0.1210  0.2660  0.0012
 1005YOPC   C3A11515  15.739  11.388   7.708  0.1298 -0.1573  0.0251
 1005YOPC   C4A11516  15.916  11.160   7.941 -0.1107 -0.0890  0.2261
 1005YOPC   C1B11517  15.419  12.122   7.089  0.0417  0.0467  0.1702
 1005YOPC   C2B11518  15.345  12.093   7.518  0.0517  0.1570  0.1886
 1005YOPC   D3B11519  15.540  11.914   7.876  0.0604 -0.0161 -0.0459
 1005YOPC   C4B11520  15.783  11.557   8.174 -0.1095  0.1126  0.1328
 1006YOPC   NC311521  12.548  16.181   5.842  0.1873 -0.2189 -0.0163
 1006YOPC   PO411522  12.863  16.006   5.988  0.1963 -0.0105  0.4182
 1006YOPC   GL111523  12.648  16.146   6.330 -0.2215  0.1028  0.2273
 1006YOPC   GL211524  12.306  16.050   6.425 -0.1465  0.2220 -0.0069
 1006YOPC   C1A11525  12.811  15.962   6.665 -0.3996 -0.1097 -0.1700
 1006YOPC   D2A11526  12.876  15.984   7.030 -0.2385 -0.1888 -0.1109
 1006YOPC   C3A11527  13.153  16.002   7.310  0.2728  0.2441  0.2808
 1006YOPC   C4A11528  13.572  15.897   7.210 -0.2842 -0.2471 -0.1333
 1006YOPC   C1B11529  12.358  15.999   6.888 -0.0423  0.2570 -0.0438
 1006YOPC   C2B11530  12.130  16.008   7.317  0.2917  0.0609  0.0424
 1006YOPC   D3B11531  12.230  16.339   7.610  0.1474 -0.2612 -0.1624
 1006YOPC   C4B11532  12.028  16.360   8.040 -0.2406  0.1427 -0.0296
 1007YOPC   NC311533   7.629   6.899   6.022  0.1021  0.0195 -0.1890
 1007YOPC   PO411534   7.484   6.494   5.929 -0.0226 -0.2055 -0.1381
 1007YOPC   GL111535   7.775   6.440   6.345 -0.1744 -0.1442 -0.2885
 1007YOPC   GL211536   7.894   6.774   6.408  0.0232 -0.0532  0.1082
 1007YOPC   C1A11537   8.147   6.341   6.707  0.0926 -0.0256 -0.1272
 1007YOPC   D2A11538   8.340   6.384   7.131  0.2549  0.1049 -0.3572
 1007YOPC   C3A11539   8.086   6.462   7.507 -0.3756 -0.1450 -0.0933
 1007YOPC   C4A11540   8.148   6.341   7.933 -0.0737  0.1784 -0.0416
 1007YOPC   C1B11541   7.725   6.675   6.844 -0.1062  0.0908  0.3569
 1007YOPC   C2B11542   7.515   6.497   7.257  0.4393 -0.0678 -0.1860
 1007YOPC   D3B11543   7.552   6.238   7.590  0.2035  0.0450  0.3119
 1007YOPC   C4B11544   7.603   6.080   8.076 -0.1353 -0.1809 -0.3161
 1008YOPC   NC311545  12.491  14.657   5.610 -0.1418  0.1818  0.2150
 1008YOPC   PO411546  12.115  14.843   5.806 -0.0419  0.1325 -0.0726
 1008YOPC   GL111547  12.059  14.922   6.242  0.0598 -0.1361  0.0831
 1008YOPC   GL211548  12.068  15.252   6.223  0.1952  0.0907 -0.2848
 1008YOPC   C1A11549  12.074  14.618   6.606 -0.0477  0.0334  0.1980
 1008YOPC   D2A11550  12.272  14.285   6.687 -0.1405 -0.0694 -0.0042
 1008YOPC   C3A11551  12.730  14.279   6.844  0.1035  0.2766  0.3668
 1008YOPC   C4A11552  13.084  14.512   6.637  0.6130  0.0434 -0.3919
 1008YOPC   C1B11553  11.930  15.087   6.741  0.1537  0.0037 -0.2272
 1008YOPC   C2B11554  11.988  14.684   7.130  0.2105  0.1614  0.3702
 1008YOPC   D3B11555  12.049  14.444   7.525  0.1296 -0.1189 -0.0384
 1008YOPC   C4B11556  12.294  14.063   7.737  0.0776 -0.0853  0.0776
 1009YOPC   NC311557   6.097  13.909   5.757 -0.0133 -0.4279  0.2783
 1009YOPC   PO411558   5.679  14.159   5.910  0.2285 -0.1898  0.2183
 1009YOPC   GL111559   5.612  14.311   6.359 -0.1381 -0.1312  0.1249
 1009YOPC   GL211560   5.395  14.477   6.525 -0.4198 -0.0522 -0.4216
 1009YOPC   C1A11561   5.671  14.240   6.883 -0.1265  0.1619 -0.0899
 1009YOPC   D2A11562   5.762  14.062   7.279  0.1545 -0.0376 -0.1721
 1009YOPC   C3A11563   5.693  14.384   7.749  0.0308  0.0704  0.1567
 1009YOPC   C4A11564   5.386  14.643   8.046  0.0764 -0.2476 -0.1856
 1009YOPC   C1B11565   5.190  14.434   6.845  0.0481 -0.1079 -0.2300
 1009YOPC   C2B11566   4.888  14.707   6.864  0.3966  0.0958 -0.0483
 1009YOPC   D3B11567   4.954  14.876   7.194 -0.0557 -0.3176 -0.1297
 1009YOPC   C4B11568   5.227  14.856   7.628 -0.2212 -0.0931  0.0656
 1010YOPC   NC311569   8.723  18.185   5.529  0.0177 -0.0986  0.1579
 1010YOPC   PO411570   8.607  17.779   5.649  0.1235  0.0268 -0.0098
 1010YOPC   GL111571   8.673  17.680   6.100 -0.1276 -0.0303  0.0724
 1010YOPC   GL211572   8.833  17.421   6.108  0.2356  0.1241 -0.2437
 1010YOPC   C1A11573   8.985  17.904   6.312 -0.2278  0.0945  0.1593
 1010YOPC   D2A11574   9.168  17.901   6.625  0.1302 -0.0730  0.2668
 1010YOPC   C3A11575   9.058  17.573   6.861 -0.2714 -0.0986  0.0670
 1010YOPC   C4A11576   8.879  17.529   7.231  0.0333  0.2316 -0.1169
 1010YOPC   C1B11577   9.104  17.430   6.434 -0.1029 -0.1629 -0.0310
 1010YOPC   C2B11578   9.546  17.116   6.538  0.2743 -0.1465  0.2369
 1010YOPC   D3B11579   9.581  17.122   6.979  0.0408  0.0292 -0.0936
 1010YOPC   C4B11580   9.386  17.444   7.238 -0.1278 -0.2649  0.0470
 1011YOPC   NC311581   2.891   2.138   6.400  0.1520 -0.0270 -0.3068
 1011YOPC   PO411582   3.262   2.157   6.306 -0.3568  0.3317  0.1550
 1011YOPC   GL111583   3.385   1.930   6.627 -0.1061  0.1002  0.0420
 1011YOPC   GL211584   3.165   1.768   6.666 -0.0511 -0.1726  0.0052
 1011YOPC   C1A11585   3.497   2.063   6.994  0.5361 -0.0470 -0.2620
 1011YOPC   D2A11586   3.471   2.096   7.413 -0.2449 -0.2207 -0.1567
 1011YOPC   C3A11587   3.658   1.888   7.740  0.1286  0.1472 -0.1225
 1011YOPC   C4A11588   3.914   1.526   7.848 -0.0166 -0.0265  0.0212
 1011YOPC   C1B11589   2.994   1.833   7.131 -0.1384  0.1354  0.0668
 1011YOPC   C2B11590   2.986   1.802   7.552  0.1594 -0.1485 -0.0530
 1011YOPC   D3B11591   3.183   1.958   7.829  0.2347  0.2742  0.0091
 1011YOPC   C4B11592   3.108   2.104   8.223 -0.0952  0.1281  0.3542
 1012YOPC   NC311593  15.935  12.321   5.900  0.0322  0.1261 -0.2405
 1012YOPC   PO411594  16.325  12.029   5.890  0.2371  0.2381 -0.0017
 1012YOPC   GL111595  16.167  12.006   6.271 -0.0131  0.0485 -0.0505
 1012YOPC   GL211596  15.890  12.041   6.413 -0.2882 -0.0137 -0.0290
 1012YOPC   C1A11597  16.318  11.713   6.590 -0.0242  0.0572  0.3274
 1012YOPC   D2A11598  16.416  11.415   6.845 -0.1599 -0.3027  0.3119
 1012YOPC   C3A11599  16.586  11.449   7.371 -0.3530 -0.1287 -0.2822
 1012YOPC   C4A11600  16.705  11.752   7.738  0.0119 -0.0953  0.0750
 1012YOPC   C1B11601  15.950  11.882   6.900 -0.0054 -0.1545  0.0954
 1012YOPC   C2B11602  16.107  11.605   7.250 -0.0855 -0.0439  0.0319
 1012YOPC   D3B11603  16.045  11.779   7.661 -0.1331  0.2691  0.0371
 1012YOPC   C4B11604  16.103  11.919   8.104  0.1549  0.0541 -0.0431
 1013YOPC   NC311605  13.025   5.528   6.421 -0.0106 -0.0511  0.0570
 1013YOPC   PO411606  13.193   5.254   6.207 -0.1335 -0.0132 -0.0921
 1013YOPC   GL111607  13.214   4.995   6.520  0.3143 -0.1128 -0.0623
 1013YOPC   GL211608  13.237   5.129   6.807  0.1363 -0.0573  0.0468
 1013YOPC   C1A11609  13.324   4.548   6.612 -0.1558 -0.1079  0.0055
 1013YOPC   D2A11610  13.660   4.241   6.608  0.0590  0.0475  0.2142
 1013YOPC   C3A11611  14.008   4.283   6.863  0.1385 -0.3876  0.1281
 1013YOPC   C4A11612  14.325   4.042   6.956 -0.0040  0.3160  0.0427
 1013YOPC   C1B11613  13.226   4.884   7.360 -0.0010  0.0380 -0.0987
 1013YOPC   C2B11614  13.157   4.928   7.879 -0.2481 -0.3520  0.1584
 1013YOPC   D3B11615  12.836   4.785   8.112  0.0035  0.0970 -0.1011
 1013YOPC   C4B11616  12.785   4.468   8.340  0.3411 -0.3744  0.0175
 1014YOPC   NC311617   1.262  15.180   5.685 -0.1944 -0.0923 -0.0277
 1014YOPC   PO411618   1.043  14.823   5.856  0.0039  0.2061 -0.0549
 1014YOPC   GL111619   1.040  14.500   6.245  0.0749 -0.1247 -0.3853
 1014YOPC   GL211620   1.296  14.221   6.432  0.2875 -0.2130  0.0810
 1014YOPC   C1A11621   0.942  14.442   6.753 -0.0916 -0.2750  0.0825
 1014YOPC   D2A11622   1.000  14.683   7.068  0.0218 -0.1788  0.1892
 1014YOPC   C3A11623   0.802  14.560   7.395  0.0391 -0.0105 -0.1922
 1014YOPC   C4A11624   0.600  14.366   7.627 -0.5215 -0.4482  0.1931
 1014YOPC   C1B11625   1.275  13.963   6.806 -0.0260  0.2336 -0.1048
 1014YOPC   C2B11626   1.239  13.742   7.270 -0.1205  0.1595 -0.0096
 1014YOPC   D3B11627   0.868  13.584   7.465 -0.1179  0.2458  0.2030
 1014YOPC   C4B11628   0.651  13.381   7.778  0.4825  0.0027  0.2486
 1015YOPC   NC311629   9.015  14.444   5.748 -0.3107  0.0264 -0.4340
 1015YOPC   PO411630   9.481  14.623   5.659  0.3368 -0.0539  0.2218
 1015YOPC   GL111631   9.339  14.601   6.100  0.1034  0.0755 -0.1448
 1015YOPC   GL211632   9.614  14.575   6.203  0.4987 -0.2617  0.0554
 1015YOPC   C1A11633   9.150  14.605   6.591  0.1001  0.1154 -0.0022
 1015YOPC   D2A11634   8.918  14.604   6.964 -0.0762  0.0736  0.2451
 1015YOPC   C3A11635   8.597  14.642   7.163  0.1593  0.1358 -0.0449
 1015YOPC   C4A11636   8.444  14.560   7.497 -0.2749 -0.1417 -0.0624
 1015YOPC   C1B11637   9.503  14.901   6.459  0.1574 -0.0034 -0.0610
 1015YOPC   C2B11638   9.449  15.223   6.710 -0.0259  0.3576  0.1571
 1015YOPC   D3B11639   9.657  15.208   7.168  0.0370 -0.0095 -0.2624
 1015YOPC   C4B11640   9.751  15.213   7.515  0.0374 -0.3282  0.1129
 1016YOPC   NC311641   0.147   5.456   6.558  0.1114  0.1723 -0.0644
 1016YOPC   PO411642  -0.095   5.713   6.516 -0.1380  0.1605 -0.0634
 1016YOPC   GL111643   0.008   5.898   6.986 -0.2402 -0.0390  0.0038
 1016YOPC   GL211644  -0.084   6.205   7.040  0.1333  0.0407  0.0642
 1016YOPC   C1A11645   0.128   6.013   7.421 -0.1247  0.0512  0.1205
 1016YOPC   D2A11646   0.434   6.117   7.579 -0.2929 -0.1805 -0.2033
 1016YOPC   C3A11647   0.560   6.141   8.046  0.1040 -0.1910 -0.1007
 1016YOPC   C4A11648   0.790   6.104   8.479 -0.0321 -0.0136  0.0896
 1016YOPC   C1B11649   0.014   6.515   7.342 -0.0148  0.2707 -0.1105
 1016YOPC   C2B11650   0.133   6.494   7.765  0.4935 -0.2246 -0.0956
 1016YOPC   D3B11651   0.046   6.098   7.989  0.0085 -0.2057  0.0965
 1016YOPC   C4B11652  -0.235   5.957   8.046  0.0499 -0.1502 -0.0129
 1017YOPC   NC311653   5.908   1.301   6.297  0.2969  0.2107  0.3232
 1017YOPC   PO411654   6.119   1.645   6.234  0.2909  0.0657 -0.4309
 1017YOPC   GL111655   6.041   2.004   6.487 -0.0813 -0.2456  0.1959
 1017YOPC   GL211656   6.308   2.234   6.453 -0.1325  0.2488  0.0217
 1017YOPC   C1A11657   5.985   2.001   6.894 -0.0299 -0.0917  0.0729
 1017YOPC   D2A11658   6.081   2.112   7.255  0.3259  0.0780  0.0529
 1017YOPC   C3A11659   5.743   2.071   7.619 -0.1263  0.1387  0.2122
 1017YOPC   C4A11660   5.592   2.292   8.016  0.0269  0.2494  0.1663
 1017YOPC   C1B11661   6.650   2.177   6.819  0.2264  0.0095 -0.0630
 1017YOPC   C2B11662   6.867   2.090   7.278 -0.1601 -0.1781  0.1189
 1017YOPC   D3B11663   6.872   2.527   7.547  0.3223 -0.0995  0.1556
 1017YOPC   C4B11664   6.685   2.851   7.626 -0.2417 -0.2418  0.0068
 1018YOPC   NC311665  11.449   1.133   5.995 -0.1994 -0.4586 -0.1436
 1018YOPC   PO411666  11.025   1.196   5.825 -0.0548 -0.1098 -0.0433
 1018YOPC   GL111667  11.090   0.956   6.258 -0.0169 -0.2771 -0.0436
 1018YOPC   GL211668  11.015   1.169   6.397  0.1545  0.0607  0.1816
 1018YOPC   C1A11669  10.865   0.712   6.517  0.0360  0.1131 -0.4493
 1018YOPC   D2A11670  10.769   0.504   6.875  0.2089  0.3349  0.0253
 1018YOPC   C3A11671  10.765   0.616   7.316 -0.1285 -0.3282  0.1363
 1018YOPC   C4A11672  10.635   0.725   7.834 -0.0789  0.0179  0.0219
 1018YOPC   C1B11673  10.653   1.142   6.666 -0.0052  0.1211 -0.1998
 1018YOPC   C2B11674  10.568   0.997   7.067 -0.0569 -0.1393 -0.0748
 1018YOPC   D3B11675  10.230   0.801   7.478  0.1507 -0.1313  0.2544
 1018YOPC   C4B11676  10.147   0.834   7.921 -0.1424  0.0863  0.0391
 1019YOPC   NC311677  15.262   9.452   6.459 -0.1682  0.0771 -0.0162
 1019YOPC   PO411678  15.709   9.283   6.450 -0.0877  0.0375  0.0935
 1019YOPC   GL111679  15.553   9.156   6.923 -0.5208 -0.0758 -0.1102
 1019YOPC   GL211680  15.278   9.396   6.982  0.0013 -0.0485  0.0940
 1019YOPC   C1A11681  15.542   8.943   7.297  0.0404  0.0187  0.0986
 1019YOPC   D2A11682  15.442   8.712   7.661  0.0317  0.1465 -0.0020
 1019YOPC   C3A11683  15.221   8.914   8.023  0.2351  0.0759 -0.0961
 1019YOPC   C4A11684  15.228   9.159   8.457  0.1491  0.2234  0.1755
 1019YOPC   C1B11685  15.240   9.333   7.419 -0.0599  0.1931  0.1767
 1019YOPC   C2B11686  15.043   9.432   7.804 -0.1428 -0.0928 -0.1517
 1019YOPC   D3B11687  15.396   9.497   8.067 -0.0864  0.1150 -0.0722
 1019YOPC   C4B11688  15.669   9.324   8.252 -0.1081  0.1032  0.1735
 1020YOPC   NC311689  17.769  12.272   6.053  0.0983  0.1811 -0.1263
 1020YOPC   PO411690  18.039  12.462   6.227 -0.0164 -0.0603 -0.0518
 1020YOPC   GL111691  17.974  12.697   6.650  0.1255  0.1877 -0.0321
 1020YOPC   GL211692  17.667  12.691   6.721  0.1365 -0.0273 -0.1470
 1020YOPC   C1A11693  17.933  12.839   7.111  0.0577  0.2607  0.1031
 1020YOPC   D2A11694  18.056  12.907   7.491  0.2771 -0.1774 -0.0727
 1020YOPC   C3A11695  18.413  12.750   7.855 -0.0941  0.0248 -0.1787
 1020YOPC   C4A11696  18.349  12.642   8.199 -0.2028 -0.0713  0.1435
 1020YOPC   C1B11697  17.493  12.627   7.007 -0.1416  0.3013 -0.1353
 1020YOPC   C2B11698  17.221  12.452   7.426 -0.0950  0.0790  0.0603
 1020YOPC   D3B11699  17.354  12.520   7.863  0.1336  0.2537 -0.2086
 1020YOPC   C4B11700  17.459  12.334   8.243 -0.3801 -0.0166 -0.1050
 1021YOPC   NC311701  15.442   7.063   6.165  0.0628 -0.3392  0.1015
 1021YOPC   PO411702  15.538   6.828   6.498 -0.1278 -0.0505  0.0759
 1021YOPC   GL111703  15.431   6.696   6.886 -0.2936 -0.3153  0.0989
 1021YOPC   GL211704  15.236   6.343   6.989  0.1934 -0.2116  0.2330
 1021YOPC   C1A11705  15.770   6.434   7.073  0.2708 -0.1614 -0.2909
 1021YOPC   D2A11706  15.908   6.262   7.371 -0.2463 -0.2454 -0.5454
 1021YOPC   C3A11707  15.987   5.839   7.349  0.1663  0.2203 -0.1945
 1021YOPC   C4A11708  16.288   5.509   7.315 -0.2427  0.0423 -0.1562
 1021YOPC   C1B11709  15.434   6.260   7.456 -0.0639 -0.1407 -0.0431
 1021YOPC   C2B11710  15.682   6.082   7.812  0.0478  0.1569 -0.0872
 1021YOPC   D3B11711  16.087   6.347   7.930 -0.1091  0.3173 -0.0761
 1021YOPC   C4B11712  16.355   6.192   8.178 -0.2409  0.3419  0.0509
 1022YOPC   NC311713   8.700   8.865   5.726  0.1697 -0.1552 -0.2033
 1022YOPC   PO411714   8.504   8.775   6.151  0.1321  0.1357 -0.2835
 1022YOPC   GL111715   8.599   8.392   6.438 -0.0247 -0.1427  0.0322
 1022YOPC   GL211716   8.794   8.113   6.284  0.1801  0.1649 -0.0067
 1022YOPC   C1A11717   8.541   8.308   6.861 -0.0710  0.0937 -0.0320
 1022YOPC   D2A11718   8.415   8.021   7.161 -0.2309 -0.1724  0.0447
 1022YOPC   C3A11719   8.388   8.225   7.546  0.2516 -0.1336 -0.1473
 1022YOPC   C4A11720   8.369   8.446   7.930  0.0721 -0.0852 -0.0366
 1022YOPC   C1B11721   8.736   7.903   6.653 -0.0212 -0.0548 -0.0229
 1022YOPC   C2B11722   8.623   7.645   6.860  0.3501 -0.1876  0.2189
 1022YOPC   D3B11723   8.254   7.677   6.871 -0.6075 -0.0437  0.3306
 1022YOPC   C4B11724   7.818   7.783   6.973 -0.1470 -0.0283  0.1277
 1023YOPC   NC311725  12.245   2.280   5.998 -0.0903  0.0226 -0.3108
 1023YOPC   PO411726  12.226   1.822   6.022 -0.1389  0.0425  0.2190
 1023YOPC   GL111727  12.192   1.637   6.401 -0.1048  0.0908  0.0173
 1023YOPC   GL211728  12.064   1.644   6.670  0.0111  0.0222 -0.2177
 1023YOPC   C1A11729  12.542   1.383   6.482 -0.0260 -0.2848  0.2352
 1023YOPC   D2A11730  12.931   1.524   6.677  0.3991 -0.2603 -0.4295
 1023YOPC   C3A11731  12.940   1.735   7.085 -0.1250  0.0072 -0.3516
 1023YOPC   C4A11732  12.712   1.925   7.369 -0.3017 -0.1802 -0.2916
 1023YOPC   C1B11733  11.832   1.857   6.980 -0.1888 -0.2715  0.3219
 1023YOPC   C2B11734  11.857   2.216   7.410 -0.1288  0.1731 -0.0792
 1023YOPC   D3B11735  11.881   2.147   7.766  0.1397 -0.2350  0.2714
 1023YOPC   C4B11736  11.962   1.809   7.866  0.2787  0.0603  0.0259
 1024YOPC   NC311737  15.906  17.431   5.793  0.1634 -0.0758 -0.2629
 1024YOPC   PO411738  15.769  17.815   5.977 -0.1145  0.5285  0.2920
 1024YOPC   GL111739  15.635  18.095   6.276 -0.2897  0.0428  0.0433
 1024YOPC   GL211740  15.981  18.130   6.355  0.0358 -0.0904  0.0074
 1024YOPC   C1A11741  15.646  18.395   6.579 -0.0847  0.1040  0.0031
 1024YOPC   D2A11742  15.575  18.401   7.061  0.1485 -0.1475  0.1243
 1024YOPC   C3A11743  15.471  18.527   7.541 -0.0858 -0.2338  0.0638
 1024YOPC   C4A11744  15.233  18.404   7.978  0.0584 -0.1636  0.2128
 1024YOPC   C1B11745  16.252  18.342   6.603  0.1107 -0.1627 -0.0310
 1024YOPC   C2B11746  16.632  18.281   6.938  0.2693 -0.0837  0.2347
 1024YOPC   D3B11747  16.895  18.557   6.888  0.1624  0.0674 -0.0147
 1024YOPC   C4B11748  17.227  18.829   7.049  0.1016  0.1617 -0.2577
 1025YOPC   NC311749  18.057  17.450   6.143  0.2276 -0.2362  0.2390
 1025YOPC   PO411750  17.941  17.613   6.388  0.3244  0.1425  0.3514
 1025YOPC   GL111751  17.893  17.938   6.709 -0.2609 -0.3303 -0.2873
 1025YOPC   GL211752  17.661  17.876   6.788  0.0480  0.0156  0.4879
 1025YOPC   C1A11753  17.925  18.217   7.106 -0.4622 -0.3517 -0.0086
 1025YOPC   D2A11754  17.865  18.495   7.560  0.0518 -0.2661 -0.0316
 1025YOPC   C3A11755  17.829  18.290   7.912 -0.0800  0.0289 -0.1333
 1025YOPC   C4A11756  17.562  18.530   8.087 -0.2014 -0.1124 -0.0096
 1025YOPC   C1B11757  17.435  18.005   7.116 -0.2308 -0.0152 -0.0594
 1025YOPC   C2B11758  17.607  18.081   7.477  0.3208  0.0531  0.0350
 1025YOPC   D3B11759  17.328  18.080   7.785 -0.1206 -0.0458 -0.0702
 1025YOPC   C4B11760  17.071  18.299   7.957 -0.2282  0.3426 -0.0898
 1026YOPC   NC311761   8.914  10.684   5.907 -0.2072 -0.0741 -0.2464
 1026YOPC   PO411762   8.598  10.796   5.701  0.0256  0.0491  0.0678
 1026YOPC   GL111763   8.381  10.956   5.977 -0.3772  0.0008 -0.0227
 1026YOPC   GL211764   8.298  10.651   6.145 -0.1405 -0.3821 -0.1329
 1026YOPC   C1A11765   8.156  11.056   6.371 -0.1418 -0.2603 -0.1341
 1026YOPC   D2A11766   8.076  11.354   6.698 -0.0549  0.1287 -0.0882
 1026YOPC   C3A11767   8.041  11.519   7.040  0.2202 -0.1718 -0.0431
 1026YOPC   C4A11768   8.237  11.615   7.414 -0.1202  0.0356 -0.0038
 1026YOPC   C1B11769   8.266  10.572   6.573  0.2252 -0.0876 -0.0013
 1026YOPC   C2B11770   8.185  10.429   6.959  0.1204  0.4402  0.2185
 1026YOPC   D3B11771   8.166  10.610   7.322 -0.0671  0.0646 -0.0401
 1026YOPC   C4B11772   8.369  10.710   7.647 -0.0032  0.1099  0.0924
 1027YOPC   NC311773   5.255   4.270   5.667  0.5194 -0.1486  0.2607
 1027YOPC   PO411774   5.016   4.069   5.988  0.1766  0.0450 -0.0859
 1027YOPC   GL111775   5.110   3.747   6.267  0.1371 -0.1476 -0.2130
 1027YOPC   GL211776   4.984   3.464   6.437  0.0305 -0.1547 -0.1308
 1027YOPC   C1A11777   5.284   3.859   6.657  0.3452 -0.0075 -0.2814
 1027YOPC   D2A11778   5.494   3.996   7.023  0.1158 -0.0236 -0.1255
 1027YOPC   C3A11779   5.628   3.852   7.237  0.1764  0.3069  0.0705
 1027YOPC   C4A11780   6.021   3.719   7.380 -0.0520  0.0716  0.1483
 1027YOPC   C1B11781   5.070   3.479   6.859  0.1699 -0.3831  0.2959
 1027YOPC   C2B11782   5.229   3.635   7.302 -0.2947  0.1919  0.1241
 1027YOPC   D3B11783   5.109   3.734   7.706  0.0535 -0.2004  0.1374
 1027YOPC   C4B11784   5.236   3.559   8.093 -0.0856 -0.1113 -0.0426
 1028YOPC   NC311785   6.850  10.420   5.883  0.1794  0.1307 -0.1364
 1028YOPC   PO411786   6.804  10.835   5.971 -0.0664  0.1326 -0.0655
 1028YOPC   GL111787   6.883  10.904   6.356  0.1549 -0.1464 -0.1129
 1028YOPC   GL211788   6.859  11.249   6.339  0.2237 -0.0553  0.1054
 1028YOPC   C1A11789   7.250  11.117   6.666  0.1304  0.0020  0.0737
 1028YOPC   D2A11790   7.539  11.254   7.018  0.2230  0.2290  0.1556
 1028YOPC   C3A11791   7.461  11.217   7.478  0.1860 -0.0661 -0.0476
 1028YOPC   C4A11792   7.518  11.249   7.972 -0.0590 -0.0723  0.1543
 1028YOPC   C1B11793   6.754  11.121   6.793 -0.0764  0.1525  0.0519
 1028YOPC   C2B11794   7.019  11.046   7.073 -0.0180  0.0201 -0.0187
 1028YOPC   D3B11795   7.047  10.951   7.468 -0.0061 -0.0380 -0.0164
 1028YOPC   C4B11796   7.065  11.214   7.813  0.0640  0.0919 -0.2725
 1029YOPC   NC311797  12.432   7.975   6.305  0.1411  0.0169  0.0472
 1029YOPC   PO411798  12.011   7.800   6.409  0.1803  0.1774  0.0754
 1029YOPC   GL111799  11.780   7.940   6.739 -0.1197 -0.1153  0.2142
 1029YOPC   GL211800  11.747   7.595   6.871  0.0464 -0.0653 -0.0645
 1029YOPC   C1A11801  11.795   8.245   7.030  0.4261 -0.0614  0.0385
 1029YOPC   D2A11802  11.783   8.309   7.482  0.0338  0.1115 -0.1350
 1029YOPC   C3A11803  11.438   8.585   7.616  0.3982 -0.1589  0.1558
 1029YOPC   C4A11804  11.401   8.958   7.861  0.2285  0.0013  0.1222
 1029YOPC   C1B11805  11.566   7.216   7.074 -0.0657 -0.0931 -0.0551
 1029YOPC   C2B11806  11.354   7.055   7.471  0.1008  0.1736 -0.1869
 1029YOPC   D3B11807  11.569   6.825   7.764  0.2690  0.0110  0.1837
 1029YOPC   C4B11808  11.732   7.149   8.114  0.0724  0.1911  0.0841
 1030YOPC   NC311809   5.475  16.762   6.034 -0.0516  0.0437 -0.3522
 1030YOPC   PO411810   5.154  16.370   5.955 -0.0417 -0.2960 -0.1613
 1030YOPC   GL111811   5.312  16.078   6.338  0.0622  0.0169  0.1437
 1030YOPC   GL211812   5.010  15.996   6.520  0.2388  0.1005 -0.2360
 1030YOPC   C1A11813   5.520  16.016   6.746  0.0017  0.0612  0.1508
 1030YOPC   D2A11814   5.771  16.108   7.085  0.2967 -0.0442  0.3443
 1030YOPC   C3A11815   5.507  16.115   7.503 -0.3073 -0.0087 -0.0510
 1030YOPC   C4A11816   5.831  16.262   7.938  0.0728 -0.3298  0.3006
 1030YOPC   C1B11817   4.565  15.821   6.546 -0.1483 -0.1629 -0.0292
 1030YOPC   C2B11818   4.337  15.644   6.880 -0.0717 -0.5032  0.2525
 1030YOPC   D3B11819   4.501  16.000   7.223  0.1819 -0.1145  0.0715
 1030YOPC   C4B11820   4.444  16.344   7.482  0.3509  0.2852 -0.1473
 1031YOPC   NC311821   3.930   4.922   6.054  0.0124 -0.2885  0.0391
 1031YOPC   PO411822   3.454   4.686   6.053  0.1108 -0.1409  0.1931
 1031YOPC   GL111823   3.488   4.837   6.479  0.1050  0.0697 -0.1918
 1031YOPC   GL211824   3.444   5.123   6.569  0.3236  0.2911  0.0922
 1031YOPC   C1A11825   3.134   4.744   6.758 -0.2557 -0.1490  0.3079
 1031YOPC   D2A11826   3.034   4.624   7.183  0.0428  0.0196 -0.0534
 1031YOPC   C3A11827   2.765   4.276   7.249 -0.0188  0.4274 -0.0622
 1031YOPC   C4A11828   2.420   4.224   7.102  0.0903  0.1042  0.0527
 1031YOPC   C1B11829   3.462   5.097   7.042 -0.0587  0.0113  0.0072
 1031YOPC   C2B11830   3.427   4.839   7.397  0.3219 -0.3544 -0.0676
 1031YOPC   D3B11831   3.584   4.896   7.718 -0.0539 -0.2019  0.0588
 1031YOPC   C4B11832   3.455   5.132   8.140 -0.1745  0.1942 -0.2294
 1032YOPC   NC311833   6.745   5.325   5.829  0.0181  0.0745 -0.0008
 1032YOPC   PO411834   6.449   5.160   6.091  0.1910 -0.2822 -0.0991
 1032YOPC   GL111835   6.360   5.011   6.484 -0.1291  0.1745 -0.0561
 1032YOPC   GL211836   6.498   5.201   6.643  0.0804  0.2020  0.2562
 1032YOPC   C1A11837   6.305   4.747   6.846 -0.1887  0.0467  0.2665
 1032YOPC   D2A11838   6.458   4.680   7.275  0.2419 -0.1070  0.1893
 1032YOPC   C3A11839   6.435   4.260   7.588  0.0865 -0.2346 -0.3386
 1032YOPC   C4A11840   6.073   4.139   7.767  0.1996 -0.1368 -0.2299
 1032YOPC   C1B11841   6.603   5.133   7.107 -0.0716 -0.2842  0.1457
 1032YOPC   C2B11842   6.739   5.116   7.505  0.2516 -0.1113  0.0238
 1032YOPC   D3B11843   6.697   5.284   7.903 -0.0386  0.1481  0.0324
 1032YOPC   C4B11844   6.643   5.479   8.340 -0.1207 -0.3204 -0.2318
 1033YOPC   NC311845   1.300  10.134   6.265  0.0753 -0.0370 -0.0423
 1033YOPC   PO411846   1.236  10.585   6.413  0.2411  0.2766 -0.0869
 1033YOPC   GL111847   1.274  10.902   6.666  0.3548 -0.0887  0.2210
 1033YOPC   GL211848   0.957  10.947   6.699  0.1313 -0.0907 -0.2007
 1033YOPC   C1A11849   1.615  11.082   7.005  0.1156  0.1456  0.0359
 1033YOPC   D2A11850   1.835  11.122   7.304 -0.0709 -0.0354 -0.0459
 1033YOPC   C3A11851   2.166  11.063   7.577 -0.0413  0.5003  0.0991
 1033YOPC   C4A11852   2.090  10.975   7.988 -0.1782 -0.1533 -0.2418
 1033YOPC   C1B11853   1.125  10.882   7.142 -0.0962 -0.0448  0.0620
 1033YOPC   C2B11854   1.325  11.096   7.388  0.2642 -0.0153 -0.2128
 1033YOPC   D3B11855   1.438  11.029   7.809  0.3730  0.0408 -0.2320
 1033YOPC   C4B11856   1.131  10.978   8.158  0.3792  0.0773  0.0167
 1034YOPC   NC311857   7.697  16.915   5.576  0.0917  0.1090  0.0236
 1034YOPC   PO411858   7.633  16.504   5.696 -0.2710  0.1443 -0.0950
 1034YOPC   GL111859   7.879  16.406   5.985 -0.0160  0.1139  0.0518
 1034YOPC   GL211860   8.017  16.068   6.150  0.2070 -0.0937  0.2462
 1034YOPC   C1A11861   8.055  16.667   6.463 -0.3835 -0.1392 -0.0048
 1034YOPC   D2A11862   8.000  16.697   6.833  0.0531 -0.0303  0.0130
 1034YOPC   C3A11863   8.200  16.768   7.252 -0.0392 -0.0543 -0.1417
 1034YOPC   C4A11864   8.285  16.894   7.700  0.2398 -0.1057 -0.0348
 1034YOPC   C1B11865   7.774  16.165   6.411  0.0912  0.2663  0.3198
 1034YOPC   C2B11866   7.820  16.229   6.901 -0.1431  0.2430  0.0941
 1034YOPC   D3B11867   7.800  16.417   7.306  0.0566  0.0409 -0.0069
 1034YOPC   C4B11868   7.755  16.376   7.752 -0.3704 -0.2430  0.0830
 1035YOPC   NC311869  13.658   0.542   5.652  0.0703 -0.0040 -0.1375
 1035YOPC   PO411870  13.613   0.168   5.978 -0.0841  0.0305  0.1360
 1035YOPC   GL111871  13.426   0.087   6.407 -0.2584 -0.2142  0.1151
 1035YOPC   GL211872  13.288   0.429   6.535  0.1030 -0.0289  0.1864
 1035YOPC   C1A11873  13.217   0.057   6.824 -0.0434  0.1484 -0.2751
 1035YOPC   D2A11874  12.947   0.062   7.146 -0.1861 -0.2314 -0.1906
 1035YOPC   C3A11875  13.194  -0.070   7.585 -0.1808  0.0075 -0.2377
 1035YOPC   C4A11876  13.475   0.129   7.812  0.0705  0.0171  0.0182
 1035YOPC   C1B11877  13.028   0.532   6.854  0.1336 -0.0595  0.0055
 1035YOPC   C2B11878  12.643   0.487   6.971 -0.0451 -0.0567 -0.1470
 1035YOPC   D3B11879  12.530   0.312   7.353 -0.0768  0.2278 -0.3749
 1035YOPC   C4B11880  12.284   0.083   7.615  0.3003 -0.2072 -0.0344
 1036YOPC   NC311881   2.986   8.514   5.792 -0.0183 -0.1970  0.0845
 1036YOPC   PO411882   2.879   8.160   6.142 -0.1167 -0.1049  0.0915
 1036YOPC   GL111883   3.069   8.053   6.581 -0.0985 -0.0039  0.1284
 1036YOPC   GL211884   2.884   7.858   6.767  0.0454 -0.0286  0.3803
 1036YOPC   C1A11885   3.301   8.285   6.847 -0.0935  0.2623  0.0520
 1036YOPC   D2A11886   3.654   8.482   6.883  0.1653  0.0353 -0.0155
 1036YOPC   C3A11887   3.918   8.370   7.168 -0.0854 -0.2365 -0.2887
 1036YOPC   C4A11888   3.923   8.498   7.547  0.0589  0.3885 -0.0150
 1036YOPC   C1B11889   2.840   7.545   7.123  0.2034 -0.0500  0.0346
 1036YOPC   C2B11890   2.676   7.234   7.360  0.0467 -0.0626 -0.4390
 1036YOPC   D3B11891   2.662   7.353   7.747  0.0075 -0.1403  0.0657
 1036YOPC   C4B11892   2.676   7.484   8.186  0.0777  0.2351 -0.0551
 1037YOPC   NC311893   7.372  12.292   5.849  0.1753  0.1100 -0.0995
 1037YOPC   PO411894   7.089  12.718   5.681 -0.3883  0.3212  0.0864
 1037YOPC   GL111895   6.824  12.656   6.095 -0.3224 -0.1887 -0.1532
 1037YOPC   GL211896   6.857  12.690   6.448 -0.2315  0.0976 -0.1952
 1037YOPC   C1A11897   6.395  12.705   6.283 -0.2170  0.1006  0.1572
 1037YOPC   D2A11898   5.997  12.713   6.449 -0.0339  0.2722 -0.0523
 1037YOPC   C3A11899   5.775  12.611   6.774 -0.0157 -0.0039  0.2351
 1037YOPC   C4A11900   5.808  12.751   7.194 -0.2596  0.0592 -0.5716
 1037YOPC   C1B11901   6.591  12.709   6.801  0.0929  0.0432 -0.1118
 1037YOPC   C2B11902   6.261  12.810   7.006 -0.3576  0.1792 -0.0860
 1037YOPC   D3B11903   6.269  12.723   7.510  0.1069 -0.1370  0.0281
 1037YOPC   C4B11904   6.204  12.951   7.878  0.0194 -0.0387 -0.2011
 1038YOPC   NC311905  10.534  11.027   5.397  0.2683  0.1770  0.0613
 1038YOPC   PO411906  10.629  11.082   5.837 -0.2797  0.0651  0.1249
 1038YOPC   GL111907  10.852  11.043   6.229  0.1353  0.4346  0.1411
 1038YOPC   GL211908  11.088  10.859   6.486 -0.2817  0.0988  0.0545
 1038YOPC   C1A11909  10.673  11.095   6.615  0.2023 -0.5433  0.0632
 1038YOPC   D2A11910  10.747  11.068   7.087 -0.2788 -0.0459  0.3096
 1038YOPC   C3A11911  10.670  10.612   7.327  0.2217  0.0426  0.0913
 1038YOPC   C4A11912  10.414  10.441   7.630 -0.1163  0.2192 -0.0802
 1038YOPC   C1B11913  11.145  10.798   6.919  0.2474 -0.0626  0.0627
 1038YOPC   C2B11914  11.168  10.834   7.363 -0.1016  0.0359 -0.0909
 1038YOPC   D3B11915  11.060  10.505   7.540 -0.2048  0.0350 -0.2363
 1038YOPC   C4B11916  11.190  10.329   7.869 -0.5804 -0.0053 -0.3081
 1039YOPC   NC311917  13.648   3.018   5.809 -0.0721  0.0061 -0.0278
 1039YOPC   PO411918  13.320   3.165   5.744 -0.2172 -0.1717  0.3173
 1039YOPC   GL111919  13.286   2.979   6.215  0.2308  0.1792 -0.1487
 1039YOPC   GL211920  13.211   2.666   6.213  0.1164  0.1378  0.4536
 1039YOPC   C1A11921  13.077   3.203   6.517  0.1685 -0.1578 -0.1276
 1039YOPC   D2A11922  13.115   3.427   6.889 -0.0253 -0.1755  0.0717
 1039YOPC   C3A11923  12.703   3.265   6.945  0.1439  0.0876  0.3330
 1039YOPC   C4A11924  12.361   3.317   6.690 -0.1257  0.3885 -0.2158
 1039YOPC   C1B11925  13.133   2.454   6.502 -0.1873  0.0620  0.1314
 1039YOPC   C2B11926  12.947   2.008   6.509  0.0508  0.1125 -0.0244
 1039YOPC   D3B11927  12.625   1.903   6.697  0.0509 -0.1206 -0.1163
 1039YOPC   C4B11928  12.395   1.762   6.979 -0.3822 -0.2691 -0.0775
 1040YOPC   NC311929  10.602  16.481   6.015 -0.0508  0.1125  0.0244
 1040YOPC   PO411930  11.005  16.729   6.185 -0.1921 -0.1468 -0.0276
 1040YOPC   GL111931  10.981  16.454   6.468  0.3760 -0.1973 -0.0081
 1040YOPC   GL211932  10.802  16.191   6.399 -0.1113 -0.3295 -0.0849
 1040YOPC   C1A11933  10.887  16.456   6.888 -0.0982 -0.1232 -0.1039
 1040YOPC   D2A11934  10.910  16.322   7.240  0.3002 -0.3469 -0.1927
 1040YOPC   C3A11935  10.672  16.259   7.525 -0.0675  0.0092 -0.0209
 1040YOPC   C4A11936  10.344  16.470   7.645  0.2918  0.1713  0.3223
 1040YOPC   C1B11937  10.478  16.135   6.832  0.0755 -0.1112  0.0033
 1040YOPC   C2B11938  10.261  16.068   7.242 -0.0800  0.0053  0.0338
 1040YOPC   D3B11939  10.027  15.708   7.163 -0.0987  0.2608 -0.1792
 1040YOPC   C4B11940   9.649  15.649   6.844  0.2615  0.0204  0.5905
 1041YOPC   NC311941   5.407   1.967   5.845  0.1140  0.1929  0.4357
 1041YOPC   PO411942   5.138   2.405   5.777  0.0402  0.2487 -0.3104
 1041YOPC   GL111943   5.180   2.286   6.205 -0.3649  0.0022  0.1306
 1041YOPC   GL211944   4.975   2.587   6.335 -0.1356 -0.1070 -0.0275
 1041YOPC   C1A11945   5.349   2.232   6.659  0.2983 -0.2550  0.0361
 1041YOPC   D2A11946   5.457   2.126   7.091 -0.3041  0.0967  0.0947
 1041YOPC   C3A11947   5.719   2.442   7.330 -0.0497  0.1670 -0.0568
 1041YOPC   C4A11948   6.089   2.524   7.497 -0.2383  0.0358  0.1924
 1041YOPC   C1B11949   5.001   2.582   6.849  0.3510 -0.0272 -0.2955
 1041YOPC   C2B11950   5.163   2.533   7.219  0.0652 -0.0030 -0.0624
 1041YOPC   D3B11951   5.429   2.921   7.382 -0.2929 -0.2153 -0.0121
 1041YOPC   C4B11952   5.667   3.309   7.230 -0.0545 -0.2493  0.0015
 1042YOPC   NC311953   4.362   3.292   5.826  0.0178 -0.0417  0.2546
 1042YOPC   PO411954   4.605   3.124   6.139  0.0591 -0.2619 -0.1039
 1042YOPC   GL111955   4.709   2.964   6.459 -0.1059  0.2541 -0.3008
 1042YOPC   GL211956   4.462   2.735   6.576  0.0208  0.1582  0.1314
 1042YOPC   C1A11957   5.093   2.980   6.669 -0.1746 -0.1030 -0.1392
 1042YOPC   D2A11958   5.466   3.127   6.690  0.0766 -0.4333  0.4183
 1042YOPC   C3A11959   5.631   3.530   6.816 -0.2265 -0.1572  0.1759
 1042YOPC   C4A11960   5.777   4.014   6.603 -0.2221  0.1140  0.3273
 1042YOPC   C1B11961   4.631   2.970   6.918  0.0568  0.0041  0.1964
 1042YOPC   C2B11962   4.979   3.114   7.197 -0.0246  0.2903 -0.1505
 1042YOPC   D3B11963   5.129   3.258   7.625  0.0874  0.2954 -0.3766
 1042YOPC   C4B11964   5.599   3.381   7.678 -0.0193  0.1912  0.3272
 1043YOPC   NC311965   4.328  12.733   5.737  0.2257  0.1209 -0.1231
 1043YOPC   PO411966   4.434  13.181   5.865 -0.0274 -0.2202 -0.0787
 1043YOPC   GL111967   4.737  13.224   6.125 -0.5160  0.2752 -0.1425
 1043YOPC   GL211968   4.608  13.368   6.379 -0.0127 -0.0208  0.3415
 1043YOPC   C1A11969   5.142  13.254   6.307  0.0918  0.2940  0.1175
 1043YOPC   D2A11970   5.428  13.399   6.397  0.0376  0.1034  0.0586
 1043YOPC   C3A11971   5.771  13.303   6.604  0.3278 -0.0534 -0.3464
 1043YOPC   C4A11972   5.968  13.251   6.993 -0.3066 -0.0052  0.0011
 1043YOPC   C1B11973   4.534  13.517   6.911  0.0537  0.2763 -0.1949
 1043YOPC   C2B11974   4.544  13.409   7.413  0.0842 -0.0216 -0.1061
 1043YOPC   D3B11975   4.419  13.777   7.639  0.1167 -0.0714  0.2808
 1043YOPC   C4B11976   3.997  13.928   7.837  0.4655 -0.1407  0.0217
 1044YOPC   NC311977   2.365  14.382   5.461  0.2601  0.4359  0.0237
 1044YOPC   PO411978   2.559  14.012   5.365 -0.0151  0.0415 -0.1338
 1044YOPC   GL111979   2.555  13.964   5.823 -0.5886 -0.0710  0.1669
 1044YOPC   GL211980   2.310  14.156   5.912 -0.0114  0.0731  0.0654
 1044YOPC   C1A11981   2.828  14.024   6.245 -0.1411  0.0274  0.2940
 1044YOPC   D2A11982   2.843  14.043   6.675 -0.2433 -0.0216  0.0428
 1044YOPC   C3A11983   2.974  13.901   7.160 -0.0827  0.0613  0.1169
 1044YOPC   C4A11984   3.006  13.645   7.535  0.1169  0.2670 -0.0492
 1044YOPC   C1B11985   2.425  14.324   6.249 -0.1519  0.0451 -0.1633
 1044YOPC   C2B11986   2.798  14.504   6.511 -0.0978 -0.2412 -0.1649
 1044YOPC   D3B11987   3.045  14.916   6.489  0.1732 -0.1286 -0.1377
 1044YOPC   C4B11988   3.036  15.376   6.443  0.2202  0.0485 -0.0790
 1045YOPC   NC311989   1.106   5.421   6.462 -0.1818 -0.0819 -0.2460
 1045YOPC   PO411990   1.496   5.729   6.590 -0.1980 -0.1959 -0.1369
 1045YOPC   GL111991   1.617   5.929   6.921  0.0207  0.1793  0.1372
 1045YOPC   GL211992   1.961   6.120   6.815 -0.1878  0.1370  0.3475
 1045YOPC   C1A11993   1.886   6.069   7.332  0.2801 -0.4366  0.2962
 1045YOPC   D2A11994   1.984   6.215   7.621  0.0290  0.2565  0.1753
 1045YOPC   C3A11995   2.359   6.533   7.552  0.1180  0.4730 -0.1922
 1045YOPC   C4A11996   2.687   6.323   7.502 -0.2560 -0.0502  0.1489
 1045YOPC   C1B11997   2.166   6.482   7.042 -0.0344 -0.0822  0.2044
 1045YOPC   C2B11998   2.519   6.763   7.117  0.1717  0.2761 -0.4017
 1045YOPC   D3B11999   2.795   6.770   7.421 -0.0779  0.2197 -0.1477
 1045YOPC   C4B12000   3.055   7.018   7.724  0.1957  0.3424  0.0963
 1046YOPC   NC312001   8.478   3.725   5.770 -0.0456  0.0344 -0.0948
 1046YOPC   PO412002   8.254   4.119   5.909  0.2440 -0.1002  0.3094
 1046YOPC   GL112003   8.090   4.359   6.235  0.0527 -0.3347 -0.3166
 1046YOPC   GL212004   7.890   4.562   6.138  0.3198 -0.0704  0.1061
 1046YOPC   C1A12005   8.218   4.600   6.587 -0.0751 -0.0500  0.1477
 1046YOPC   D2A12006   8.134   4.478   6.967 -0.0761 -0.2285  0.1044
 1046YOPC   C3A12007   8.311   4.520   7.389  0.0969  0.1989  0.1193
 1046YOPC   C4A12008   8.611   4.491   7.753 -0.0653  0.3080  0.1523
 1046YOPC   C1B12009   7.776   4.685   6.605  0.0406  0.2062  0.1136
 1046YOPC   C2B12010   7.586   4.588   7.026  0.0070 -0.2093  0.2509
 1046YOPC   D3B12011   7.755   4.628   7.367  0.0140 -0.0071 -0.1680
 1046YOPC   C4B12012   7.956   4.641   7.752  0.0461  0.1660 -0.0343
 1047YOPC   NC312013  14.975   2.151   6.199  0.0579  0.1160 -0.2937
 1047YOPC   PO412014  14.890   2.523   6.335  0.1800 -0.1075  0.0374
 1047YOPC   GL112015  14.920   2.660   6.701 -0.0257 -0.0836 -0.3081
 1047YOPC   GL212016  15.286   2.430   6.640  0.0034 -0.1668  0.0328
 1047YOPC   C1A12017  14.972   2.487   7.163  0.2558 -0.0396  0.0536
 1047YOPC   D2A12018  15.075   2.581   7.595 -0.0266 -0.0057  0.0378
 1047YOPC   C3A12019  15.366   2.372   7.889  0.1895  0.3146  0.0726
 1047YOPC   C4A12020  15.535   2.341   8.352  0.0228 -0.0129  0.1535
 1047YOPC   C1B12021  15.500   2.520   7.039  0.0595 -0.0071 -0.0151
 1047YOPC   C2B12022  15.507   2.419   7.441  0.1997  0.1876 -0.1560
 1047YOPC   D3B12023  15.846   2.230   7.769  0.1230  0.2203 -0.1664
 1047YOPC   C4B12024  16.056   2.193   8.189 -0.0632 -0.0772 -0.2543
 1048YOPC   NC312025  10.411  17.892   5.662 -0.2459  0.1461  0.1986
 1048YOPC   PO412026  10.005  17.866   5.760 -0.2240  0.0559  0.2243
 1048YOPC   GL112027   9.828  17.671   6.086  0.1925 -0.4239  0.0255
 1048YOPC   GL212028   9.761  17.261   6.072 -0.0141  0.1203  0.1013
 1048YOPC   C1A12029   9.639  17.587   6.499 -0.1872  0.2374 -0.1262
 1048YOPC   D2A12030   9.520  17.674   6.839 -0.3414 -0.3033 -0.0273
 1048YOPC   C3A12031   9.809  17.639   7.218  0.2107  0.0297 -0.0572
 1048YOPC   C4A12032   9.801  17.799   7.632  0.1549 -0.2638  0.0038
 1048YOPC   C1B12033  10.026  17.257   6.396  0.0415 -0.0347  0.1474
 1048YOPC   C2B12034  10.064  17.402   6.781 -0.0069  0.1349  0.0588
 1048YOPC   D3B12035  10.103  17.106   7.185  0.1692  0.1388 -0.0791
 1048YOPC   C4B12036  10.178  16.887   7.500 -0.1044  0.0298 -0.2938
 1049YOPC   NC312037  16.759   1.330   6.524 -0.0575  0.1264 -0.0112
 1049YOPC   PO412038  16.518   1.647   6.769 -0.1662  0.1694  0.2159
 1049YOPC   GL112039  16.507   1.512   7.113  0.0306 -0.0198 -0.0695
 1049YOPC   GL212040  16.657   1.723   7.271  0.2046  0.2489 -0.1855
 1049YOPC   C1A12041  16.271   1.467   7.460  0.1639 -0.1349  0.3538
 1049YOPC   D2A12042  16.064   1.283   7.872  0.2050 -0.1245 -0.1393
 1049YOPC   C3A12043  15.827   1.405   8.197 -0.0529  0.0731 -0.0755
 1049YOPC   C4A12044  15.767   1.793   8.272  0.0579  0.2561 -0.0701
 1049YOPC   C1B12045  16.675   1.858   7.710 -0.0833  0.1983 -0.0591
 1049YOPC   C2B12046  16.926   1.913   8.028  0.1173  0.1147 -0.0656
 1049YOPC   D3B12047  17.086   1.504   8.096 -0.1076 -0.1300 -0.0653
 1049YOPC   C4B12048  17.355   1.629   8.290  0.2887 -0.1554 -0.1096
 1050YOPC   NC312049  18.059   1.859   6.690 -0.2516 -0.1582  0.1889
 1050YOPC   PO412050  18.301   1.525   6.774  0.3769  0.0451 -0.3608
 1050YOPC   GL112051  18.031   1.391   7.060 -0.3135  0.0302 -0.1039
 1050YOPC   GL212052  17.826   1.743   7.150 -0.0264 -0.1919 -0.1492
 1050YOPC   C1A12053  17.929   1.409   7.534  0.1584  0.0898 -0.0309
 1050YOPC   D2A12054  18.130   1.317   7.832 -0.0233 -0.1854 -0.4407
 1050YOPC   C3A12055  18.074   1.374   8.299 -0.1134  0.5069  0.2625
 1050YOPC   C4A12056  18.054   1.423   8.767 -0.0780 -0.2184  0.1085
 1050YOPC   C1B12057  17.965   1.959   7.568  0.0836 -0.0685 -0.1776
 1050YOPC   C2B12058  17.941   2.135   8.042 -0.2651  0.1162 -0.3153
 1050YOPC   D3B12059  17.722   2.530   8.161  0.4650 -0.0388 -0.3357
 1050YOPC   C4B12060  17.540   2.895   8.489  0.1088  0.0434  0.0383
 1051YOPC   NC312061  10.944  12.758   5.739  0.1524  0.1146  0.2435
 1051YOPC   PO412062  10.977  12.876   6.049 -0.1219  0.4586  0.1740
 1051YOPC   GL112063  10.829  13.063   6.303  0.0830 -0.2955 -0.0804
 1051YOPC   GL212064  11.107  13.061   6.568  0.0552  0.0632 -0.2078
 1051YOPC   C1A12065  10.624  12.879   6.686 -0.0091  0.0110  0.1192
 1051YOPC   D2A12066  10.511  12.712   7.157 -0.0080 -0.1535  0.0514
 1051YOPC   C3A12067  10.190  12.771   7.380 -0.0708  0.2159 -0.1213
 1051YOPC   C4A12068   9.808  12.644   7.249 -0.2561  0.2535 -0.2612
 1051YOPC   C1B12069  10.959  12.946   7.035  0.0934  0.1681  0.1019
 1051YOPC   C2B12070  10.928  12.888   7.451  0.1926  0.2097  0.0291
 1051YOPC   D3B12071  11.023  13.106   7.682 -0.0177 -0.0670  0.3124
 1051YOPC   C4B12072  11.196  13.468   7.711 -0.3813  0.1079 -0.3613
 1052YOPC   NC312073   3.401  16.555   6.057 -0.0476  0.1709  0.0774
 1052YOPC   PO412074   3.457  16.143   5.982  0.1309 -0.0171  0.0318
 1052YOPC   GL112075   3.237  16.258   6.430 -0.0805  0.1494  0.0046
 1052YOPC   GL212076   3.501  16.378   6.539 -0.0062 -0.2700  0.3596
 1052YOPC   C1A12077   3.188  16.247   6.905  0.2461  0.2460  0.1983
 1052YOPC   D2A12078   3.357  16.176   7.296 -0.1703 -0.0927 -0.0733
 1052YOPC   C3A12079   3.418  15.888   7.650 -0.0157 -0.2509 -0.0862
 1052YOPC   C4A12080   3.579  15.645   8.022 -0.1648 -0.0459 -0.3348
 1052YOPC   C1B12081   3.706  16.267   6.870 -0.1670 -0.0936  0.2196
 1052YOPC   C2B12082   4.037  16.164   7.184  0.0358 -0.1171 -0.0480
 1052YOPC   D3B12083   3.793  15.826   7.351  0.0994 -0.1939 -0.1734
 1052YOPC   C4B12084   3.865  15.565   7.585  0.0574  0.1933 -0.1529
 1053YOPC   NC312085  11.934   4.462   5.883  0.0672  0.1166  0.0943
 1053YOPC   PO412086  11.458   4.645   5.922 -0.0684  0.1925 -0.0150
 1053YOPC   GL112087  11.238   4.444   6.327  0.1254 -0.6107 -0.2125
 1053YOPC   GL212088  11.078   4.636   6.586 -0.0006 -0.1836  0.2122
 1053YOPC   C1A12089  10.785   4.239   6.582  0.2461  0.1210  0.2719
 1053YOPC   D2A12090  10.563   4.278   6.941  0.1962 -0.0380 -0.4125
 1053YOPC   C3A12091  10.635   4.268   7.359  0.0958  0.1159 -0.0001
 1053YOPC   C4A12092  10.667   4.383   7.748 -0.2850 -0.1147 -0.0694
 1053YOPC   C1B12093  11.013   4.508   7.004  0.1223  0.1722 -0.0182
 1053YOPC   C2B12094  11.030   4.658   7.467 -0.3623 -0.0466 -0.1200
 1053YOPC   D3B12095  11.430   4.452   7.699  0.0957 -0.0927 -0.3103
 1053YOPC   C4B12096  11.627   4.422   8.166  0.1938 -0.0138 -0.1129
 1054YOPC   NC312097   9.434   5.573   6.294  0.0592  0.4724 -0.0095
 1054YOPC   PO412098   9.580   5.234   6.042 -0.1133  0.0082  0.0758
 1054YOPC   GL112099   9.547   5.127   6.468 -0.1888 -0.1718  0.0899
 1054YOPC   GL212100   9.713   5.357   6.672 -0.1101  0.2511  0.2024
 1054YOPC   C1A12101   9.315   4.881   6.735 -0.0514 -0.0050  0.0082
 1054YOPC   D2A12102   9.131   4.520   6.961 -0.2612 -0.0379  0.0126
 1054YOPC   C3A12103   9.463   4.429   7.269 -0.2539 -0.2458  0.1446
 1054YOPC   C4A12104   9.595   4.368   7.699  0.0500 -0.1578  0.1000
 1054YOPC   C1B12105   9.667   5.536   7.014  0.2032 -0.1183  0.1352
 1054YOPC   C2B12106   9.601   5.335   7.473 -0.1715  0.3962  0.2161
 1054YOPC   D3B12107   9.238   5.385   7.696 -0.1025  0.0898  0.0830
 1054YOPC   C4B12108   8.834   5.356   7.508  0.2738 -0.1984 -0.1936
 1055YOPC   NC312109   7.332   6.005   5.956 -0.1071 -0.1820  0.0204
 1055YOPC   PO412110   6.857   5.904   6.087  0.0530 -0.0587 -0.1090
 1055YOPC   GL112111   6.657   6.060   6.463  0.0805 -0.0675  0.0155
 1055YOPC   GL212112   6.764   6.337   6.636  0.3502  0.0181 -0.1241
 1055YOPC   C1A12113   6.387   5.882   6.739 -0.0613 -0.0519 -0.2127
 1055YOPC   D2A12114   6.033   5.950   6.806 -0.0156  0.3300  0.0274
 1055YOPC   C3A12115   5.675   5.630   6.905 -0.3090 -0.0311 -0.0272
 1055YOPC   C4A12116   5.578   5.492   7.337  0.1257  0.0337 -0.0669
 1055YOPC   C1B12117   6.827   6.098   6.962 -0.0250 -0.2320  0.1228
 1055YOPC   C2B12118   6.980   6.160   7.346  0.1071 -0.0122  0.0960
 1055YOPC   D3B12119   7.115   6.459   7.630  0.1979  0.0397  0.6160
 1055YOPC   C4B12120   6.845   6.726   7.750  0.2650 -0.0545 -0.0664
 1056YOPC   NC312121   2.413  15.216   5.750  0.1940 -0.1607  0.1741
 1056YOPC   PO412122   2.205  15.654   6.002 -0.0229 -0.0865 -0.0746
 1056YOPC   GL112123   1.963  15.675   6.405 -0.0970 -0.3176  0.3307
 1056YOPC   GL212124   1.692  15.557   6.444 -0.1538  0.1041 -0.0653
 1056YOPC   C1A12125   1.894  15.699   6.891 -0.2564  0.1011 -0.1763
 1056YOPC   D2A12126   1.747  15.396   7.206 -0.0916 -0.1057 -0.2203
 1056YOPC   C3A12127   1.488  15.455   7.563  0.5055  0.0729 -0.1229
 1056YOPC   C4A12128   1.478  15.588   7.994  0.1948  0.2359 -0.0839
 1056YOPC   C1B12129   1.581  15.269   6.729 -0.0440  0.1611  0.0409
 1056YOPC   C2B12130   1.688  14.929   6.900 -0.1694 -0.2906 -0.0840
 1056YOPC   D3B12131   1.479  14.870   7.302  0.0605  0.0082 -0.2123
 1056YOPC   C4B12132   1.303  14.541   7.644 -0.1816  0.0312  0.0351
 1057YOPC   NC312133   3.463  16.909   6.345  0.1323 -0.1275  0.2824
 1057YOPC   PO412134   3.011  16.714   6.377  0.0332  0.0837  0.2421
 1057YOPC   GL112135   3.175  16.890   6.782  0.0096  0.2565  0.0863
 1057YOPC   GL212136   2.897  16.758   6.892 -0.1922 -0.1079  0.0194
 1057YOPC   C1A12137   3.475  16.709   7.028  0.1712  0.0216 -0.0435
 1057YOPC   D2A12138   3.657  16.665   7.345 -0.1185 -0.0587 -0.1101
 1057YOPC   C3A12139   3.959  16.497   7.560 -0.4100  0.0188 -0.1257
 1057YOPC   C4A12140   4.211  16.368   7.961 -0.0816  0.2202  0.0547
 1057YOPC   C1B12141   3.050  16.524   7.316 -0.1238  0.1056  0.0934
 1057YOPC   C2B12142   3.236  16.348   7.688  0.0474  0.0867  0.0940
 1057YOPC   D3B12143   2.858  16.346   7.849 -0.1724 -0.1355  0.2848
 1057YOPC   C4B12144   2.626  16.041   8.079  0.2920  0.2968  0.1583
 1058YOPC   NC312145   4.316  12.049   5.724 -0.0264 -0.0073  0.1117
 1058YOPC   PO412146   4.454  11.803   5.945 -0.0777 -0.1901 -0.2641
 1058YOPC   GL112147   4.526  11.807   6.323 -0.2488 -0.2249 -0.1920
 1058YOPC   GL212148   4.310  11.608   6.443 -0.2925  0.0345 -0.1508
 1058YOPC   C1A12149   4.678  12.134   6.661  0.0028  0.3105  0.1440
 1058YOPC   D2A12150   4.776  12.263   7.105 -0.0170  0.2816 -0.0457
 1058YOPC   C3A12151   4.806  12.657   7.111 -0.2340  0.1415 -0.2801
 1058YOPC   C4A12152   4.625  13.044   7.138  0.1331  0.0725 -0.0048
 1058YOPC   C1B12153   4.250  11.450   6.756  0.2382  0.2863 -0.1338
 1058YOPC   C2B12154   4.255  11.457   7.204 -0.1158  0.0084  0.1723
 1058YOPC   D3B12155   4.224  11.657   7.569  0.0400  0.1215 -0.0422
 1058YOPC   C4B12156   4.056  11.700   7.982 -0.1624  0.1183 -0.2218
 1059YOPC   NC312157  14.223  10.777   6.070  0.0563  0.1058  0.0018
 1059YOPC   PO412158  14.420  10.533   6.456 -0.1516 -0.2051  0.0149
 1059YOPC   GL112159  14.623  10.487   6.803 -0.0302 -0.3058  0.2113
 1059YOPC   GL212160  14.861  10.237   6.851  0.1598  0.0576  0.3662
 1059YOPC   C1A12161  14.630  10.538   7.301  0.3173  0.3144 -0.1484
 1059YOPC   D2A12162  14.681  10.347   7.675 -0.1107 -0.1061 -0.2000
 1059YOPC   C3A12163  14.663  10.500   8.047  0.4562  0.0820  0.1516
 1059YOPC   C4A12164  14.734  10.697   8.401  0.2740 -0.1797 -0.0576
 1059YOPC   C1B12165  14.777  10.100   7.266 -0.2508  0.3798 -0.2422
 1059YOPC   C2B12166  14.684   9.761   7.557  0.1284 -0.0854  0.1347
 1059YOPC   D3B12167  14.871   9.983   7.942  0.0159  0.2464  0.0570
 1059YOPC   C4B12168  14.803   9.989   8.474 -0.1452  0.0333 -0.3209
 1060YOPC   NC312169  13.563   5.416   6.585 -0.2225  0.0508  0.1757
 1060YOPC   PO412170  13.825   5.824   6.557 -0.2640  0.2179 -0.0907
 1060YOPC   GL112171  13.909   5.891   6.924  0.0067 -0.1911 -0.3980
 1060YOPC   GL212172  13.862   6.075   7.060 -0.0355 -0.2369 -0.0544
 1060YOPC   C1A12173  14.089   5.576   7.112  0.0831 -0.0282  0.0723
 1060YOPC   D2A12174  14.153   5.200   7.410 -0.3034  0.0026 -0.0422
 1060YOPC   C3A12175  14.360   5.184   7.817 -0.4039 -0.0759 -0.3964
 1060YOPC   C4A12176  14.166   5.502   8.205 -0.2226 -0.1156 -0.2717
 1060YOPC   C1B12177  13.628   6.071   7.447  0.0482  0.1039  0.2379
 1060YOPC   C2B12178  13.518   5.894   7.818  0.1202 -0.0266  0.0121
 1060YOPC   D3B12179  13.536   5.857   8.233 -0.3246 -0.1725 -0.2708
 1060YOPC   C4B12180  13.601   5.940   8.736 -0.2758  0.0302 -0.0457
 1061YOPC   NC312181   7.184   4.650   5.600  0.3639 -0.0389  0.2176
 1061YOPC   PO412182   7.485   4.682   5.894  0.0138  0.2163 -0.2588
 1061YOPC   GL112183   7.303   4.768   6.252  0.0467  0.3502 -0.1349
 1061YOPC   GL212184   7.449   5.004   6.392 -0.1098 -0.3774 -0.1843
 1061YOPC   C1A12185   7.291   4.577   6.664 -0.0989  0.3942  0.0773
 1061YOPC   D2A12186   7.233   4.268   7.018  0.3056  0.1605  0.1609
 1061YOPC   C3A12187   7.353   4.184   7.454  0.1919  0.1600  0.0715
 1061YOPC   C4A12188   7.729   4.171   7.639 -0.2664 -0.0834  0.2768
 1061YOPC   C1B12189   7.463   5.086   6.830 -0.0126 -0.0346 -0.0982
 1061YOPC   C2B12190   7.210   5.330   7.087 -0.3522 -0.1083 -0.2744
 1061YOPC   D3B12191   7.169   5.344   7.569  0.1794 -0.2576 -0.0718
 1061YOPC   C4B12192   7.163   5.415   7.999 -0.3723 -0.0519 -0.0265
 1062YOPC   NC312193  12.580   6.923   6.455 -0.0551 -0.2565  0.1153
 1062YOPC   PO412194  12.194   6.810   6.737  0.4109  0.1618  0.4119
 1062YOPC   GL112195  12.185   7.097   6.797 -0.3587  0.0429 -0.1109
 1062YOPC   GL212196  12.103   7.198   7.145 -0.0980 -0.0582  0.0507
 1062YOPC   C1A12197  12.391   7.470   6.871  0.2066 -0.2691  0.2392
 1062YOPC   D2A12198  12.673   7.655   7.029 -0.3725  0.1722 -0.3037
 1062YOPC   C3A12199  12.571   7.836   7.363  0.0017 -0.1441 -0.1583
 1062YOPC   C4A12200  12.803   7.864   7.693 -0.2535 -0.0400 -0.1118
 1062YOPC   C1B12201  12.167   7.525   7.356 -0.0461 -0.1390  0.1615
 1062YOPC   C2B12202  12.016   7.889   7.212 -0.3658  0.0613 -0.0082
 1062YOPC   D3B12203  12.266   8.027   6.848 -0.0845  0.1266 -0.0385
 1062YOPC   C4B12204  12.616   8.414   6.713  0.1026 -0.1025  0.0802
 1063YOPC   NC312205  16.317   0.484   5.918 -0.0725  0.0093  0.0874
 1063YOPC   PO412206  15.998   0.174   5.887 -0.1072 -0.0932  0.0765
 1063YOPC   GL112207  16.037   0.269   6.358  0.0970  0.0018  0.1797
 1063YOPC   GL212208  16.132   0.494   6.391 -0.0283  0.0034 -0.2150
 1063YOPC   C1A12209  15.950   0.217   6.808 -0.0536 -0.3945  0.0736
 1063YOPC   D2A12210  16.075  -0.063   7.072  0.0307 -0.3269 -0.0821
 1063YOPC   C3A12211  16.392   0.118   7.418 -0.1183  0.2496 -0.3165
 1063YOPC   C4A12212  16.676   0.207   7.776  0.0477  0.0810 -0.0209
 1063YOPC   C1B12213  16.454   0.446   6.730 -0.1982 -0.2521 -0.1120
 1063YOPC   C2B12214  16.648   0.581   7.035 -0.1701 -0.1296  0.3787
 1063YOPC   D3B12215  16.811   0.386   7.361  0.0279 -0.0684 -0.0562
 1063YOPC   C4B12216  16.844   0.654   7.659 -0.0471 -0.0170 -0.1907
 1064YOPC   NC312217   7.576   8.027   6.029  0.0691  0.0645 -0.1126
 1064YOPC   PO412218   7.335   8.294   5.789  0.0104 -0.3431 -0.1462
 1064YOPC   GL112219   7.321   8.609   6.161  0.0212  0.1118 -0.2313
 1064YOPC   GL212220   7.527   8.901   6.276  0.0226 -0.1098 -0.0683
 1064YOPC   C1A12221   7.373   8.658   6.674  0.0546  0.0253  0.0366
 1064YOPC   D2A12222   7.196   8.793   6.927 -0.1598 -0.0919 -0.1013
 1064YOPC   C3A12223   6.984   8.611   7.291 -0.0732  0.1308 -0.0492
 1064YOPC   C4A12224   6.850   8.654   7.650 -0.2318  0.1008  0.0193
 1064YOPC   C1B12225   7.335   9.173   6.581 -0.0209  0.0046  0.2263
 1064YOPC   C2B12226   7.256   9.444   6.759  0.3636  0.1947  0.0682
 1064YOPC   D3B12227   7.328   9.386   7.101  0.0695  0.2789 -0.1950
 1064YOPC   C4B12228   7.625   9.445   7.376 -0.1732  0.2597  0.2237
 1065YOPC   NC312229   6.222   4.509   5.612  0.4464 -0.1291 -0.2094
 1065YOPC   PO412230   5.772   4.240   5.436 -0.1734 -0.1751 -0.1538
 1065YOPC   GL112231   5.721   4.021   5.791  0.0212 -0.1183 -0.0233
 1065YOPC   GL212232   6.005   4.040   5.900  0.1266  0.3107 -0.2122
 1065YOPC   C1A12233   5.631   3.832   6.191  0.0296 -0.2232  0.0062
 1065YOPC   D2A12234   5.503   3.416   6.338 -0.1581 -0.0077  0.2313
 1065YOPC   C3A12235   5.846   3.242   6.345  0.1156  0.1726  0.0589
 1065YOPC   C4A12236   6.014   3.018   6.661  0.0785  0.0154  0.0301
 1065YOPC   C1B12237   6.117   3.709   6.341  0.2109 -0.2063  0.0537
 1065YOPC   C2B12238   6.163   3.759   6.826 -0.1548  0.2183 -0.2055
 1065YOPC   D3B12239   6.204   3.357   7.061 -0.0166  0.0936 -0.0405
 1065YOPC   C4B12240   6.360   2.978   7.184  0.2846 -0.0718  0.3363
 1066YOPC   NC312241   6.738  15.047   5.864 -0.1124  0.1607 -0.0734
 1066YOPC   PO412242   6.501  15.251   6.069 -0.1051  0.0969 -0.0980
 1066YOPC   GL112243   6.786  15.575   6.324  0.0394 -0.0236  0.6076
 1066YOPC   GL212244   6.535  15.736   6.246  0.0736  0.1809 -0.0976
 1066YOPC   C1A12245   6.970  15.747   6.705  0.1373 -0.2036 -0.0042
 1066YOPC   D2A12246   7.176  15.885   7.000 -0.2735  0.0695 -0.0274
 1066YOPC   C3A12247   6.975  15.865   7.348 -0.1112 -0.1352  0.1943
 1066YOPC   C4A12248   6.617  15.865   7.554  0.0507 -0.1643 -0.2138
 1066YOPC   C1B12249   6.488  15.710   6.688  0.3531  0.1234  0.2814
 1066YOPC   C2B12250   6.531  15.824   7.044 -0.0673 -0.0073  0.2451
 1066YOPC   D3B12251   6.212  15.564   7.265 -0.0655 -0.0769  0.1212
 1066YOPC   C4B12252   5.965  15.337   7.528 -0.1355  0.1092  0.2912
 1067YOPC   NC312253  11.081   5.382   6.086 -0.1456 -0.0300 -0.0350
 1067YOPC   PO412254  10.711   5.696   6.255 -0.2077 -0.0717  0.2054
 1067YOPC   GL112255  10.441   5.763   6.565  0.1956 -0.0397  0.0632
 1067YOPC   GL212256  10.497   5.447   6.666 -0.1095  0.1803  0.2351
 1067YOPC   C1A12257  10.511   5.909   6.992 -0.0878  0.0120  0.4954
 1067YOPC   D2A12258  10.434   5.934   7.319 -0.0452  0.0105 -0.0575
 1067YOPC   C3A12259  10.444   5.635   7.668 -0.3059 -0.0700  0.1785
 1067YOPC   C4A12260  10.539   5.363   7.905  0.4669  0.0103 -0.2500
 1067YOPC   C1B12261  10.484   5.423   7.130 -0.0092  0.0825  0.3589
 1067YOPC   C2B12262  10.643   5.229   7.439 -0.1563 -0.1918  0.0257
 1067YOPC   D3B12263  11.011   5.316   7.678 -0.1957 -0.1248  0.0518
 1067YOPC   C4B12264  11.503   5.451   7.529 -0.0587 -0.0798 -0.1452
 1068YOPC   NC312265   7.289   5.147   5.932 -0.1131  0.0779  0.2073
 1068YOPC   PO412266   7.168   5.558   5.896  0.1602 -0.0176  0.1538
 1068YOPC   GL112267   7.224   5.692   6.357  0.2112  0.0145 -0.0254
 1068YOPC   GL212268   7.163   6.045   6.492  0.1955 -0.1398  0.1297
 1068YOPC   C1A12269   7.346   5.600   6.677  0.5576 -0.0064 -0.2678
 1068YOPC   D2A12270   7.248   5.850   6.943 -0.2684 -0.2378  0.0797
 1068YOPC   C3A12271   7.335   5.855   7.346 -0.1527  0.0911  0.0312
 1068YOPC   C4A12272   7.368   5.829   7.704  0.0189 -0.2158 -0.2370
 1068YOPC   C1B12273   7.252   6.414   6.847 -0.1713  0.0047 -0.1894
 1068YOPC   C2B12274   7.236   6.887   7.000  0.1557 -0.2865  0.0399
 1068YOPC   D3B12275   7.261   6.965   7.523  0.4668 -0.1282 -0.1737
 1068YOPC   C4B12276   7.296   7.254   7.947 -0.1720 -0.3659 -0.0236
 1069YOPC   NC312277   8.163  17.763   5.856  0.0420 -0.0443 -0.0261
 1069YOPC   PO412278   7.880  18.118   5.845  0.2784 -0.0771  0.3524
 1069YOPC   GL112279   8.088  18.164   6.196  0.0657 -0.0368 -0.1477
 1069YOPC   GL212280   7.851  18.111   6.493 -0.1762  0.0351 -0.2213
 1069YOPC   C1A12281   8.431  18.044   6.485 -0.0891 -0.2589 -0.0483
 1069YOPC   D2A12282   8.656  17.850   6.743  0.0942 -0.0219 -0.2247
 1069YOPC   C3A12283   8.593  17.367   6.672  0.0787 -0.1946 -0.0883
 1069YOPC   C4A12284   8.459  16.904   6.799  0.0211  0.4114 -0.1491
 1069YOPC   C1B12285   8.108  18.356   6.758  0.2832 -0.1351  0.1792
 1069YOPC   C2B12286   8.226  18.684   6.994 -0.1149 -0.0651  0.2294
 1069YOPC   D3B12287   8.320  18.681   7.398 -0.1494 -0.0282  0.0845
 1069YOPC   C4B12288   8.202  18.595   7.790  0.0399 -0.0024  0.3184
 1070YOPC   NC312289   3.321  14.793   5.932  0.3536  0.5461  0.2799
 1070YOPC   PO412290   3.762  14.628   6.039 -0.1967 -0.0085 -0.1313
 1070YOPC   GL112291   4.021  14.567   6.421  0.1050 -0.0933 -0.1127
 1070YOPC   GL212292   3.867  14.917   6.634 -0.2534  0.0133 -0.1899
 1070YOPC   C1A12293   4.125  14.231   6.776  0.1516  0.1142  0.1316
 1070YOPC   D2A12294   4.262  13.929   6.910 -0.0583 -0.0186  0.0708
 1070YOPC   C3A12295   4.102  13.693   7.224  0.0071 -0.2022 -0.1225
 1070YOPC   C4A12296   4.067  13.430   7.513  0.0620 -0.0642  0.2195
 1070YOPC   C1B12297   3.783  14.687   7.015 -0.1033  0.1842 -0.0144
 1070YOPC   C2B12298   3.564  14.496   7.316  0.1391 -0.1036 -0.0954
 1070YOPC   D3B12299   3.213  14.609   7.610 -0.0133  0.1343 -0.2111
 1070YOPC   C4B12300   2.948  14.577   7.932  0.1372  0.3540 -0.1824
 1071YOPC   NC312301  13.907  13.378   5.688 -0.0616 -0.3899  0.3157
 1071YOPC   PO412302  14.084  13.435   6.059 -0.1322 -0.0825 -0.0091
 1071YOPC   GL112303  14.144  13.572   6.518 -0.0641 -0.1569  0.2112
 1071YOPC   GL212304  13.928  13.264   6.615 -0.1487 -0.0905  0.0569
 1071YOPC   C1A12305  14.162  13.789   6.991 -0.1348 -0.0478  0.1117
 1071YOPC   D2A12306  14.198  13.943   7.378  0.1142 -0.2675 -0.0121
 1071YOPC   C3A12307  14.423  14.347   7.578 -0.0455  0.0946  0.1939
 1071YOPC   C4A12308  14.546  14.714   7.580 -0.0527  0.3024  0.1703
 1071YOPC   C1B12309  13.740  13.121   7.059  0.2264 -0.1045  0.4331
 1071YOPC   C2B12310  13.620  13.193   7.387  0.1216  0.2918  0.2588
 1071YOPC   D3B12311  13.728  13.392   7.771 -0.0556  0.1420 -0.1399
 1071YOPC   C4B12312  13.700  13.577   8.102 -0.0865  0.0503 -0.4237
 1072YOPC   NC312313   3.653  12.087   5.823  0.0625  0.0109  0.1912
 1072YOPC   PO412314   3.908  12.409   5.775 -0.2251 -0.2574  0.3532
 1072YOPC   GL112315   3.975  12.587   6.162  0.3065 -0.0300 -0.3024
 1072YOPC   GL212316   3.808  12.288   6.397  0.1599  0.1112  0.0457
 1072YOPC   C1A12317   3.880  12.737   6.611  0.0299 -0.0313 -0.0846
 1072YOPC   D2A12318   3.787  12.842   6.989 -0.0108 -0.1702  0.0023
 1072YOPC   C3A12319   3.784  13.337   7.062  0.0292  0.2743  0.0577
 1072YOPC   C4A12320   3.770  13.695   6.851 -0.0394 -0.0143 -0.1850
 1072YOPC   C1B12321   4.143  12.064   6.593 -0.0136 -0.1547 -0.4393
 1072YOPC   C2B12322   4.351  11.944   6.973 -0.0225  0.0140  0.1679
 1072YOPC   D3B12323   4.150  12.081   7.246  0.1884  0.0289 -0.1832
 1072YOPC   C4B12324   3.932  12.100   7.630  0.0965  0.1724 -0.1169
 1073YOPC   NC312325  10.329   9.896   6.004  0.0380 -0.1112 -0.2064
 1073YOPC   PO412326  10.534   9.685   5.935 -0.0733  0.1357  0.0779
 1073YOPC   GL112327  10.739   9.744   6.346 -0.1224  0.0203  0.3766
 1073YOPC   GL212328  10.905   9.942   6.332  0.3865 -0.1617  0.0515
 1073YOPC   C1A12329  10.886   9.442   6.676  0.0377  0.2962  0.1299
 1073YOPC   D2A12330  10.919   9.348   7.127  0.0084 -0.1333 -0.0980
 1073YOPC   C3A12331  10.720   9.537   7.439 -0.0086  0.2172  0.1358
 1073YOPC   C4A12332  10.608   9.431   7.851  0.0218  0.0773 -0.0899
 1073YOPC   C1B12333  10.800   9.957   6.766 -0.1956 -0.0626  0.2919
 1073YOPC   C2B12334  10.886   9.840   7.071 -0.4054 -0.3491 -0.0256
 1073YOPC   D3B12335  10.683  10.037   7.437  0.1259 -0.2450  0.1680
 1073YOPC   C4B12336  10.823   9.873   7.863  0.1487 -0.0758 -0.0498
 1074YOPC   NC312337  10.932   4.469   5.767  0.1361  0.0083 -0.0969
 1074YOPC   PO412338  10.894   4.903   6.157 -0.0576  0.1582 -0.0498
 1074YOPC   GL112339  10.916   5.231   6.563  0.2917 -0.1823 -0.0419
 1074YOPC   GL212340  11.281   5.339   6.665 -0.1336  0.0933 -0.3789
 1074YOPC   C1A12341  10.883   5.228   6.986 -0.1096 -0.2848  0.0023
 1074YOPC   D2A12342  11.197   5.172   7.238 -0.0887  0.0775 -0.0778
 1074YOPC   C3A12343  11.618   5.250   7.089  0.0038 -0.3830 -0.1159
 1074YOPC   C4A12344  11.847   5.085   7.309  0.1020 -0.1841  0.3454
 1074YOPC   C1B12345  11.372   4.919   6.817  0.0929  0.0721  0.0127
 1074YOPC   C2B12346  11.521   4.464   6.812  0.0081  0.1998  0.1694
 1074YOPC   D3B12347  11.366   4.256   7.204 -0.1518  0.0352 -0.1176
 1074YOPC   C4B12348  11.093   4.120   7.564  0.4804  0.1518  0.1413
 1075YOPC   NC312349   8.157   0.172   6.008 -0.3329 -0.0017 -0.4743
 1075YOPC   PO412350   7.833   0.515   6.086 -0.1345 -0.3069  0.5430
 1075YOPC   GL112351   7.685   0.798   6.428  0.2358 -0.2499  0.1434
 1075YOPC   GL212352   7.553   0.600   6.608 -0.3846 -0.2231  0.0338
 1075YOPC   C1A12353   7.705   1.138   6.699 -0.2676  0.1354  0.1967
 1075YOPC   D2A12354   7.685   1.660   6.798 -0.2293 -0.1066  0.0866
 1075YOPC   C3A12355   7.757   1.916   7.114  0.2270 -0.0903  0.0942
 1075YOPC   C4A12356   7.778   2.148   7.432 -0.1636 -0.2635 -0.1536
 1075YOPC   C1B12357   7.327   0.405   6.943 -0.0294  0.3004 -0.0989
 1075YOPC   C2B12358   7.186   0.408   7.329 -0.0349  0.0385  0.1191
 1075YOPC   D3B12359   7.488   0.607   7.647  0.0422  0.1816 -0.0977
 1075YOPC   C4B12360   7.927   0.551   7.728  0.3448  0.1442 -0.2031
 1076YOPC   NC312361   8.375   4.762   5.403  0.0109 -0.0140  0.1563
 1076YOPC   PO412362   8.481   4.558   5.796  0.0622 -0.1418  0.0156
 1076YOPC   GL112363   8.722   4.646   6.161  0.1909 -0.2988 -0.1343
 1076YOPC   GL212364   8.628   4.325   6.256  0.0749  0.1483 -0.0017
 1076YOPC   C1A12365   9.112   4.584   6.402 -0.0307 -0.0981 -0.2385
 1076YOPC   D2A12366   9.559   4.521   6.471 -0.0450  0.0066 -0.1343
 1076YOPC   C3A12367   9.697   4.509   6.820  0.1216 -0.0721  0.0318
 1076YOPC   C4A12368   9.685   4.893   7.173 -0.1548  0.0064  0.1871
 1076YOPC   C1B12369   8.729   4.318   6.676 -0.1308  0.0184  0.2477
 1076YOPC   C2B12370   8.608   4.251   7.092  0.0299  0.1383  0.0422
 1076YOPC   D3B12371   8.890   4.426   7.358  0.0563  0.0064 -0.3183
 1076YOPC   C4B12372   9.102   4.590   7.645 -0.0364 -0.0236  0.0181
 1077YOPC   NC312373   1.851   8.545   6.561  0.3159  0.0734 -0.1358
 1077YOPC   PO412374   2.140   8.271   6.704 -0.5858 -0.1261  0.1030
 1077YOPC   GL112375   2.322   8.371   7.039  0.1700  0.0857 -0.2314
 1077YOPC   GL212376   2.504   8.665   6.974 -0.0640 -0.0133  0.0193
 1077YOPC   C1A12377   2.472   8.608   7.434  0.1321  0.1602  0.0495
 1077YOPC   D2A12378   2.781   8.745   7.725  0.0007  0.2513 -0.1825
 1077YOPC   C3A12379   2.569   8.922   8.045  0.2807 -0.2358 -0.2464
 1077YOPC   C4A12380   2.334   9.280   8.043  0.1120 -0.1378  0.0739
 1077YOPC   C1B12381   2.850   8.869   7.281 -0.2454  0.0337  0.0913
 1077YOPC   C2B12382   3.203   8.775   7.550  0.0962 -0.2193 -0.0574
 1077YOPC   D3B12383   3.090   8.992   7.965 -0.1081 -0.1763  0.1334
 1077YOPC   C4B12384   3.304   9.437   8.052  0.0361 -0.2580 -0.3397
 1078YOPC   NC312385   6.424   3.559   5.216  0.0874  0.2917  0.1093
 1078YOPC   PO412386   6.397   3.688   5.695 -0.1035  0.4158 -0.0897
 1078YOPC   GL112387   6.594   3.703   6.122 -0.0007 -0.4924 -0.0725
 1078YOPC   GL212388   6.937   3.804   6.145  0.3787 -0.1210 -0.0439
 1078YOPC   C1A12389   6.481   3.981   6.492  0.3068 -0.1884 -0.1152
 1078YOPC   D2A12390   6.265   4.268   6.745 -0.2061 -0.0189  0.0449
 1078YOPC   C3A12391   6.033   4.192   7.064 -0.1728 -0.1260 -0.2198
 1078YOPC   C4A12392   5.714   4.288   7.385 -0.2714  0.2304 -0.0614
 1078YOPC   C1B12393   7.080   3.571   6.497  0.0036 -0.1291  0.2270
 1078YOPC   C2B12394   7.267   3.647   6.848 -0.1115  0.1513 -0.0121
 1078YOPC   D3B12395   7.187   3.643   7.308 -0.0554  0.0552  0.0094
 1078YOPC   C4B12396   7.178   3.600   7.716  0.1110  0.1920 -0.2445
 1079YOPC   NC312397   8.947  17.457   5.621  0.1477  0.0290 -0.1097
 1079YOPC   PO412398   9.317  17.185   5.714  0.0795  0.2807  0.0127
 1079YOPC   GL112399   9.231  17.004   6.122  0.0182  0.0963  0.0260
 1079YOPC   GL212400   9.284  16.681   6.129 -0.0852  0.1506  0.1455
 1079YOPC   C1A12401   8.933  16.944   6.426 -0.0642  0.0864  0.0825
 1079YOPC   D2A12402   8.958  17.067   6.846  0.3437  0.0834 -0.0748
 1079YOPC   C3A12403   9.180  17.015   7.302 -0.1341 -0.2114  0.0109
 1079YOPC   C4A12404   9.420  16.703   7.477 -0.0156 -0.1298 -0.3190
 1079YOPC   C1B12405   9.172  16.252   6.362 -0.1141 -0.0548  0.1367
 1079YOPC   C2B12406   8.931  15.892   6.328  0.2444  0.2615  0.0662
 1079YOPC   D3B12407   8.562  15.617   6.241 -0.0382 -0.0373 -0.3027
 1079YOPC   C4B12408   8.190  15.630   5.931  0.0513  0.3392 -0.1618
 1080YOPC   NC312409   7.980  10.511   5.788 -0.0661 -0.1000  0.1714
 1080YOPC   PO412410   7.969  10.163   5.857  0.2142 -0.0461 -0.0627
 1080YOPC   GL112411   8.085  10.060   6.261  0.3513 -0.0451  0.0998
 1080YOPC   GL212412   8.378  10.179   6.342  0.2625  0.0285  0.0241
 1080YOPC   C1A12413   7.895  10.182   6.623  0.0269 -0.1675  0.0278
 1080YOPC   D2A12414   7.715  10.323   7.026 -0.2141 -0.2398  0.0307
 1080YOPC   C3A12415   7.733  10.217   7.483 -0.0545  0.0231 -0.1425
 1080YOPC   C4A12416   7.492  10.211   7.871 -0.2155  0.0552 -0.1159
 1080YOPC   C1B12417   8.377  10.001   6.765 -0.0850  0.2293  0.2223
 1080YOPC   C2B12418   8.737  10.027   7.129 -0.1276  0.0843  0.0738
 1080YOPC   D3B12419   8.750  10.053   7.586 -0.0425 -0.2634  0.0448
 1080YOPC   C4B12420   8.610  10.333   7.931 -0.0774  0.1386  0.0362
 1081YOPC   NC312421  10.532   1.283   5.883  0.2860 -0.0379 -0.2331
 1081YOPC   PO412422  10.281   1.756   5.985  0.1943 -0.0970 -0.0026
 1081YOPC   GL112423  10.689   1.571   6.322  0.2046  0.0242  0.0760
 1081YOPC   GL212424  10.910   1.711   6.239 -0.0245  0.1799 -0.0895
 1081YOPC   C1A12425  11.005   1.520   6.733  0.0657 -0.1303  0.2541
 1081YOPC   D2A12426  11.421   1.529   6.846  0.1149 -0.0854  0.1493
 1081YOPC   C3A12427  11.478   1.292   7.177  0.4076  0.2195  0.1112
 1081YOPC   C4A12428  11.530   1.237   7.671 -0.0623 -0.0354  0.1912
 1081YOPC   C1B12429  10.890   2.029   6.639  0.1005 -0.0714 -0.2579
 1081YOPC   C2B12430  10.972   1.901   7.106  0.2488  0.0827  0.1198
 1081YOPC   D3B12431  11.007   1.604   7.280 -0.0819 -0.2501  0.1741
 1081YOPC   C4B12432  11.203   1.576   7.533 -0.1905 -0.0590  0.0409
 1082YOPC   NC312433   3.780   6.508   5.669  0.3359  0.0112 -0.2886
 1082YOPC   PO412434   3.847   6.996   5.785  0.1623 -0.2027  0.0170
 1082YOPC   GL112435   3.708   6.802   6.170  0.0605  0.4129 -0.1512
 1082YOPC   GL212436   3.507   6.705   6.340 -0.0967  0.0542  0.0471
 1082YOPC   C1A12437   3.833   7.042   6.618 -0.2040 -0.2125  0.0505
 1082YOPC   D2A12438   3.610   7.327   6.796  0.0614 -0.0171 -0.1214
 1082YOPC   C3A12439   3.755   7.497   7.192  0.1826  0.1175 -0.0938
 1082YOPC   C4A12440   3.805   7.562   7.569  0.0052 -0.0443  0.0886
 1082YOPC   C1B12441   3.418   6.834   6.840  0.1635 -0.3385 -0.3195
 1082YOPC   C2B12442   3.329   6.850   7.319  0.0312 -0.1248  0.3348
 1082YOPC   D3B12443   3.503   7.138   7.626  0.1986  0.3190  0.0626
 1082YOPC   C4B12444   3.684   7.184   8.020  0.0756 -0.0310 -0.0941
 1083YOPC   NC312445   3.012  17.416   5.744 -0.1345 -0.1083  0.0773
 1083YOPC   PO412446   3.261  17.390   6.063 -0.0298  0.0484 -0.0679
 1083YOPC   GL112447   3.394  17.411   6.450  0.3016  0.2803 -0.1150
 1083YOPC   GL212448   3.516  17.649   6.547 -0.3214  0.0068  0.1915
 1083YOPC   C1A12449   3.453  17.260   7.004 -0.1421  0.2964  0.1038
 1083YOPC   D2A12450   3.627  17.274   7.486  0.0236 -0.1372 -0.1674
 1083YOPC   C3A12451   3.771  16.952   7.793 -0.0848  0.2604 -0.2136
 1083YOPC   C4A12452   3.767  16.556   8.013  0.1130 -0.0229 -0.1345
 1083YOPC   C1B12453   3.605  17.910   6.828 -0.0008 -0.3046  0.2583
 1083YOPC   C2B12454   3.672  18.261   6.979 -0.2115 -0.0115  0.1177
 1083YOPC   D3B12455   3.734  18.392   7.310 -0.0970 -0.0044  0.0306
 1083YOPC   C4B12456   3.937  18.407   7.682 -0.0857  0.0022  0.2959
 1084YOPC   NC312457   2.704   9.111   6.489  0.1670 -0.2344  0.0622
 1084YOPC   PO412458   3.006   9.400   6.361 -0.0901  0.1996 -0.2304
 1084YOPC   GL112459   3.038   9.392   6.799 -0.1869  0.2643 -0.0623
 1084YOPC   GL212460   3.151   9.109   6.931  0.0671  0.0068 -0.0867
 1084YOPC   C1A12461   2.801   9.487   7.167  0.0087  0.0043 -0.0761
 1084YOPC   D2A12462   2.529   9.753   7.401  0.1193  0.2943  0.1105
 1084YOPC   C3A12463   2.496   9.686   7.769  0.1722  0.0982 -0.2525
 1084YOPC   C4A12464   2.329   9.936   8.159  0.2308  0.0693 -0.2706
 1084YOPC   C1B12465   3.282   8.754   7.061 -0.2402 -0.0243 -0.2768
 1084YOPC   C2B12466   3.502   8.470   7.362 -0.0421  0.1352 -0.2210
 1084YOPC   D3B12467   3.579   8.656   7.825 -0.0950 -0.0599  0.0428
 1084YOPC   C4B12468   3.295   8.663   8.215 -0.0435 -0.0135 -0.4828
 1085YOPC   NC312469  13.771   7.694   6.605 -0.1905  0.0258  0.4553
 1085YOPC   PO412470  13.463   7.356   6.728 -0.2762 -0.2463  0.3077
 1085YOPC   GL112471  13.216   7.569   6.960  0.2256  0.3865 -0.1610
 1085YOPC   GL212472  13.498   7.845   7.002 -0.0372  0.0893 -0.0191
 1085YOPC   C1A12473  13.071   7.532   7.433  0.1922  0.1271  0.2816
 1085YOPC   D2A12474  13.188   7.504   7.831 -0.1010  0.2222 -0.0368
 1085YOPC   C3A12475  12.972   7.302   8.102 -0.2187 -0.0522 -0.0407
 1085YOPC   C4A12476  12.753   7.443   8.423 -0.0385  0.1950  0.0586
 1085YOPC   C1B12477  13.588   7.800   7.427  0.3530 -0.1685 -0.0555
 1085YOPC   C2B12478  13.689   7.789   7.880  0.5382 -0.2868  0.4144
 1085YOPC   D3B12479  13.491   8.010   8.259  0.1963  0.1188 -0.1001
 1085YOPC   C4B12480  13.096   8.381   8.163  0.1793  0.2375  0.2391
 1086YOPC   NC312481  11.057   9.563   6.026  0.0639 -0.1959 -0.1605
 1086YOPC   PO412482  11.251   9.985   5.964 -0.2331 -0.0356 -0.0681
 1086YOPC   GL112483  11.378  10.131   6.335 -0.1507 -0.1790 -0.3616
 1086YOPC   GL212484  11.461   9.862   6.413  0.0497 -0.0345 -0.0406
 1086YOPC   C1A12485  11.162  10.279   6.661  0.2312  0.4153  0.3071
 1086YOPC   D2A12486  10.926  10.367   7.033  0.2138  0.2076  0.0451
 1086YOPC   C3A12487  10.607  10.587   6.743 -0.0407  0.1278  0.0065
 1086YOPC   C4A12488  10.307  10.791   6.810 -0.2194  0.2025 -0.2611
 1086YOPC   C1B12489  11.394   9.767   6.801  0.3120 -0.1769 -0.2089
 1086YOPC   C2B12490  11.302  10.108   7.169 -0.0967 -0.0383  0.2034
 1086YOPC   D3B12491  11.147   9.950   7.520 -0.0290 -0.1532  0.0387
 1086YOPC   C4B12492  11.387   9.856   7.871  0.0890  0.3477 -0.1820
 1087YOPC   NC312493   6.912   9.946   5.147 -0.1462 -0.4427 -0.0582
 1087YOPC   PO412494   7.081   9.711   5.533 -0.1095  0.0245  0.0585
 1087YOPC   GL112495   6.925   9.808   6.034 -0.0549  0.0012  0.1682
 1087YOPC   GL212496   7.039  10.026   6.146 -0.1525  0.1677  0.0436
 1087YOPC   C1A12497   7.061   9.577   6.307  0.0433 -0.1241 -0.2249
 1087YOPC   D2A12498   7.457   9.757   6.321  0.2763  0.0823  0.0663
 1087YOPC   C3A12499   7.533  10.125   6.321 -0.1076 -0.0211 -0.1301
 1087YOPC   C4A12500   7.354  10.498   6.389 -0.1366  0.1960 -0.2539
 1087YOPC   C1B12501   7.117  10.113   6.601 -0.1382 -0.0803 -0.1303
 1087YOPC   C2B12502   7.426   9.955   6.868  0.3379  0.1950  0.1209
 1087YOPC   D3B12503   7.306   9.993   7.303 -0.0185 -0.0063  0.3780
 1087YOPC   C4B12504   7.333   9.775   7.658 -0.0883 -0.0119  0.0924
 1088YOPC   NC312505   3.761   1.881   6.279  0.0164 -0.1117 -0.0040
 1088YOPC   PO412506   3.902   1.391   6.314  0.0644  0.2583 -0.1547
 1088YOPC   GL112507   4.054   1.261   6.657  0.1345  0.1465  0.0061
 1088YOPC   GL212508   4.192   0.966   6.692 -0.1518 -0.2248  0.4854
 1088YOPC   C1A12509   4.188   1.366   7.103 -0.1249 -0.2994  0.0699
 1088YOPC   D2A12510   4.256   1.466   7.486  0.0189 -0.2267 -0.0608
 1088YOPC   C3A12511   4.324   1.197   7.763  0.0507 -0.0956 -0.0855
 1088YOPC   C4A12512   4.311   1.370   8.120  0.2414  0.2032  0.1410
 1088YOPC   C1B12513   4.131   0.598   6.618 -0.1148 -0.0203 -0.2329
 1088YOPC   C2B12514   3.945   0.273   6.909  0.1522 -0.1269  0.1152
 1088YOPC   D3B12515   4.131   0.446   7.276  0.1653  0.0669  0.1668
 1088YOPC   C4B12516   4.028   0.459   7.738 -0.3263  0.0667  0.0988
 1089YOPC   NC312517  12.890   3.032   5.495  0.0947  0.1676  0.0605
 1089YOPC   PO412518  12.604   2.792   5.668  0.3299  0.1330  0.0182
 1089YOPC   GL112519  12.736   2.710   6.060  0.2638  0.1673 -0.0672
 1089YOPC   GL212520  12.621   2.459   6.294 -0.1447 -0.1735 -0.1292
 1089YOPC   C1A12521  12.730   2.883   6.495 -0.0176  0.0581  0.0033
 1089YOPC   D2A12522  12.828   2.732   6.938 -0.3837 -0.2250  0.2872
 1089YOPC   C3A12523  13.123   2.880   7.134 -0.1815 -0.4206 -0.2080
 1089YOPC   C4A12524  13.115   3.094   7.421  0.2826  0.0060  0.1011
 1089YOPC   C1B12525  12.613   2.389   6.616 -0.0683 -0.2522 -0.0864
 1089YOPC   C2B12526  12.819   2.227   6.980  0.0842 -0.0593 -0.0571
 1089YOPC   D3B12527  12.787   2.451   7.342 -0.0549  0.0375  0.1954
 1089YOPC   C4B12528  13.026   2.698   7.700  0.0711  0.1791  0.0695
 1090YOPC   NC312529   5.593  10.413   6.154 -0.1098  0.2076 -0.0806
 1090YOPC   PO412530   6.007  10.303   6.236  0.1936  0.0038  0.3454
 1090YOPC   GL112531   6.026  10.501   6.635 -0.0228 -0.1816 -0.0651
 1090YOPC   GL212532   5.728  10.646   6.688  0.1554 -0.2043  0.1201
 1090YOPC   C1A12533   6.159  10.376   7.042  0.0222  0.2374 -0.0055
 1090YOPC   D2A12534   6.174  10.420   7.385 -0.0426 -0.2294  0.1396
 1090YOPC   C3A12535   6.446  10.360   7.714  0.3104  0.4380  0.2298
 1090YOPC   C4A12536   6.841  10.562   7.826 -0.0878 -0.0897 -0.3248
 1090YOPC   C1B12537   5.970  10.869   7.025  0.0497 -0.2568  0.0054
 1090YOPC   C2B12538   5.919  10.906   7.405 -0.1951  0.2485 -0.5189
 1090YOPC   D3B12539   6.120  10.704   7.811 -0.2234  0.1582 -0.0154
 1090YOPC   C4B12540   6.436  10.563   8.172  0.2952  0.2106  0.1308
 1091YOPC   NC312541  11.911   4.995   6.077 -0.3188 -0.0443 -0.0060
 1091YOPC   PO412542  11.824   5.234   6.457  0.0024  0.1690 -0.3378
 1091YOPC   GL112543  12.094   5.324   6.793  0.2323 -0.1484  0.2533
 1091YOPC   GL212544  12.065   5.559   6.950  0.0441 -0.2328  0.2289
 1091YOPC   C1A12545  12.332   5.115   7.009  0.0620  0.0897  0.0084
 1091YOPC   D2A12546  12.678   5.025   7.292  0.1709  0.3843 -0.0732
 1091YOPC   C3A12547  12.751   4.665   7.529  0.0707  0.1859 -0.1612
 1091YOPC   C4A12548  12.899   4.277   7.401  0.1697 -0.1073  0.0679
 1091YOPC   C1B12549  12.130   5.811   7.332  0.0049 -0.1205 -0.0844
 1091YOPC   C2B12550  11.988   5.971   7.796  0.1315  0.3181 -0.0494
 1091YOPC   D3B12551  11.942   5.693   8.166  0.1164 -0.2561 -0.0138
 1091YOPC   C4B12552  11.582   5.521   8.393  0.0926  0.0117 -0.3081
 1092YOPC   NC312553  16.493   9.649   5.946 -0.1434 -0.1125 -0.1358
 1092YOPC   PO412554  16.756   9.899   6.274 -0.0508  0.3039  0.0241
 1092YOPC   GL112555  16.560   9.920   6.676  0.2314 -0.0873  0.1535
 1092YOPC   GL212556  16.261  10.056   6.807  0.2182 -0.0312  0.1840
 1092YOPC   C1A12557  16.726   9.849   7.096 -0.1936 -0.3101 -0.3793
 1092YOPC   D2A12558  16.612   9.622   7.412 -0.2405 -0.0108 -0.3189
 1092YOPC   C3A12559  16.766   9.551   7.730 -0.1243  0.4315  0.0345
 1092YOPC   C4A12560  16.692   9.321   8.013  0.1948  0.1570 -0.1261
 1092YOPC   C1B12561  16.234   9.977   7.282 -0.0442  0.1401  0.0658
 1092YOPC   C2B12562  16.212   9.923   7.665  0.1806 -0.4600 -0.3462
 1092YOPC   D3B12563  16.411   9.819   8.044  0.1758  0.0475 -0.2008
 1092YOPC   C4B12564  16.487   9.660   8.446  0.2599 -0.2842 -0.2200
 1093YOPC   NC312565   8.260   0.605   5.847 -0.1111 -0.1664  0.2647
 1093YOPC   PO412566   8.626   0.962   5.961  0.0240 -0.1456 -0.0671
 1093YOPC   GL112567   8.762   0.931   6.437  0.1759  0.2537  0.0069
 1093YOPC   GL212568   8.567   1.093   6.420 -0.1402  0.1981 -0.0909
 1093YOPC   C1A12569   8.774   0.774   6.890  0.2952 -0.2525  0.0783
 1093YOPC   D2A12570   8.834   0.554   7.261  0.0047  0.1462 -0.0778
 1093YOPC   C3A12571   8.959   0.177   7.345 -0.1201 -0.1721  0.0458
 1093YOPC   C4A12572   9.063  -0.189   7.544 -0.1957 -0.2006  0.1717
 1093YOPC   C1B12573   8.547   1.218   6.826 -0.3124  0.0456 -0.0082
 1093YOPC   C2B12574   8.405   1.186   7.297 -0.0114  0.2333 -0.0370
 1093YOPC   D3B12575   8.471   0.801   7.598  0.1305 -0.1940  0.0107
 1093YOPC   C4B12576   8.507   0.513   7.957 -0.2679  0.1483 -0.3063
 1094YOPC   NC312577   3.073  17.959   6.556  0.2225  0.0906  0.3244
 1094YOPC   PO412578   2.779  18.155   6.773  0.0860 -0.2357 -0.2216
 1094YOPC   GL112579   2.968  17.898   7.085  0.0218  0.0483  0.0008
 1094YOPC   GL212580   3.227  17.693   7.018 -0.0525 -0.0217 -0.0189
 1094YOPC   C1A12581   3.052  17.973   7.461 -0.0819 -0.0203 -0.0860
 1094YOPC   D2A12582   3.023  17.938   7.920  0.1038  0.2103  0.4346
 1094YOPC   C3A12583   3.365  17.817   8.237  0.4612  0.0112  0.4361
 1094YOPC   C4A12584   3.647  17.633   8.426  0.1313 -0.1843 -0.1482
 1094YOPC   C1B12585   3.511  17.730   7.278  0.1093 -0.2840 -0.1100
 1094YOPC   C2B12586   3.565  18.017   7.582 -0.0116  0.3799  0.2514
 1094YOPC   D3B12587   3.564  18.218   7.995 -0.2644  0.1951  0.2002
 1094YOPC   C4B12588   3.810  18.529   8.100  0.1666  0.0349 -0.0498
 1095YOPC   NC312589   6.693   8.176   5.782  0.0403  0.0327  0.3783
 1095YOPC   PO412590   6.488   8.626   5.927  0.1062  0.0551 -0.1975
 1095YOPC   GL112591   6.466   8.274   6.242  0.2677  0.2892 -0.0412
 1095YOPC   GL212592   6.257   8.363   6.477 -0.2457 -0.0747 -0.4798
 1095YOPC   C1A12593   6.638   8.003   6.466  0.2399 -0.0878  0.0546
 1095YOPC   D2A12594   6.823   7.678   6.780 -0.1193  0.1903 -0.1047
 1095YOPC   C3A12595   6.992   7.615   7.179  0.2732 -0.2212  0.0212
 1095YOPC   C4A12596   7.099   7.593   7.654  0.3635 -0.2275 -0.1813
 1095YOPC   C1B12597   6.293   8.107   6.804 -0.1058 -0.0103  0.1263
 1095YOPC   C2B12598   6.484   7.902   7.116 -0.2230 -0.0244 -0.1889
 1095YOPC   D3B12599   6.613   7.742   7.451  0.0901  0.0912 -0.0758
 1095YOPC   C4B12600   6.671   7.638   7.878 -0.1714 -0.3136 -0.1817
 1096YOPC   NC312601  12.877  11.673   6.290  0.0155  0.0408 -0.2806
 1096YOPC   PO412602  13.091  11.965   6.219 -0.0159 -0.0295 -0.0583
 1096YOPC   GL112603  13.123  11.958   6.653  0.0988 -0.1175 -0.0487
 1096YOPC   GL212604  12.786  11.960   6.693 -0.2678 -0.2160  0.1148
 1096YOPC   C1A12605  13.080  11.788   7.112  0.1940  0.2810 -0.0396
 1096YOPC   D2A12606  13.029  11.992   7.528 -0.2124 -0.0004  0.3056
 1096YOPC   C3A12607  12.887  11.765   7.890  0.2393 -0.0487 -0.1182
 1096YOPC   C4A12608  13.131  11.331   8.134 -0.2477 -0.0587  0.0321
 1096YOPC   C1B12609  12.606  12.045   7.072 -0.1235 -0.0413  0.0708
 1096YOPC   C2B12610  12.503  11.887   7.489 -0.1721  0.0508  0.3309
 1096YOPC   D3B12611  12.526  12.144   7.816 -0.2445 -0.3558 -0.4359
 1096YOPC   C4B12612  12.767  12.055   8.311 -0.0361 -0.0121 -0.0915
 1097YOPC   NC312613   0.766   7.603   6.414 -0.0112 -0.0174  0.0103
 1097YOPC   PO412614   0.350   7.532   6.516 -0.1653 -0.1040 -0.2806
 1097YOPC   GL112615   0.301   7.379   6.850 -0.1797  0.1250 -0.1981
 1097YOPC   GL212616   0.593   7.493   7.004  0.0767 -0.1031  0.0656
 1097YOPC   C1A12617   0.162   7.495   7.281 -0.0714 -0.0832 -0.0192
 1097YOPC   D2A12618   0.057   7.299   7.675  0.0468  0.2835  0.0334
 1097YOPC   C3A12619   0.268   7.067   7.888 -0.0619  0.0898  0.2187
 1097YOPC   C4A12620   0.333   6.925   8.266  0.3954 -0.0909 -0.1329
 1097YOPC   C1B12621   0.844   7.569   7.302 -0.0957 -0.0501  0.3274
 1097YOPC   C2B12622   0.942   7.674   7.573 -0.0768 -0.0021  0.2429
 1097YOPC   D3B12623   0.818   8.035   7.727 -0.3152 -0.3035  0.3173
 1097YOPC   C4B12624   0.991   8.235   8.018  0.2584 -0.2359  0.3482
 1098YOPC   NC312625  16.209  15.169   5.657  0.0478  0.1202 -0.0362
 1098YOPC   PO412626  16.335  15.481   5.958 -0.0096  0.0048 -0.4540
 1098YOPC   GL112627  16.219  15.534   6.385  0.1068  0.2073  0.1166
 1098YOPC   GL212628  16.323  15.165   6.417  0.0580  0.0237 -0.0912
 1098YOPC   C1A12629  16.036  15.353   6.787 -0.0212 -0.1990  0.3430
 1098YOPC   D2A12630  15.978  15.441   7.169  0.2079 -0.0728 -0.2015
 1098YOPC   C3A12631  16.058  15.166   7.469 -0.1079 -0.3853  0.1442
 1098YOPC   C4A12632  15.913  14.912   7.798 -0.0416  0.0932 -0.0068
 1098YOPC   C1B12633  16.231  14.928   6.817 -0.0468  0.0281  0.0822
 1098YOPC   C2B12634  16.285  14.830   7.195  0.1356 -0.0282  0.0582
 1098YOPC   D3B12635  16.067  14.548   7.459  0.2629 -0.1282 -0.1483
 1098YOPC   C4B12636  16.114  14.342   7.840 -0.0972  0.0560  0.2282
 1099YOPC   NC312637  15.841  10.953   5.543  0.0568  0.4725  0.4033
 1099YOPC   PO412638  15.874  10.984   6.048 -0.0280 -0.5450  0.0807
 1099YOPC   GL112639  16.017  10.989   6.469 -0.0549  0.1590  0.0816
 1099YOPC   GL212640  16.155  11.253   6.403  0.0840 -0.0070  0.1999
 1099YOPC   C1A12641  16.105  11.040   6.846 -0.1482  0.0127 -0.0126
 1099YOPC   D2A12642  16.456  10.957   7.133 -0.2014 -0.0562  0.0859
 1099YOPC   C3A12643  16.425  10.751   7.496 -0.0216  0.0040  0.0573
 1099YOPC   C4A12644  16.292  10.880   7.934  0.0817 -0.0991  0.1962
 1099YOPC   C1B12645  15.882  11.484   6.673  0.1621  0.1059 -0.1807
 1099YOPC   C2B12646  15.759  11.269   7.157 -0.2281  0.1849 -0.0289
 1099YOPC   D3B12647  16.121  11.168   7.507  0.2508  0.2044 -0.2174
 1099YOPC   C4B12648  16.326  11.432   7.850 -0.1552 -0.1311 -0.1726
 1100YOPC   NC312649   2.691   7.442   6.118  0.2446 -0.1770  0.1328
 1100YOPC   PO412650   2.500   7.876   6.405 -0.4004 -0.2042  0.2379
 1100YOPC   GL112651   2.418   7.860   6.852 -0.0629 -0.2937  0.1691
 1100YOPC   GL212652   2.312   7.540   6.851 -0.0007 -0.1338 -0.1698
 1100YOPC   C1A12653   2.577   7.998   7.218  0.2705  0.3141  0.3792
 1100YOPC   D2A12654   2.672   7.832   7.528  0.0044 -0.0263  0.1551
 1100YOPC   C3A12655   2.668   7.934   7.924  0.0307  0.1700 -0.0186
 1100YOPC   C4A12656   2.900   7.921   8.266 -0.1907  0.0431  0.1767
 1100YOPC   C1B12657   2.331   7.558   7.275  0.0095  0.1216  0.0199
 1100YOPC   C2B12658   2.248   7.599   7.703  0.3600 -0.1304  0.2078
 1100YOPC   D3B12659   2.203   7.786   8.066  0.2517  0.0966  0.1454
 1100YOPC   C4B12660   2.128   7.640   8.439  0.0961  0.1234 -0.3606
 1101YOPC   NC312661   0.778  15.192   5.663  0.0259 -0.5061 -0.1767
 1101YOPC   PO412662   0.904  15.314   6.051 -0.0598  0.3527  0.4235
 1101YOPC   GL112663   0.743  15.032   6.412 -0.0655  0.1898 -0.0709
 1101YOPC   GL212664   0.549  14.681   6.405  0.1629  0.3135  0.2438
 1101YOPC   C1A12665   0.683  14.952   6.850  0.0450 -0.1774 -0.1589
 1101YOPC   D2A12666   0.392  14.809   7.082 -0.0094 -0.1924  0.3467
 1101YOPC   C3A12667   0.372  14.929   7.456 -0.5043 -0.1077  0.1712
 1101YOPC   C4A12668   0.636  14.892   7.819  0.0970  0.5805 -0.1785
 1101YOPC   C1B12669   0.450  14.427   6.755 -0.0858  0.0157 -0.3590
 1101YOPC   C2B12670   0.502  14.317   7.115 -0.0237 -0.1743  0.2634
 1101YOPC   D3B12671   0.238  14.308   7.285  0.0326  0.0958  0.2034
 1101YOPC   C4B12672   0.055  14.535   7.553  0.1573 -0.0351  0.0429
 1102YOPC   NC312673  16.899  13.182   6.064 -0.2181 -0.1282 -0.0303
 1102YOPC   PO412674  16.604  13.593   6.160  0.0531  0.1034 -0.1578
 1102YOPC   GL112675  16.708  13.310   6.461 -0.2425 -0.1128 -0.1295
 1102YOPC   GL212676  16.973  13.380   6.605 -0.0641  0.1790  0.0004
 1102YOPC   C1A12677  16.608  12.968   6.780  0.0692  0.1316 -0.1574
 1102YOPC   D2A12678  16.357  12.686   6.998  0.3483  0.1651 -0.1407
 1102YOPC   C3A12679  16.229  12.604   7.425  0.1857  0.2056 -0.1618
 1102YOPC   C4A12680  16.170  12.588   7.914 -0.0994  0.0605  0.1239
 1102YOPC   C1B12681  16.831  13.309   7.033  0.1500 -0.1027  0.0552
 1102YOPC   C2B12682  16.946  13.325   7.431  0.1352  0.1209 -0.0741
 1102YOPC   D3B12683  17.130  13.605   7.478  0.3946  0.2047 -0.0905
 1102YOPC   C4B12684  17.404  13.836   7.807  0.0736  0.1992 -0.1536
 1103YOPC   NC312685  15.994   7.069   6.510  0.1504  0.1298 -0.1713
 1103YOPC   PO412686  16.384   6.818   6.770 -0.0622  0.2867 -0.0455
 1103YOPC   GL112687  16.516   6.934   7.167 -0.2131  0.1026 -0.1206
 1103YOPC   GL212688  16.353   7.225   7.308 -0.1706  0.2732  0.4437
 1103YOPC   C1A12689  16.754   6.955   7.569 -0.0411 -0.0657  0.0967
 1103YOPC   D2A12690  16.857   6.863   8.025  0.1476  0.0286 -0.3424
 1103YOPC   C3A12691  16.744   6.471   8.301 -0.1874 -0.1018  0.0271
 1103YOPC   C4A12692  16.686   6.076   8.506  0.1093  0.3418  0.0682
 1103YOPC   C1B12693  16.230   7.030   7.681  0.0985  0.1072 -0.0878
 1103YOPC   C2B12694  16.450   7.184   8.119 -0.0662 -0.2222  0.0737
 1103YOPC   D3B12695  16.240   7.162   8.612 -0.1931  0.4078  0.0624
 1103YOPC   C4B12696  15.896   7.052   8.791  0.0099 -0.2657  0.1171
 1104YOPC   NC312697  12.311   0.744   5.862 -0.1833  0.0325  0.2923
 1104YOPC   PO412698  12.699   0.928   5.858  0.0623  0.1189  0.0485
 1104YOPC   GL112699  12.909   1.106   6.251 -0.1778 -0.2351 -0.0307
 1104YOPC   GL212700  13.306   1.065   6.176 -0.2295  0.1960  0.5528
 1104YOPC   C1A12701  12.900   0.959   6.728  0.1706 -0.1230 -0.0113
 1104YOPC   D2A12702  12.626   1.321   7.020  0.1006  0.5267 -0.0564
 1104YOPC   C3A12703  12.442   1.261   7.314 -0.2718 -0.0492  0.2034
 1104YOPC   C4A12704  12.049   1.234   7.580 -0.1496  0.4923 -0.1505
 1104YOPC   C1B12705  13.419   0.903   6.587  0.1210  0.1143 -0.0348
 1104YOPC   C2B12706  13.424   0.739   7.003  0.1179  0.3342  0.0888
 1104YOPC   D3B12707  13.137   0.841   7.251 -0.4724 -0.3388  0.2946
 1104YOPC   C4B12708  12.785   0.806   7.396  0.0089  0.0926  0.0091
 1105YOPC   NC312709  11.889   0.267   5.660  0.0652  0.3249  0.1978
 1105YOPC   PO412710  11.722  -0.050   5.578 -0.1842 -0.0319  0.0136
 1105YOPC   GL112711  11.513   0.037   5.974 -0.3237  0.0034  0.3708
 1105YOPC   GL212712  11.184  -0.183   6.004  0.0823  0.1621 -0.0712
 1105YOPC   C1A12713  11.658   0.174   6.376  0.0910 -0.1044 -0.0925
 1105YOPC   D2A12714  11.684   0.287   6.817  0.0746 -0.0617 -0.0776
 1105YOPC   C3A12715  11.706   0.603   7.152 -0.1320  0.1052  0.1798
 1105YOPC   C4A12716  11.568   0.776   7.455 -0.0523 -0.2539  0.3031
 1105YOPC   C1B12717  11.368  -0.296   6.377 -0.0529  0.1054 -0.2884
 1105YOPC   C2B12718  11.681  -0.658   6.594 -0.0099 -0.0701  0.3075
 1105YOPC   D3B12719  11.869  -0.723   7.054  0.0707  0.0201 -0.3382
 1105YOPC   C4B12720  12.270  -0.829   7.214 -0.0211 -0.0815  0.0653
 1106YOPC   NC312721   4.693   2.017   5.901  0.3847 -0.0794  0.2319
 1106YOPC   PO412722   4.651   2.136   6.300  0.1327 -0.0818 -0.0245
 1106YOPC   GL112723   4.825   2.188   6.614 -0.1373  0.3147  0.1505
 1106YOPC   GL212724   4.594   2.298   6.779  0.1651 -0.2500 -0.0738
 1106YOPC   C1A12725   4.934   2.051   7.021  0.0649 -0.1316 -0.0155
 1106YOPC   D2A12726   4.849   1.959   7.429  0.1258 -0.0945  0.3684
 1106YOPC   C3A12727   4.615   2.275   7.658 -0.2165  0.0311 -0.0865
 1106YOPC   C4A12728   4.384   2.601   7.604  0.0656  0.0667  0.1157
 1106YOPC   C1B12729   4.328   2.224   7.155 -0.0225 -0.1163 -0.0533
 1106YOPC   C2B12730   3.963   2.420   7.413 -0.1292 -0.2167  0.0072
 1106YOPC   D3B12731   3.968   2.593   7.919 -0.0928  0.1918  0.1269
 1106YOPC   C4B12732   3.853   2.824   8.298 -0.2150 -0.2223  0.0113
 1107YOPC   NC312733   4.264  14.085   6.003  0.1687  0.1328 -0.0503
 1107YOPC   PO412734   4.143  13.721   6.156 -0.0458  0.0149 -0.0482
 1107YOPC   GL112735   3.954  13.449   6.362 -0.1694  0.2091  0.0883
 1107YOPC   GL212736   4.093  13.146   6.272  0.1674  0.1044  0.3641
 1107YOPC   C1A12737   3.688  13.188   6.603 -0.0539  0.1503 -0.1153
 1107YOPC   D2A12738   3.325  13.076   6.863 -0.0090 -0.1005  0.2823
 1107YOPC   C3A12739   3.191  13.086   7.275  0.0092 -0.2836 -0.1127
 1107YOPC   C4A12740   3.358  12.725   7.521 -0.0000 -0.3868 -0.1023
 1107YOPC   C1B12741   4.224  13.170   6.720  0.2281 -0.1404  0.1765
 1107YOPC   C2B12742   4.155  13.079   7.209  0.1295  0.2194  0.0305
 1107YOPC   D3B12743   4.430  12.986   7.601 -0.0220 -0.1324 -0.0663
 1107YOPC   C4B12744   4.554  12.936   7.976 -0.0423 -0.3328 -0.0226
 1108YOPC   NC312745   6.418   6.158   5.967  0.0356 -0.0219  0.1580
 1108YOPC   PO412746   6.060   6.411   6.016  0.1830  0.0333 -0.0037
 1108YOPC   GL112747   6.266   6.445   6.352  0.1337  0.2727  0.3909
 1108YOPC   GL212748   6.386   6.769   6.493 -0.1833  0.4262 -0.3069
 1108YOPC   C1A12749   6.349   6.350   6.882  0.2725 -0.1530  0.2526
 1108YOPC   D2A12750   6.272   6.063   7.235 -0.1264  0.2818 -0.2553
 1108YOPC   C3A12751   5.931   6.045   7.482  0.1642  0.1031 -0.2555
 1108YOPC   C4A12752   5.525   6.059   7.684 -0.0913  0.1968 -0.2943
 1108YOPC   C1B12753   6.354   6.891   6.901 -0.0410  0.1154 -0.0516
 1108YOPC   C2B12754   6.265   7.030   7.333  0.1196 -0.0020 -0.2431
 1108YOPC   D3B12755   6.374   6.891   7.749  0.1546 -0.0503 -0.0906
 1108YOPC   C4B12756   6.501   6.529   8.135  0.0002  0.2290 -0.1272
 1109YOPC   NC312757  17.350   3.636   6.244 -0.0606 -0.1601  0.2228
 1109YOPC   PO412758  17.242   4.093   6.328 -0.2425 -0.3203  0.3311
 1109YOPC   GL112759  17.237   4.254   6.795  0.2133  0.1758 -0.0209
 1109YOPC   GL212760  17.586   4.280   6.983 -0.2764 -0.3456  0.1772
 1109YOPC   C1A12761  16.940   4.174   7.099 -0.0408 -0.2627 -0.0426
 1109YOPC   D2A12762  16.774   4.055   7.534 -0.1422 -0.1043  0.0379
 1109YOPC   C3A12763  16.436   4.073   7.881 -0.0487 -0.0619  0.2704
 1109YOPC   C4A12764  16.265   4.154   8.295 -0.0687 -0.0190 -0.0590
 1109YOPC   C1B12765  17.370   4.247   7.373  0.1419 -0.3762  0.3826
 1109YOPC   C2B12766  17.133   4.399   7.635  0.0098 -0.1218  0.0108
 1109YOPC   D3B12767  16.944   4.193   7.977  0.0771  0.1139 -0.2718
 1109YOPC   C4B12768  16.765   4.234   8.243  0.1460  0.1941  0.1173
 1110YOPC   NC312769   2.544   1.193   6.471 -0.2001 -0.1289  0.1646
 1110YOPC   PO412770   2.209   0.970   6.306 -0.6738  0.0628 -0.2708
 1110YOPC   GL112771   2.137   1.034   6.751 -0.2436  0.3336  0.1995
 1110YOPC   GL212772   2.015   0.759   6.876  0.5068 -0.1460  0.0600
 1110YOPC   C1A12773   2.323   1.000   7.117 -0.0412 -0.0940 -0.4288
 1110YOPC   D2A12774   2.071   0.858   7.371 -0.1786 -0.0649 -0.0075
 1110YOPC   C3A12775   2.027   0.468   7.645  0.1253 -0.3200  0.0006
 1110YOPC   C4A12776   1.788   0.319   7.859  0.0911 -0.0987  0.3982
 1110YOPC   C1B12777   1.798   0.507   7.198 -0.2748  0.1255  0.3063
 1110YOPC   C2B12778   1.461   0.364   7.487  0.0829  0.1115 -0.1938
 1110YOPC   D3B12779   1.450  -0.032   7.693 -0.2194  0.1274 -0.0837
 1110YOPC   C4B12780   1.683  -0.426   7.505  0.1644 -0.1222  0.2246
 1111YOPC   NC312781   0.567  12.188   5.721  0.0449 -0.1955 -0.2080
 1111YOPC   PO412782   0.810  12.572   5.660  0.1275 -0.1096  0.0567
 1111YOPC   GL112783   0.481  12.673   5.989 -0.0994 -0.3003 -0.1044
 1111YOPC   GL212784   0.555  12.983   6.118 -0.2329  0.1978 -0.1176
 1111YOPC   C1A12785   0.217  12.561   6.329  0.4993 -0.1143 -0.1560
 1111YOPC   D2A12786  -0.121  12.340   6.595 -0.0969 -0.0328 -0.0975
 1111YOPC   C3A12787  -0.025  12.441   7.036 -0.2759 -0.2363 -0.2133
 1111YOPC   C4A12788   0.119  12.673   7.350  0.2801 -0.3456  0.4357
 1111YOPC   C1B12789   0.185  13.086   6.339 -0.0050  0.0711 -0.1307
 1111YOPC   C2B12790   0.055  12.887   6.714 -0.1194 -0.0362  0.3023
 1111YOPC   D3B12791  -0.105  13.123   7.135  0.2305  0.0878 -0.1110
 1111YOPC   C4B12792  -0.003  13.199   7.527 -0.2007  0.0624  0.3687
 1112YOPC   NC312793  14.757  10.692   6.165  0.0118 -0.2455  0.2820
 1112YOPC   PO412794  15.134  10.832   6.386  0.4195 -0.0081 -0.2055
 1112YOPC   GL112795  15.207  10.966   6.823  0.3801  0.2234 -0.0028
 1112YOPC   GL212796  15.605  10.948   6.805  0.5570  0.1227 -0.2114
 1112YOPC   C1A12797  15.358  11.028   7.282  0.0089 -0.2662  0.2283
 1112YOPC   D2A12798  15.268  10.986   7.716  0.1261  0.0097 -0.1287
 1112YOPC   C3A12799  15.395  11.158   8.090  0.1458 -0.2377 -0.2768
 1112YOPC   C4A12800  15.316  10.830   8.467 -0.0708  0.1792 -0.2215
 1112YOPC   C1B12801  15.779  10.765   7.224 -0.2734 -0.0648 -0.1192
 1112YOPC   C2B12802  15.757  10.894   7.540 -0.0006  0.1075  0.4034
 1112YOPC   D3B12803  15.674  10.725   7.848  0.0341  0.1821 -0.2953
 1112YOPC   C4B12804  15.850  10.726   8.284  0.1233 -0.1527  0.0859
 1113YOPC   NC312805   9.715  11.108   5.592 -0.1802  0.2819  0.2709
 1113YOPC   PO412806   9.789  11.230   6.014  0.0484  0.0385  0.0317
 1113YOPC   GL112807   9.904  11.270   6.483  0.0199  0.0163 -0.0052
 1113YOPC   GL212808  10.232  11.246   6.692  0.2081 -0.0356  0.0697
 1113YOPC   C1A12809   9.832  11.114   6.928  0.1710  0.1454  0.0132
 1113YOPC   D2A12810   9.884  11.204   7.356 -0.2102 -0.0337  0.0969
 1113YOPC   C3A12811  10.172  11.403   7.603 -0.1092 -0.5989 -0.1425
 1113YOPC   C4A12812  10.466  11.280   7.855 -0.0453  0.2300 -0.1416
 1113YOPC   C1B12813  10.291  11.222   7.127 -0.0053  0.0525  0.1667
 1113YOPC   C2B12814  10.378  10.956   7.440 -0.3151 -0.0753  0.0051
 1113YOPC   D3B12815  10.198  10.872   7.822  0.3852 -0.1350 -0.0677
 1113YOPC   C4B12816   9.988  11.146   8.064  0.0086  0.0724  0.0010
 1114YOPC   NC312817   2.010   9.672   6.502 -0.2253  0.1013  0.0374
 1114YOPC   PO412818   1.544   9.787   6.486  0.2915  0.2215 -0.0945
 1114YOPC   GL112819   1.374   9.947   6.840  0.0735 -0.1465 -0.2997
 1114YOPC   GL212820   1.298  10.247   6.796 -0.2587  0.0028  0.0430
 1114YOPC   C1A12821   0.953   9.974   6.902  0.0032  0.3331  0.2795
 1114YOPC   D2A12822   0.592  10.088   6.982 -0.0874  0.0397 -0.0992
 1114YOPC   C3A12823   0.479   9.789   7.257 -0.2674 -0.1613  0.2549
 1114YOPC   C4A12824   0.614   9.274   7.361  0.3346 -0.1984 -0.1907
 1114YOPC   C1B12825   1.256  10.381   7.125 -0.1708 -0.1119  0.1426
 1114YOPC   C2B12826   1.185  10.587   7.562  0.2447 -0.0011 -0.0738
 1114YOPC   D3B12827   1.003  10.561   7.907  0.0880  0.0959  0.0503
 1114YOPC   C4B12828   1.012  10.456   8.377 -0.2451  0.0509  0.2447
 1115YOPC   NC312829   8.437  13.107   6.107 -0.1819  0.0764  0.0084
 1115YOPC   PO412830   8.716  13.393   5.999  0.0455  0.1751  0.0069
 1115YOPC   GL112831   8.884  13.283   6.323  0.4108 -0.3195  0.1127
 1115YOPC   GL212832   8.772  13.003   6.427 -0.0006 -0.0724 -0.1295
 1115YOPC   C1A12833   8.757  13.349   6.786  0.2003  0.1236  0.0917
 1115YOPC   D2A12834   8.539  13.458   7.165  0.1267 -0.1932  0.0931
 1115YOPC   C3A12835   8.731  13.328   7.538 -0.2182 -0.1678 -0.1029
 1115YOPC   C4A12836   8.934  13.141   7.937  0.1612  0.2251  0.0004
 1115YOPC   C1B12837   8.451  12.870   6.683  0.3462  0.1775  0.0132
 1115YOPC   C2B12838   8.557  12.549   6.946 -0.0484  0.3635 -0.2187
 1115YOPC   D3B12839   8.529  12.520   7.397  0.1274 -0.3830 -0.2706
 1115YOPC   C4B12840   8.320  12.370   7.870  0.1409  0.3718  0.0580
 1116YOPC   NC312841  10.651   0.212   5.539  0.0637 -0.0128  0.1425
 1116YOPC   PO412842  10.595  -0.110   5.522  0.0202  0.0990 -0.0338
 1116YOPC   GL112843  10.692  -0.157   5.911 -0.2966 -0.1195 -0.1765
 1116YOPC   GL212844  10.430  -0.032   6.068 -0.0890  0.1952 -0.4677
 1116YOPC   C1A12845  10.860  -0.124   6.392 -0.1590 -0.2781 -0.1940
 1116YOPC   D2A12846  10.794  -0.017   6.834 -0.2904  0.2353 -0.1046
 1116YOPC   C3A12847  10.532  -0.118   7.295 -0.3618 -0.1086 -0.0643
 1116YOPC   C4A12848  10.398  -0.490   7.611 -0.0110  0.2366  0.1208
 1116YOPC   C1B12849  10.220  -0.140   6.423 -0.4247  0.0169 -0.1364
 1116YOPC   C2B12850  10.020  -0.450   6.645 -0.2741  0.1117 -0.0501
 1116YOPC   D3B12851  10.052  -0.366   7.165  0.1887  0.1624  0.0092
 1116YOPC   C4B12852  10.098  -0.127   7.658  0.0968  0.0958  0.1442
 1117YOPC   NC312853   3.218   9.800   6.128  0.1796 -0.2543 -0.1418
 1117YOPC   PO412854   3.537   9.823   6.392  0.0586  0.0071 -0.0886
 1117YOPC   GL112855   3.499   9.520   6.679  0.3761  0.1125  0.0874
 1117YOPC   GL212856   3.763   9.633   6.769 -0.0310  0.2021  0.1585
 1117YOPC   C1A12857   3.364   9.517   7.123 -0.0689  0.1340 -0.1737
 1117YOPC   D2A12858   3.131   9.824   7.292 -0.1265 -0.1290  0.3486
 1117YOPC   C3A12859   3.010   9.744   7.589 -0.0190 -0.1718 -0.3938
 1117YOPC   C4A12860   2.916   9.756   8.074  0.1103 -0.1996 -0.0451
 1117YOPC   C1B12861   3.951   9.597   7.054  0.1243 -0.0892 -0.3997
 1117YOPC   C2B12862   3.990   9.462   7.487  0.0072  0.0195 -0.1945
 1117YOPC   D3B12863   4.054   9.143   7.763  0.2040  0.2301 -0.0955
 1117YOPC   C4B12864   4.050   8.716   8.016 -0.0761 -0.0061  0.2944
 1118YOPC   NC312865   6.100  14.373   6.018 -0.1603  0.0418 -0.1060
 1118YOPC   PO412866   6.496  14.172   5.872  0.5560  0.2145  0.0834
 1118YOPC   GL112867   6.774  14.112   6.214  0.0121  0.0157 -0.3794
 1118YOPC   GL212868   6.871  13.808   6.373  0.1083 -0.3622  0.0150
 1118YOPC   C1A12869   6.740  14.338   6.636 -0.2155  0.1007  0.1547
 1118YOPC   D2A12870   6.633  14.329   7.027  0.2999 -0.0715  0.2205
 1118YOPC   C3A12871   6.767  14.502   7.418 -0.1599 -0.2237 -0.1583
 1118YOPC   C4A12872   7.074  14.538   7.733 -0.1668 -0.0898  0.0931
 1118YOPC   C1B12873   6.963  13.623   6.822 -0.0280 -0.2765 -0.0787
 1118YOPC   C2B12874   7.047  13.580   7.295 -0.3224  0.0254 -0.0924
 1118YOPC   D3B12875   7.074  13.126   7.459  0.3241 -0.2679 -0.3594
 1118YOPC   C4B12876   7.188  12.771   7.586  0.1674  0.0468  0.1042
 1119YOPC   NC312877   0.149  11.292   5.922  0.0349 -0.1257 -0.0306
 1119YOPC   PO412878  -0.241  11.193   6.224 -0.3476  0.0482 -0.1930
 1119YOPC   GL112879  -0.553  11.437   6.459 -0.5113  0.0721  0.1851
 1119YOPC   GL212880  -0.807  11.518   6.479 -0.1042  0.0780  0.1157
 1119YOPC   C1A12881  -0.524  11.497   6.879 -0.0473  0.2844  0.0495
 1119YOPC   D2A12882  -0.676  11.796   7.099 -0.0574 -0.2730 -0.2288
 1119YOPC   C3A12883  -0.492  11.736   7.475  0.1814  0.2565  0.1705
 1119YOPC   C4A12884  -0.549  11.785   7.893 -0.1498 -0.1097 -0.0026
 1119YOPC   C1B12885  -1.073  11.573   6.848  0.0118  0.0701 -0.4755
 1119YOPC   C2B12886  -1.098  11.693   7.395  0.0807  0.0594  0.1004
 1119YOPC   D3B12887  -0.857  11.463   7.664 -0.0195 -0.3794  0.0972
 1119YOPC   C4B12888  -0.694  11.153   7.980 -0.0612 -0.1433  0.2354
 1120YOPC   NC312889   4.429   9.324   6.099 -0.5878 -0.1054 -0.1756
 1120YOPC   PO412890   4.418   9.848   6.069 -0.0336  0.0037 -0.3226
 1120YOPC   GL112891   4.337   9.946   6.402  0.0841  0.0234  0.1436
 1120YOPC   GL212892   4.654   9.783   6.525 -0.2490  0.0819  0.0024
 1120YOPC   C1A12893   4.216   9.869   6.767  0.1350  0.1847  0.1022
 1120YOPC   D2A12894   3.902  10.076   6.973 -0.0922  0.1749  0.1570
 1120YOPC   C3A12895   3.717   9.888   7.342  0.1593  0.0064  0.0809
 1120YOPC   C4A12896   3.508   9.645   7.644 -0.0135 -0.1307  0.0961
 1120YOPC   C1B12897   4.733   9.686   6.841  0.2178  0.2500  0.1294
 1120YOPC   C2B12898   5.181   9.672   7.028 -0.0238  0.0792 -0.1341
 1120YOPC   D3B12899   5.256   9.584   7.373 -0.0975 -0.0401 -0.0782
 1120YOPC   C4B12900   5.002   9.527   7.781 -0.1450  0.0662  0.1632
 1121YOPC   NC312901  12.880  17.007   5.804  0.0731  0.3315 -0.1980
 1121YOPC   PO412902  12.893  17.439   5.838 -0.2146  0.1407 -0.1118
 1121YOPC   GL112903  12.836  17.300   6.243  0.0599 -0.0439  0.5558
 1121YOPC   GL212904  13.007  17.008   6.393 -0.0135  0.0989  0.0552
 1121YOPC   C1A12905  12.467  17.157   6.501  0.1696 -0.0336 -0.1020
 1121YOPC   D2A12906  12.101  17.386   6.322  0.1298  0.1387 -0.1390
 1121YOPC   C3A12907  12.000  17.775   6.151  0.1452 -0.3310 -0.0934
 1121YOPC   C4A12908  11.905  18.169   6.242 -0.1194  0.3682  0.0128
 1121YOPC   C1B12909  12.880  16.932   6.775  0.0286 -0.0244 -0.0350
 1121YOPC   C2B12910  12.914  17.001   7.224  0.0218  0.0600 -0.0102
 1121YOPC   D3B12911  12.591  16.813   7.526  0.1101  0.0649  0.0373
 1121YOPC   C4B12912  12.364  16.772   7.922  0.2313 -0.0099 -0.0224
 1122YOPC   NC312913   3.866   3.843   5.745 -0.1280 -0.4762  0.2198
 1122YOPC   PO412914   4.036   4.019   6.201  0.0121  0.4306  0.0878
 1122YOPC   GL112915   4.228   4.104   6.546  0.1615  0.1623  0.2466
 1122YOPC   GL212916   4.457   4.338   6.604 -0.1704 -0.1394  0.3046
 1122YOPC   C1A12917   4.122   4.299   6.990  0.1216 -0.1306  0.1327
 1122YOPC   D2A12918   4.314   4.377   7.399 -0.1416 -0.0574  0.1195
 1122YOPC   C3A12919   4.493   4.655   7.709  0.1012  0.1988 -0.0359
 1122YOPC   C4A12920   4.828   4.656   7.998  0.0683 -0.1324 -0.2273
 1122YOPC   C1B12921   4.600   4.440   6.943  0.1228  0.3188  0.0832
 1122YOPC   C2B12922   4.811   4.475   7.329 -0.3156 -0.1681  0.2993
 1122YOPC   D3B12923   4.825   4.246   7.674  0.0245 -0.0548 -0.3093
 1122YOPC   C4B12924   5.152   4.159   8.000 -0.0109 -0.0036  0.3438
 1123YOPC   NC312925  13.594  17.429   5.388  0.1774  0.2151  0.1264
 1123YOPC   PO412926  13.398  17.224   5.688 -0.2017  0.1769 -0.2064
 1123YOPC   GL112927  13.377  17.198   6.108  0.0428 -0.0464 -0.2387
 1123YOPC   GL212928  13.309  17.460   6.260 -0.0754 -0.2238  0.0304
 1123YOPC   C1A12929  13.452  16.859   6.364  0.2456 -0.1001  0.0273
 1123YOPC   D2A12930  13.379  16.749   6.784  0.2222 -0.1585 -0.1445
 1123YOPC   C3A12931  13.402  16.919   7.168 -0.0816  0.0920 -0.1147
 1123YOPC   C4A12932  13.284  16.911   7.596  0.2083 -0.0904  0.2819
 1123YOPC   C1B12933  13.326  17.258   6.755 -0.2384 -0.0090  0.0430
 1123YOPC   C2B12934  13.478  17.479   7.100  0.1359  0.0282  0.3124
 1123YOPC   D3B12935  13.379  17.414   7.559 -0.1798  0.1086 -0.0879
 1123YOPC   C4B12936  13.586  17.579   7.968  0.1265 -0.0280 -0.0068
 1124YOPC   NC312937  18.044   9.161   6.523 -0.3601 -0.0817 -0.1459
 1124YOPC   PO412938  18.397   8.995   6.431  0.0752  0.1732  0.1820
 1124YOPC   GL112939  18.398   8.968   6.856 -0.1034 -0.0395 -0.3557
 1124YOPC   GL212940  18.035   8.839   6.965 -0.0146 -0.0561  0.0642
 1124YOPC   C1A12941  18.469   8.794   7.217  0.1225 -0.1154 -0.2654
 1124YOPC   D2A12942  18.652   8.862   7.598 -0.3670  0.2058  0.2726
 1124YOPC   C3A12943  18.660   8.964   7.989  0.1932  0.3115  0.0563
 1124YOPC   C4A12944  18.680   9.031   8.365  0.0295  0.0310  0.1255
 1124YOPC   C1B12945  18.117   9.188   7.271 -0.1181  0.1576  0.0687
 1124YOPC   C2B12946  18.031   9.335   7.816  0.2373  0.0614 -0.0164
 1124YOPC   D3B12947  18.338   9.368   8.169 -0.2545  0.1608 -0.2459
 1124YOPC   C4B12948  18.313   9.224   8.617 -0.0308 -0.1565  0.2059
 1125YOPC   NC312949   7.411  11.168   5.288 -0.0944 -0.0956 -0.3100
 1125YOPC   PO412950   7.742  10.931   5.662  0.2017  0.2918  0.0533
 1125YOPC   GL112951   7.768  10.839   6.119  0.0180  0.1215  0.1730
 1125YOPC   GL212952   7.824  10.511   6.278  0.3037 -0.0939 -0.0579
 1125YOPC   C1A12953   7.759  11.281   6.303 -0.0179 -0.2510 -0.2788
 1125YOPC   D2A12954   7.344  11.496   6.376  0.0845 -0.0051 -0.1432
 1125YOPC   C3A12955   7.164  11.616   6.731 -0.1011 -0.0238 -0.1433
 1125YOPC   C4A12956   7.181  11.579   7.176 -0.2934 -0.1010  0.0892
 1125YOPC   C1B12957   7.770  10.774   6.608  0.1026 -0.1326 -0.0596
 1125YOPC   C2B12958   7.487  10.767   6.894 -0.0328  0.0968 -0.2387
 1125YOPC   D3B12959   7.724  10.797   7.216  0.2332 -0.0324  0.1654
 1125YOPC   C4B12960   7.780  10.685   7.594 -0.0461  0.0187 -0.2178
 1126YOPC   NC312961  12.922   6.218   6.729  0.2596  0.1352 -0.1164
 1126YOPC   PO412962  12.832   6.560   6.711  0.1021  0.2600 -0.1876
 1126YOPC   GL112963  12.467   6.537   6.989 -0.0779  0.3402  0.0120
 1126YOPC   GL212964  12.422   6.834   7.182 -0.0049  0.0560  0.0657
 1126YOPC   C1A12965  12.425   6.340   7.356 -0.3794  0.1689 -0.0155
 1126YOPC   D2A12966  12.297   6.413   7.743 -0.1068  0.0015  0.1459
 1126YOPC   C3A12967  12.466   6.126   7.926 -0.0552  0.1581  0.1097
 1126YOPC   C4A12968  12.433   5.910   8.370 -0.0308 -0.0784  0.4255
 1126YOPC   C1B12969  12.278   6.865   7.566 -0.1084 -0.3518  0.3210
 1126YOPC   C2B12970  12.070   6.888   7.892  0.0763  0.2073 -0.0097
 1126YOPC   D3B12971  12.153   6.684   8.224  0.2160  0.0378 -0.3898
 1126YOPC   C4B12972  12.089   6.258   8.242 -0.1473 -0.2276  0.1486
 1127YOPC   NC312973  15.331   2.804   6.016 -0.3753 -0.3043 -0.0502
 1127YOPC   PO412974  15.692   2.585   6.217  0.0123 -0.0024 -0.3360
 1127YOPC   GL112975  15.873   2.747   6.619 -0.1957 -0.1689 -0.0780
 1127YOPC   GL212976  15.832   3.088   6.615 -0.2341 -0.2224  0.2551
 1127YOPC   C1A12977  16.036   2.516   6.900 -0.2702 -0.1527 -0.0837
 1127YOPC   D2A12978  16.182   2.396   7.348 -0.2549 -0.1161  0.0822
 1127YOPC   C3A12979  16.188   1.976   7.547 -0.0110  0.2581  0.1502
 1127YOPC   C4A12980  16.200   1.818   7.879 -0.1802  0.1876 -0.1256
 1127YOPC   C1B12981  15.810   2.948   7.112 -0.0232 -0.0270  0.2026
 1127YOPC   C2B12982  15.847   2.786   7.552 -0.4011 -0.1988  0.1801
 1127YOPC   D3B12983  15.544   2.840   7.723  0.0498  0.0960 -0.0772
 1127YOPC   C4B12984  15.263   2.814   8.045 -0.2191  0.0710 -0.1033
 1128YOPC   NC312985  17.636   7.041   6.815 -0.1597  0.1929  0.2563
 1128YOPC   PO412986  17.872   7.402   6.678 -0.0485 -0.0193  0.2753
 1128YOPC   GL112987  17.940   7.362   7.111 -0.2191 -0.0710  0.2624
 1128YOPC   GL212988  18.186   7.182   7.212  0.0083 -0.0237 -0.1675
 1128YOPC   C1A12989  18.095   7.621   7.486  0.0350 -0.0292  0.2385
 1128YOPC   D2A12990  18.010   8.003   7.700  0.0678  0.0242  0.0943
 1128YOPC   C3A12991  18.180   8.115   8.098  0.1789 -0.1832  0.4165
 1128YOPC   C4A12992  18.082   8.266   8.465  0.2843 -0.1416  0.0126
 1128YOPC   C1B12993  17.856   7.198   7.586 -0.1146 -0.0459 -0.1283
 1128YOPC   C2B12994  18.016   7.398   7.909 -0.2884 -0.2934 -0.0955
 1128YOPC   D3B12995  18.231   7.640   7.967 -0.0092 -0.1612  0.1060
 1128YOPC   C4B12996  18.655   7.535   8.048  0.0141 -0.0283  0.0543
 1129YOPC   NC312997   2.816  16.214   6.162  0.0567  0.0700 -0.0472
 1129YOPC   PO412998   2.515  16.030   6.175  0.1239  0.0327  0.1990
 1129YOPC   GL112999   2.483  15.761   6.382  0.2523  0.0190 -0.0548
 1129YOPC   GL213000   2.792  15.782   6.480  0.1213 -0.1825  0.1063
 1129YOPC   C1A13001   2.527  15.458   6.639  0.1235  0.1271 -0.1958
 1129YOPC   D2A13002   2.815  15.347   6.976 -0.5064  0.0429 -0.2064
 1129YOPC   C3A13003   2.854  15.079   7.271  0.0812 -0.2279 -0.0180
 1129YOPC   C4A13004   3.063  15.059   7.665  0.0775 -0.2223  0.0052
 1129YOPC   C1B13005   2.866  15.862   6.846 -0.1273  0.3054  0.2042
 1129YOPC   C2B13006   2.867  16.039   7.294 -0.3098 -0.0557 -0.0863
 1129YOPC   D3B13007   2.938  15.935   7.651 -0.0042  0.1622 -0.0658
 1129YOPC   C4B13008   3.105  15.615   7.832  0.0785  0.1538  0.2194
 1130YOPC   NC313009   9.771  12.497   5.952  0.2643  0.0042 -0.0404
 1130YOPC   PO413010   9.697  12.878   6.102 -0.4290 -0.0416 -0.0475
 1130YOPC   GL113011   9.938  13.169   6.398  0.1311 -0.2059  0.1152
 1130YOPC   GL213012  10.206  13.130   6.531  0.0653  0.0418 -0.1115
 1130YOPC   C1A13013  10.071  13.550   6.728 -0.0186 -0.1193 -0.0886
 1130YOPC   D2A13014  10.132  13.772   7.093  0.0266  0.1825  0.0299
 1130YOPC   C3A13015  10.085  13.655   7.613 -0.1544  0.1879  0.2159
 1130YOPC   C4A13016   9.735  13.490   7.854  0.0653 -0.1212 -0.0114
 1130YOPC   C1B13017  10.132  13.047   6.901 -0.1705 -0.0500 -0.0132
 1130YOPC   C2B13018  10.062  13.282   7.231  0.0771 -0.1885  0.0790
 1130YOPC   D3B13019   9.637  13.487   7.405  0.0631 -0.2091 -0.2855
 1130YOPC   C4B13020   9.189  13.630   7.501 -0.0984 -0.0382 -0.0705
 1131YOPC   NC313021  10.622  14.566   5.383  0.1826  0.0530  0.0576
 1131YOPC   PO413022  10.761  14.967   5.662 -0.2355 -0.0803 -0.2290
 1131YOPC   GL113023  10.911  15.075   6.121  0.2326  0.0400  0.3725
 1131YOPC   GL213024  11.098  14.799   6.200 -0.1954 -0.0223  0.0904
 1131YOPC   C1A13025  10.994  15.385   6.369 -0.0440 -0.2117 -0.1975
 1131YOPC   D2A13026  10.822  15.732   6.505  0.0746  0.2787  0.0256
 1131YOPC   C3A13027  10.441  15.637   6.783 -0.1697  0.0709  0.1588
 1131YOPC   C4A13028  10.098  15.818   6.616 -0.2444 -0.2431  0.1885
 1131YOPC   C1B13029  10.860  14.759   6.557 -0.4042  0.0627  0.0781
 1131YOPC   C2B13030  10.870  14.436   6.882  0.3581  0.1549 -0.1267
 1131YOPC   D3B13031  11.073  14.557   7.182  0.3242 -0.0013  0.3287
 1131YOPC   C4B13032  11.080  14.401   7.611 -0.0161 -0.1072  0.4336
 1132YOPC   NC313033  18.100  17.205   6.599 -0.1866  0.2885 -0.0843
 1132YOPC   PO413034  18.484  17.405   6.469 -0.2304 -0.1030  0.2165
 1132YOPC   GL113035  18.450  17.200   6.885 -0.2438 -0.7190 -0.0588
 1132YOPC   GL213036  18.226  16.999   7.030 -0.1026 -0.1688  0.0481
 1132YOPC   C1A13037  18.799  17.070   7.083  0.2593  0.0068  0.2102
 1132YOPC   D2A13038  18.897  17.114   7.477 -0.2282 -0.0264  0.1719
 1132YOPC   C3A13039  18.562  17.197   7.814  0.2182  0.0043  0.0175
 1132YOPC   C4A13040  18.190  17.064   7.822  0.0476 -0.0312 -0.1705
 1132YOPC   C1B13041  18.354  16.905   7.309  0.0676 -0.1455  0.2071
 1132YOPC   C2B13042  18.295  16.461   7.513  0.0077 -0.2873  0.2381
 1132YOPC   D3B13043  18.059  16.404   7.951  0.0490  0.1610 -0.1526
 1132YOPC   C4B13044  17.909  16.370   8.322 -0.2272  0.0535  0.0616
 1133YOPC   NC313045  17.126   4.561   6.338  0.1135 -0.1491  0.2617
 1133YOPC   PO413046  17.159   5.042   6.401 -0.0785 -0.0429  0.1228
 1133YOPC   GL113047  17.413   5.315   6.713  0.1888  0.1184 -0.1694
 1133YOPC   GL213048  17.729   5.204   6.847  0.0871 -0.3909  0.2677
 1133YOPC   C1A13049  17.300   5.432   7.097 -0.1306 -0.0258  0.2204
 1133YOPC   D2A13050  17.111   5.517   7.418 -0.1910  0.0774 -0.1038
 1133YOPC   C3A13051  16.740   5.661   7.268  0.1000  0.1924 -0.2281
 1133YOPC   C4A13052  16.560   5.794   6.996  0.1600  0.3755  0.2022
 1133YOPC   C1B13053  17.743   5.212   7.267 -0.0952  0.0497 -0.2383
 1133YOPC   C2B13054  17.702   5.070   7.659 -0.0913  0.0998 -0.0294
 1133YOPC   D3B13055  17.404   5.309   7.816 -0.2548  0.0819  0.0999
 1133YOPC   C4B13056  17.138   5.534   8.053  0.2299  0.0472  0.2359
 1134YOPC   NC313057  12.481  11.595   6.063 -0.1641 -0.0423  0.2275
 1134YOPC   PO413058  12.161  11.685   6.174  0.0087 -0.0053 -0.0771
 1134YOPC   GL113059  12.440  11.541   6.549  0.1100  0.0974  0.1344
 1134YOPC   GL213060  12.564  11.248   6.560  0.2983 -0.3820 -0.0256
 1134YOPC   C1A13061  12.637  11.572   6.955  0.0309  0.4585 -0.0359
 1134YOPC   D2A13062  12.777  11.501   7.370  0.2008 -0.2408 -0.2010
 1134YOPC   C3A13063  12.577  11.386   7.741 -0.1116  0.0363 -0.0801
 1134YOPC   C4A13064  12.429  11.082   7.898 -0.3496 -0.1840 -0.0201
 1134YOPC   C1B13065  12.509  11.081   6.928 -0.0509 -0.0126  0.1351
 1134YOPC   C2B13066  12.685  11.022   7.353 -0.2616  0.0627  0.2458
 1134YOPC   D3B13067  12.973  11.094   7.694 -0.0431 -0.0324 -0.1641
 1134YOPC   C4B13068  12.882  10.855   8.039 -0.2561 -0.0380 -0.3382
 1135YOPC   NC313069  13.347  15.585   5.084 -0.1272  0.2123 -0.0391
 1135YOPC   PO413070  13.538  15.641   5.569  0.1757  0.1708 -0.3265
 1135YOPC   GL113071  13.421  15.607   6.087  0.0263 -0.2849 -0.0506
 1135YOPC   GL213072  13.339  15.901   6.325 -0.1316 -0.0400  0.0246
 1135YOPC   C1A13073  13.414  15.372   6.416 -0.1304  0.0674  0.3136
 1135YOPC   D2A13074  13.280  15.101   6.574 -0.0639  0.0362  0.0315
 1135YOPC   C3A13075  12.938  15.035   6.861  0.2699  0.1077 -0.1449
 1135YOPC   C4A13076  12.753  15.042   7.225 -0.1995  0.2306  0.1637
 1135YOPC   C1B13077  13.320  15.837   6.772 -0.1253 -0.0516  0.2477
 1135YOPC   C2B13078  13.272  15.477   6.897  0.1754  0.3391 -0.2771
 1135YOPC   D3B13079  13.133  15.498   7.280 -0.0139 -0.3248  0.0910
 1135YOPC   C4B13080  12.939  15.275   7.589 -0.3431  0.0095  0.0413
 1136YOPC   NC313081  15.773   4.810   5.752 -0.1079  0.2498 -0.0119
 1136YOPC   PO413082  15.688   4.684   6.283  0.1743  0.2890  0.3009
 1136YOPC   GL113083  15.617   4.393   6.623 -0.0191  0.0233  0.0264
 1136YOPC   GL213084  15.374   4.379   6.811 -0.0280 -0.1938  0.3724
 1136YOPC   C1A13085  15.748   4.055   6.938  0.0719 -0.0124  0.1988
 1136YOPC   D2A13086  15.783   4.067   7.346 -0.1283  0.2927 -0.1743
 1136YOPC   C3A13087  15.891   3.764   7.568  0.2418  0.1023 -0.0442
 1136YOPC   C4A13088  16.031   3.562   7.944  0.0060  0.0325 -0.1683
 1136YOPC   C1B13089  15.379   4.308   7.147  0.2797  0.0168  0.2567
 1136YOPC   C2B13090  15.488   4.310   7.644  0.1813  0.3613 -0.1354
 1136YOPC   D3B13091  15.145   4.145   7.922 -0.0698  0.0373 -0.2171
 1136YOPC   C4B13092  14.942   3.705   7.955 -0.0336  0.0073  0.3863
 1137YOPC   NC313093   0.547   3.809   6.647  0.1064  0.0745  0.2767
 1137YOPC   PO413094   0.425   4.258   6.707 -0.1786  0.2522 -0.1339
 1137YOPC   GL113095   0.290   4.395   7.041  0.0562  0.2532  0.2072
 1137YOPC   GL213096   0.136   4.689   7.169  0.2025  0.1388  0.0300
 1137YOPC   C1A13097   0.164   4.329   7.532  0.5006 -0.1577  0.1544
 1137YOPC   D2A13098   0.155   4.212   7.853 -0.1631  0.3432  0.0902
 1137YOPC   C3A13099  -0.049   4.439   8.233 -0.0801  0.0877  0.1487
 1137YOPC   C4A13100  -0.192   4.245   8.566  0.2657 -0.0788 -0.0279
 1137YOPC   C1B13101   0.145   4.855   7.550  0.2959 -0.1254  0.1976
 1137YOPC   C2B13102   0.095   4.726   7.884  0.1178 -0.1199 -0.0016
 1137YOPC   D3B13103  -0.304   4.903   8.090 -0.3559 -0.1614  0.1532
 1137YOPC   C4B13104  -0.622   5.096   8.110 -0.0087 -0.1039 -0.4585
 1138YOPC   NC313105  11.629   3.558   6.068  0.2625 -0.0809 -0.1602
 1138YOPC   PO413106  11.450   4.028   5.896 -0.1338 -0.0755 -0.0833
 1138YOPC   GL113107  11.359   3.945   6.335  0.1606 -0.2557 -0.2474
 1138YOPC   GL213108  11.704   4.042   6.410  0.0947 -0.1104 -0.1635
 1138YOPC   C1A13109  11.286   3.919   6.762  0.0252 -0.0757  0.0392
 1138YOPC   D2A13110  10.972   3.943   7.108  0.3007  0.1862  0.0975
 1138YOPC   C3A13111  10.895   3.657   7.461  0.0791  0.1366  0.0500
 1138YOPC   C4A13112  11.210   3.645   7.739 -0.0933 -0.2770 -0.0971
 1138YOPC   C1B13113  11.925   3.701   6.668  0.1673 -0.0442  0.0321
 1138YOPC   C2B13114  11.843   3.658   7.120 -0.0080  0.1007 -0.1736
 1138YOPC   D3B13115  12.242   3.481   7.240  0.0356  0.3225  0.0480
 1138YOPC   C4B13116  12.634   3.258   7.508 -0.0452  0.2519 -0.0900
 1139YOPC   NC313117   6.853  17.948   6.253 -0.1879 -0.2364  0.1189
 1139YOPC   PO413118   6.587  18.050   6.510 -0.4569  0.0088  0.0243
 1139YOPC   GL113119   6.836  17.895   6.805 -0.2537 -0.0888  0.1221
 1139YOPC   GL213120   6.685  18.126   7.029  0.1876 -0.0313 -0.0693
 1139YOPC   C1A13121   7.190  17.938   7.110  0.2083 -0.1151 -0.0942
 1139YOPC   D2A13122   7.523  17.889   7.458  0.2880  0.0238  0.1227
 1139YOPC   C3A13123   7.332  17.645   7.817  0.0090 -0.1593 -0.0466
 1139YOPC   C4A13124   7.129  17.264   7.992 -0.0345  0.1169 -0.0502
 1139YOPC   C1B13125   6.741  18.043   7.324 -0.1740 -0.0648 -0.0898
 1139YOPC   C2B13126   6.473  17.904   7.601  0.3220 -0.0810  0.1850
 1139YOPC   D3B13127   6.557  17.510   7.876  0.1752  0.3945 -0.0890
 1139YOPC   C4B13128   6.234  17.296   8.194  0.0975 -0.1888  0.2178
 1140YOPC   NC313129  14.565   5.291   6.269 -0.1530 -0.2039  0.1189
 1140YOPC   PO413130  14.652   5.558   6.610 -0.1832  0.1277 -0.0339
 1140YOPC   GL113131  14.518   5.386   7.018  0.1641 -0.1483  0.1344
 1140YOPC   GL213132  14.507   5.612   7.377  0.2958  0.0796  0.1504
 1140YOPC   C1A13133  14.598   5.052   7.251 -0.2687 -0.1996 -0.2630
 1140YOPC   D2A13134  14.491   4.756   7.547  0.1386 -0.1519 -0.0116
 1140YOPC   C3A13135  14.477   4.644   7.932  0.0079 -0.1868 -0.3543
 1140YOPC   C4A13136  14.462   4.440   8.238 -0.0395 -0.0347  0.4484
 1140YOPC   C1B13137  14.517   5.788   7.803  0.0588  0.0824  0.3728
 1140YOPC   C2B13138  14.449   5.960   8.108  0.0361 -0.3666 -0.1247
 1140YOPC   D3B13139  14.082   6.041   8.233 -0.1694 -0.0331 -0.0420
 1140YOPC   C4B13140  13.797   6.254   7.966  0.1378  0.0471  0.0838
 1141ERGO   ROH13141  17.515   6.272   7.306  0.1338 -0.1330 -0.0790
 1141ERGO    R113142  17.540   6.282   7.588  0.3821  0.0370 -0.1036
 1141ERGO    R213143  17.445   6.082   7.753  0.0875  0.3555  0.1283
 1141ERGO    R313144  17.700   6.083   7.846  0.1764 -0.1057 -0.0837
 1141ERGO    R413145  17.538   5.997   8.074  0.1660  0.4239  0.1240
 1141ERGO    R513146  17.681   6.161   8.072  0.5211  0.1282 -0.1271
 1141ERGO    C113147  17.832   5.947   8.350  0.2953  0.0308 -0.0777
 1141ERGO    C213148  17.888   5.724   8.648 -0.3570  0.0531 -0.1946
 1142ERGO   ROH13149  15.584   6.022   6.892 -0.2080  0.1696  0.0643
 1142ERGO    R113150  15.530   5.952   7.161 -0.1420  0.0933  0.0588
 1142ERGO    R213151  15.305   5.809   7.235 -0.1584  0.1242  0.0823
 1142ERGO    R313152  15.488   5.644   7.350 -0.1616  0.0396 -0.0340
 1142ERGO    R413153  15.272   5.662   7.546 -0.0150  0.1541  0.1116
 1142ERGO    R513154  15.483   5.701   7.582  0.0267  0.0507 -0.0338
 1142ERGO    C113155  15.424   5.422   7.835  0.0654  0.0921  0.0195
 1142ERGO    C213156  15.349   5.255   8.176 -0.1870  0.2514 -0.2303
 1143ERGO   ROH13157   3.100   7.911   7.339 -0.0969 -0.2542  0.0473
 1143ERGO    R113158   3.231   7.776   7.551  0.0063 -0.2431 -0.0085
 1143ERGO    R213159   3.133   7.774   7.810  0.1698 -0.1672  0.0578
 1143ERGO    R313160   3.153   7.504   7.780  0.0847 -0.1777  0.0957
 1143ERGO    R413161   3.130   7.545   8.069  0.0993 -0.1333  0.0871
 1143ERGO    R513162   3.286   7.434   7.966  0.0620 -0.1958  0.1029
 1143ERGO    C113163   3.148   7.159   8.191 -0.0218 -0.1233  0.1398
 1143ERGO    C213164   2.964   6.995   8.477  0.0076 -0.1530 -0.2032
 1144ERGO   ROH13165  15.912   6.877   7.010 -0.2458 -0.1957 -0.0693
 1144ERGO    R113166  15.912   6.853   7.292 -0.1270 -0.1612 -0.0662
 1144ERGO    R213167  15.714   6.963   7.450 -0.0138 -0.0656  0.0078
 1144ERGO    R313168  15.695   6.709   7.545 -0.0691 -0.0488  0.0507
 1144ERGO    R413169  15.669   6.879   7.783 -0.2753  0.0111 -0.0054
 1144ERGO    R513170  15.810   6.715   7.755 -0.2350  0.0122  0.1452
 1144ERGO    C113171  15.624   6.592   8.065 -0.4795  0.0715  0.0271
 1144ERGO    C213172  15.367   6.758   8.266 -0.2768 -0.2657 -0.0608
 1145ERGO   ROH13173  14.745   8.582   7.286  0.0466 -0.1852 -0.0545
 1145ERGO    R113174  14.768   8.479   7.548  0.1751 -0.1904 -0.0677
 1145ERGO    R213175  15.010   8.402   7.658  0.3018  0.2598 -0.0172
 1145ERGO    R313176  14.938   8.574   7.856 -0.0896  0.0901 -0.0022
 1145ERGO    R413177  15.100   8.370   7.990  0.2526  0.3551  0.0063
 1145ERGO    R513178  14.900   8.433   8.045  0.1067 -0.0294 -0.0463
 1145ERGO    C113179  15.085   8.512   8.369 -0.1432  0.2513  0.0341
 1145ERGO    C213180  15.416   8.617   8.644  0.0159 -0.0966  0.1717
 1146ERGO   ROH13181   1.565  11.423   6.550 -0.0510 -0.0775 -0.1233
 1146ERGO    R113182   1.344  11.523   6.696 -0.1249 -0.3411 -0.0523
 1146ERGO    R213183   1.202  11.367   6.875  0.2418 -0.4620  0.1434
 1146ERGO    R313184   1.259  11.569   7.047  0.0232 -0.2471 -0.0281
 1146ERGO    R413185   1.040  11.422   7.175  0.3287 -0.5076  0.2002
 1146ERGO    R513186   1.045  11.636   7.133 -0.0349 -0.5232  0.0475
 1146ERGO    C113187   0.999  11.644   7.511  0.1740 -0.3324  0.0722
 1146ERGO    C213188   1.022  11.827   7.841  0.1543  0.2709  0.1968
 1147ERGO   ROH13189  18.434   8.271   6.847  0.0056  0.1277 -0.0464
 1147ERGO    R113190  18.273   8.416   7.029  0.1482  0.1178  0.0879
 1147ERGO    R213191  18.022   8.330   7.105  0.1292  0.2167  0.1220
 1147ERGO    R313192  18.124   8.356   7.356  0.2242  0.0226  0.1064
 1147ERGO    R413193  17.834   8.368   7.393  0.2321 -0.0632  0.2309
 1147ERGO    R513194  17.980   8.513   7.463  0.2337 -0.0926  0.2982
 1147ERGO    C113195  17.821   8.414   7.796  0.3810 -0.4083  0.2796
 1147ERGO    C213196  17.706   8.277   8.117  0.2143 -0.0345  0.2974
 1148ERGO   ROH13197   6.779  12.227   6.660 -0.0768 -0.1470  0.0045
 1148ERGO    R113198   6.701  12.076   6.887 -0.0473 -0.0651  0.0700
 1148ERGO    R213199   6.878  12.006   7.087 -0.0057 -0.0514  0.0378
 1148ERGO    R313200   6.693  12.125   7.247  0.0695  0.0373  0.0597
 1148ERGO    R413201   6.808  11.911   7.412 -0.1314 -0.1339 -0.0131
 1148ERGO    R513202   6.596  11.943   7.371 -0.1009  0.0623 -0.0319
 1148ERGO    C113203   6.594  11.966   7.751 -0.1339 -0.0989 -0.0220
 1148ERGO    C213204   6.524  11.994   8.063  0.0261 -0.1067 -0.0175
 1149ERGO   ROH13205  14.644  16.309   5.869  0.1189 -0.1026  0.0327
 1149ERGO    R113206  14.515  16.415   6.097  0.0916  0.0666 -0.0592
 1149ERGO    R213207  14.377  16.257   6.276  0.0918  0.1941  0.0553
 1149ERGO    R313208  14.541  16.375   6.458  0.0671  0.3525 -0.0231
 1149ERGO    R413209  14.287  16.339   6.600  0.1765  0.0643  0.1118
 1149ERGO    R513210  14.398  16.525   6.579 -0.0319  0.1887  0.0680
 1149ERGO    C113211  14.389  16.496   6.959  0.2025  0.1372  0.0711
 1149ERGO    C213212  14.412  16.553   7.277  0.3690 -0.0169 -0.0182
 1150ERGO   ROH13213   6.988  16.604   6.613  0.4690 -0.1819  0.1088
 1150ERGO    R113214   7.104  16.736   6.835  0.3099 -0.1298  0.1616
 1150ERGO    R213215   6.980  16.946   6.964  0.2640 -0.0308 -0.0449
 1150ERGO    R313216   7.018  16.792   7.184  0.0036  0.0510  0.0620
 1150ERGO    R413217   6.879  17.030   7.283  0.2548  0.2887 -0.1278
 1150ERGO    R513218   7.066  16.948   7.359  0.1360  0.1029 -0.0169
 1150ERGO    C113219   6.855  16.934   7.677  0.0050  0.5514 -0.0757
 1150ERGO    C213220   6.585  16.888   7.987 -0.2641  0.1784  0.2781
 1151ERGO   ROH13221   9.762  16.715   6.350  0.0952  0.0668  0.0718
 1151ERGO    R113222   9.562  16.605   6.516  0.0494  0.1353  0.0641
 1151ERGO    R213223   9.552  16.652   6.788  0.0576  0.1337  0.0685
 1151ERGO    R313224   9.298  16.731   6.733  0.0901  0.2285  0.0583
 1151ERGO    R413225   9.281  16.603   6.997 -0.0849 -0.3236 -0.2090
 1151ERGO    R513226   9.161  16.555   6.821  0.0390  0.0290 -0.3965
 1151ERGO    C113227   8.884  16.650   7.066 -0.1376 -0.5006 -0.3803
 1151ERGO    C213228   8.759  16.746   7.376  0.1277 -0.1163 -0.0984
 1152ERGO   ROH13229   3.181   0.847   6.763 -0.2575  0.0305  0.0053
 1152ERGO    R113230   3.313   0.812   7.011 -0.1526  0.0380 -0.0484
 1152ERGO    R213231   3.388   1.024   7.171 -0.1223  0.0430 -0.0651
 1152ERGO    R313232   3.246   0.891   7.360 -0.0276  0.0090 -0.0180
 1152ERGO    R413233   3.418   1.074   7.512 -0.0893  0.1127 -0.0783
 1152ERGO    R513234   3.401   0.858   7.539  0.0159  0.1114 -0.0385
 1152ERGO    C113235   3.301   0.977   7.888  0.0188  0.1213 -0.0418
 1152ERGO    C213236   3.196   1.049   8.296 -0.1137  0.0114 -0.1345
 1153ERGO   ROH13237   1.969   8.769   6.924  0.1930 -0.0138 -0.0935
 1153ERGO    R113238   2.070   8.984   7.078  0.1217  0.0573 -0.1459
 1153ERGO    R213239   2.142   8.956   7.342 -0.0203  0.1839 -0.0921
 1153ERGO    R313240   2.378   9.061   7.256  0.0313  0.1288 -0.0196
 1153ERGO    R413241   2.385   9.090   7.549  0.1065 -0.1922  0.0120
 1153ERGO    R513242   2.415   9.248   7.401  0.1792 -0.0496  0.1783
 1153ERGO    C113243   2.747   9.267   7.588  0.2288 -0.4630  0.1408
 1153ERGO    C213244   3.098   9.286   7.507 -0.0347  0.0423 -0.0894
 1154ERGO   ROH13245   9.147   7.689   6.417  0.2381  0.1301 -0.1134
 1154ERGO    R113246   9.117   7.597   6.683  0.0698 -0.0018 -0.1753
 1154ERGO    R213247   9.299   7.655   6.882  0.0770 -0.3028 -0.0828
 1154ERGO    R313248   9.079   7.747   7.012  0.1281 -0.1578 -0.0978
 1154ERGO    R413249   9.274   7.691   7.225  0.1528 -0.0481 -0.1018
 1154ERGO    R513250   9.069   7.615   7.212  0.1365 -0.0081 -0.0014
 1154ERGO    C113251   9.052   7.797   7.547  0.2449  0.2364 -0.1268
 1154ERGO    C213252   9.271   7.978   7.835 -0.0033  0.1124  0.1350
 1155ERGO   ROH13253   9.301  10.098   6.706 -0.0829  0.0528  0.0160
 1155ERGO    R113254   9.359  10.118   6.982 -0.0623  0.1516  0.0037
 1155ERGO    R213255   9.386  10.360   7.112 -0.2019  0.1931 -0.0582
 1155ERGO    R313256   9.197  10.256   7.277 -0.1134  0.1135 -0.0036
 1155ERGO    R413257   9.383  10.397   7.455  0.0801 -0.0923 -0.0196
 1155ERGO    R513258   9.319  10.189   7.472  0.0227 -0.0945 -0.1498
 1155ERGO    C113259   9.204  10.321   7.811  0.3273 -0.3333  0.0543
 1155ERGO    C213260   9.257  10.425   8.141 -0.1586  0.1973  0.3494
 1156ERGO   ROH13261   0.633   6.911   6.950 -0.0056 -0.0443 -0.0091
 1156ERGO    R113262   0.740   7.051   7.171  0.0150 -0.0951  0.0139
 1156ERGO    R213263   0.586   7.129   7.387 -0.0005 -0.0009 -0.0269
 1156ERGO    R313264   0.775   6.994   7.529 -0.1111 -0.1034  0.0243
 1156ERGO    R413265   0.679   7.201   7.712  0.0282  0.0095 -0.0376
 1156ERGO    R513266   0.886   7.164   7.656  0.0033 -0.1559 -0.0089
 1156ERGO    C113267   0.910   7.117   8.034 -0.0589 -0.0807  0.0042
 1156ERGO    C213268   1.029   7.069   8.286  0.1005 -0.0505  0.3150
 1157ERGO   ROH13269   8.865   5.069   6.408  0.3998  0.0624 -0.1801
 1157ERGO    R113270   8.754   5.029   6.665  0.1661  0.1845 -0.2595
 1157ERGO    R213271   8.758   4.785   6.793 -0.1001  0.2049 -0.2091
 1157ERGO    R313272   8.875   4.927   6.993 -0.1640  0.1626 -0.1396
 1157ERGO    R413273   8.654   4.784   7.123 -0.0571 -0.0613 -0.1938
 1157ERGO    R513274   8.692   4.999   7.130 -0.1948 -0.0373 -0.0706
 1157ERGO    C113275   8.704   4.917   7.502 -0.0919 -0.2560 -0.1198
 1157ERGO    C213276   8.534   5.001   7.727 -0.0519 -0.3329 -0.1899
 1158ERGO   ROH13277   8.486   6.806   8.672 -0.0379 -0.0852 -0.0555
 1158ERGO    R113278   8.760   6.770   8.729 -0.0650 -0.2196 -0.0054
 1158ERGO    R213279   8.940   6.673   8.543 -0.0204 -0.0070 -0.0758
 1158ERGO    R313280   9.076   6.901   8.603  0.0074 -0.1125  0.2796
 1158ERGO    R413281   9.280   6.719   8.500 -0.0339  0.0550 -0.1181
 1158ERGO    R513282   9.285   6.824   8.690  0.0365 -0.2770  0.0731
 1158ERGO    C113283   9.605   6.959   8.532 -0.0157 -0.0079  0.1908
 1158ERGO    C213284   9.889   7.014   8.614  0.0402  0.0974 -0.1467
 1159ERGO   ROH13285   1.745  18.325   6.885  0.2998  0.0385 -0.1268
 1159ERGO    R113286   1.898  18.284   7.120  0.0865 -0.1283 -0.0137
 1159ERGO    R213287   2.101  18.455   7.197  0.3584 -0.4566  0.0213
 1159ERGO    R313288   1.960  18.465   7.429  0.2289 -0.0859 -0.0664
 1159ERGO    R413289   2.241  18.461   7.513  0.1792 -0.1509  0.1000
 1159ERGO    R513290   2.084  18.326   7.580  0.0610  0.0235  0.1794
 1159ERGO    C113291   2.191  18.474   7.915 -0.0467  0.3751  0.0636
 1159ERGO    C213292   2.201  18.638   8.209 -0.1312  0.1279 -0.2222
 1160ERGO   ROH13293   3.651  11.613   6.475  0.0897  0.0333  0.0100
 1160ERGO    R113294   3.710  11.527   6.738  0.0150  0.0488  0.0322
 1160ERGO    R213295   3.823  11.693   6.927  0.1345  0.0105  0.0007
 1160ERGO    R313296   3.607  11.618   7.075  0.0682  0.2054  0.0054
 1160ERGO    R413297   3.802  11.716   7.272  0.1772 -0.0366  0.0065
 1160ERGO    R513298   3.702  11.522   7.273 -0.0212  0.0700 -0.0211
 1160ERGO    C113299   3.588  11.659   7.611  0.1399  0.1189  0.0143
 1160ERGO    C213300   3.557  11.861   7.885  0.1228 -0.2606  0.2343
 1161ERGO   ROH13301   4.024   3.670   6.558 -0.0133 -0.1104 -0.0609
 1161ERGO    R113302   4.145   3.618   6.809  0.1105 -0.0001 -0.0961
 1161ERGO    R213303   4.313   3.798   6.934 -0.1931  0.2547 -0.0385
 1161ERGO    R313304   4.140   3.767   7.141 -0.1211 -0.1425 -0.0351
 1161ERGO    R413305   4.372   3.901   7.259 -0.3026  0.1158  0.0256
 1161ERGO    R513306   4.279   3.716   7.329 -0.0244 -0.0688 -0.0899
 1161ERGO    C113307   4.243   3.931   7.642 -0.2990 -0.3379  0.0661
 1161ERGO    C213308   4.107   4.226   7.795 -0.1981 -0.0680  0.2239
 1162ERGO   ROH13309   4.433  17.619   6.662  0.0627  0.0633  0.0540
 1162ERGO    R113310   4.471  17.617   6.942  0.0359  0.0566  0.0576
 1162ERGO    R213311   4.690  17.736   7.063  0.0301  0.0425  0.0816
 1162ERGO    R313312   4.499  17.866   7.207  0.0243  0.0495  0.0649
 1162ERGO    R413313   4.731  17.851   7.387 -0.0548 -0.1256  0.1535
 1162ERGO    R513314   4.528  17.785   7.430 -0.0984 -0.0666  0.0390
 1162ERGO    C113315   4.576  18.040   7.710 -0.1098 -0.2171  0.1796
 1162ERGO    C213316   4.755  18.064   7.959 -0.0356  0.0561  0.1827
 1163ERGO   ROH13317   0.801  15.552   6.475  0.0114 -0.2199 -0.0260
 1163ERGO    R113318   0.829  15.447   6.737 -0.0073 -0.0627  0.0407
 1163ERGO    R213319   0.831  15.607   6.962 -0.1332  0.0651 -0.0446
 1163ERGO    R313320   0.632  15.441   7.042 -0.0816  0.0223 -0.0060
 1163ERGO    R413321   0.696  15.602   7.280 -0.0039 -0.0357  0.0092
 1163ERGO    R513322   0.690  15.384   7.268  0.0154 -0.0314 -0.0455
 1163ERGO    C113323   0.430  15.443   7.540  0.1200 -0.1345  0.0768
 1163ERGO    C213324   0.446  15.342   7.792 -0.0649  0.0078 -0.3483
 1164ERGO   ROH13325  15.876   9.584   6.835 -0.0458 -0.0043  0.0179
 1164ERGO    R113326  15.787   9.712   7.071 -0.0749  0.0252 -0.0088
 1164ERGO    R213327  15.661   9.576   7.276 -0.1490  0.0602 -0.0303
 1164ERGO    R313328  15.857   9.689   7.427 -0.1615  0.0290  0.0086
 1164ERGO    R413329  15.648   9.615   7.619 -0.2495  0.1385 -0.0428
 1164ERGO    R513330  15.739   9.812   7.596 -0.1773  0.1042 -0.0565
 1164ERGO    C113331  15.824   9.743   7.961 -0.3196  0.1549 -0.0135
 1164ERGO    C213332  15.773   9.767   8.372  0.3244 -0.1049 -0.4230
 1165ERGO   ROH13333  17.792  16.841   6.711  0.3975  0.1893  0.0386
 1165ERGO    R113334  17.847  16.725   6.963  0.3108  0.1457  0.0387
 1165ERGO    R213335  17.662  16.718   7.168  0.2335  0.0957 -0.0295
 1165ERGO    R313336  17.715  16.452   7.164  0.2519  0.1003 -0.0622
 1165ERGO    R413337  17.726  16.525   7.447  0.2312  0.0602 -0.0541
 1165ERGO    R513338  17.880  16.421   7.334  0.2433  0.0868 -0.0582
 1165ERGO    C113339  17.813  16.162   7.606  0.2472  0.0438 -0.0990
 1165ERGO    C213340  18.006  15.882   7.744 -0.1305  0.0487  0.0154
 1166ERGO   ROH13341  18.160  10.917   6.625 -0.1332  0.0470  0.0242
 1166ERGO    R113342  18.039  11.048   6.844 -0.0690  0.0859  0.0375
 1166ERGO    R213343  18.006  10.926   7.090 -0.1930  0.0512  0.0076
 1166ERGO    R313344  18.137  11.147   7.181 -0.0417 -0.0647  0.0737
 1166ERGO    R413345  17.993  11.042   7.415 -0.0971 -0.0418  0.0446
 1166ERGO    R513346  17.984  11.246   7.337  0.0348 -0.0114  0.1123
 1166ERGO    C113347  18.109  11.317   7.690  0.1008 -0.2047  0.1283
 1166ERGO    C213348  18.283  11.174   7.973  0.1311 -0.0577  0.2119
 1167ERGO   ROH13349   3.570   1.292   6.666 -0.0898 -0.2019  0.1182
 1167ERGO    R113350   3.669   1.391   6.912 -0.0699 -0.1573  0.0924
 1167ERGO    R213351   3.531   1.576   7.064 -0.0911 -0.1831  0.1047
 1167ERGO    R313352   3.561   1.390   7.260 -0.0042 -0.1608  0.1130
 1167ERGO    R413353   3.430   1.616   7.392 -0.0142 -0.1732  0.1271
 1167ERGO    R513354   3.614   1.517   7.456  0.0221 -0.1327  0.0884
 1167ERGO    C113355   3.400   1.464   7.767  0.1121 -0.1465  0.1479
 1167ERGO    C213356   3.483   1.488   8.085 -0.0569  0.1308  0.0723
 1168ERGO   ROH13357  17.953  11.988   6.398  0.2353  0.0286 -0.0917
 1168ERGO    R113358  18.023  11.884   6.652 -0.1242  0.1287  0.0530
 1168ERGO    R213359  18.284  11.870   6.740 -0.2015 -0.2969  0.2204
 1168ERGO    R313360  18.185  12.008   6.953 -0.0684  0.0997  0.0370
 1168ERGO    R413361  18.449  11.914   7.041 -0.2701 -0.3162  0.2620
 1168ERGO    R513362  18.259  11.883   7.144 -0.3963  0.1340  0.1996
 1168ERGO    C113363  18.453  12.068   7.415 -0.1849  0.0448  0.1140
 1168ERGO    C213364  18.749  12.151   7.604  0.1906 -0.1478  0.0910
 1169ERGO   ROH13365  18.258   5.418   6.945  0.1192  0.0644 -0.0432
 1169ERGO    R113366  18.087   5.563   7.116  0.1498 -0.0689  0.1040
 1169ERGO    R213367  18.153   5.624   7.378  0.3589  0.0438  0.0294
 1169ERGO    R313368  18.100   5.878   7.298  0.0340 -0.0211  0.0293
 1169ERGO    R413369  18.126   5.897   7.589  0.1524  0.0379  0.0118
 1169ERGO    R513370  17.958   5.966   7.470  0.0162 -0.1621  0.0857
 1169ERGO    C113371  18.060   6.294   7.637 -0.2726 -0.0264  0.0014
 1169ERGO    C213372  18.114   6.428   7.928 -0.3142 -0.0987 -0.0689
 1170ERGO   ROH13373   3.975   4.799   6.580 -0.0435 -0.3110  0.2192
 1170ERGO    R113374   4.134   4.740   6.807  0.3440 -0.0233  0.0341
 1170ERGO    R213375   4.350   4.895   6.882 -0.0952  0.6343  0.0105
 1170ERGO    R313376   4.219   4.903   7.121  0.0427 -0.0453  0.1315
 1170ERGO    R413377   4.464   5.059   7.164 -0.3926  0.7063  0.0940
 1170ERGO    R513378   4.394   4.891   7.284  0.2275  0.3274 -0.0230
 1170ERGO    C113379   4.409   5.162   7.552 -0.4364  0.1101  0.2562
 1170ERGO    C213380   4.719   5.184   7.863 -0.0268  0.0955 -0.0627
 1171ERGO   ROH13381   9.260   6.607   6.750  0.1734 -0.2440 -0.2073
 1171ERGO    R113382   9.297   6.360   6.884  0.2242 -0.1693 -0.0842
 1171ERGO    R213383   9.548   6.259   6.944  0.2414 -0.0560  0.0228
 1171ERGO    R313384   9.448   6.249   7.197  0.1856  0.0236  0.0052
 1171ERGO    R413385   9.628   6.020   7.180 -0.0772 -0.1917 -0.0001
 1171ERGO    R513386   9.419   6.016   7.241 -0.0971  0.0448 -0.0359
 1171ERGO    C113387   9.581   5.871   7.554 -0.3151 -0.1960 -0.0302
 1171ERGO    C213388   9.635   5.646   7.851  0.3390 -0.1746  0.0521
 1172ERGO   ROH13389  16.430   3.288   6.619 -0.0306 -0.0482 -0.1027
 1172ERGO    R113390  16.327   3.388   6.863  0.0466 -0.0174 -0.0822
 1172ERGO    R213391  16.167   3.237   7.030  0.0147  0.0375 -0.0620
 1172ERGO    R313392  16.354   3.304   7.215  0.0709 -0.0410 -0.0899
 1172ERGO    R413393  16.139   3.178   7.369  0.0503  0.0329 -0.0598
 1172ERGO    R513394  16.227   3.374   7.406  0.1295 -0.0022 -0.0653
 1172ERGO    C113395  16.298   3.207   7.741  0.1237 -0.0436 -0.0848
 1172ERGO    C213396  16.110   3.090   8.022 -0.1351 -0.2024 -0.0988
 1173ERGO   ROH13397   2.963   6.034   6.541  0.1290  0.1532 -0.0876
 1173ERGO    R113398   3.051   5.904   6.777  0.1483  0.2002 -0.0679
 1173ERGO    R213399   3.008   6.008   7.029 -0.1256  0.0909 -0.0616
 1173ERGO    R313400   2.897   5.765   7.075  0.1353 -0.0574 -0.1936
 1173ERGO    R413401   2.903   5.895   7.338 -0.4146 -0.0178 -0.1964
 1173ERGO    R513402   2.985   5.699   7.288 -0.0767  0.0860 -0.0616
 1173ERGO    C113403   2.738   5.600   7.562 -0.3378 -0.2203 -0.3988
 1173ERGO    C213404   2.640   5.438   7.959  0.2581 -0.2376  0.2022
 1174ERGO   ROH13405   0.662  17.651   7.012  0.0109 -0.0451 -0.0490
 1174ERGO    R113406   0.706  17.513   7.255  0.1293 -0.0122 -0.0513
 1174ERGO    R213407   0.833  17.629   7.472 -0.0289  0.1172 -0.0286
 1174ERGO    R313408   0.608  17.554   7.603  0.0340 -0.1410 -0.0613
 1174ERGO    R413409   0.817  17.548   7.807  0.0047  0.1941 -0.0079
 1174ERGO    R513410   0.681  17.386   7.757  0.2239 -0.0047  0.0050
 1174ERGO    C113411   0.596  17.430   8.126  0.0832 -0.0037 -0.0265
 1174ERGO    C213412   0.764  17.327   8.373 -0.0680  0.2279  0.2406
 1175ERGO   ROH13413   6.461   7.436   6.508  0.0468 -0.2047  0.0569
 1175ERGO    R113414   6.369   7.522   6.762  0.0057 -0.1592  0.0263
 1175ERGO    R213415   6.112   7.614   6.804  0.0201 -0.0943 -0.0456
 1175ERGO    R313416   6.110   7.422   6.997 -0.0756 -0.0737 -0.0247
 1175ERGO    R413417   5.936   7.635   7.101 -0.0311 -0.0015 -0.0817
 1175ERGO    R513418   6.107   7.546   7.203 -0.0750 -0.0456 -0.0385
 1175ERGO    C113419   5.831   7.467   7.454 -0.1508  0.0719 -0.0832
 1175ERGO    C213420   5.693   7.571   7.651  0.0895 -0.4065 -0.2355
 1176ERGO   ROH13421   1.731  10.584   6.901  0.0584  0.2126 -0.0113
 1176ERGO    R113422   1.764  10.482   7.163 -0.2041 -0.0807 -0.0855
 1176ERGO    R213423   1.888  10.625   7.365  0.1001 -0.5132  0.0553
 1176ERGO    R313424   1.657  10.575   7.498 -0.0455 -0.1053 -0.0283
 1176ERGO    R413425   1.851  10.639   7.708 -0.0096 -0.4442  0.0407
 1176ERGO    R513426   1.727  10.461   7.697 -0.3219 -0.2276  0.0000
 1176ERGO    C113427   1.613  10.599   8.033 -0.2101 -0.0211 -0.0462
 1176ERGO    C213428   1.494  10.717   8.351 -0.0097 -0.1944 -0.2860
 1177ERGO   ROH13429  15.027   6.237  10.332  0.2167 -0.0118  0.1003
 1177ERGO    R113430  14.914   6.211  10.074  0.1249  0.0786  0.1320
 1177ERGO    R213431  15.066   6.215   9.844  0.0645 -0.0545  0.0947
 1177ERGO    R313432  14.941   5.979   9.796 -0.1488  0.0495  0.1251
 1177ERGO    R413433  14.988   6.093   9.530  0.0642 -0.0705  0.1002
 1177ERGO    R513434  14.797   6.024   9.610 -0.0384  0.1379  0.0550
 1177ERGO    C113435  14.824   5.800   9.303 -0.1363  0.0179  0.1321
 1177ERGO    C213436  14.836   5.763   8.988 -0.1968  0.5213 -0.1082
 1178ERGO   ROH13437  14.803  12.790   6.536  0.2533  0.1366  0.0578
 1178ERGO    R113438  14.720  12.822   6.804  0.0800  0.0883  0.0114
 1178ERGO    R213439  14.899  12.864   7.011 -0.0483 -0.0061  0.1427
 1178ERGO    R313440  14.742  13.082   7.059 -0.0288  0.0190  0.0931
 1178ERGO    R413441  14.791  12.965   7.324  0.0942  0.1639  0.1386
 1178ERGO    R513442  14.597  13.012   7.236  0.0521  0.1130  0.1995
 1178ERGO    C113443  14.581  13.227   7.550  0.1954  0.2864  0.0896
 1178ERGO    C213444  14.602  13.451   7.708 -0.0770  0.0645 -0.2809
 1179ERGO   ROH13445   4.716  10.303   6.598  0.0626  0.0584 -0.0984
 1179ERGO    R113446   4.817  10.166   6.825 -0.0698 -0.0614 -0.1126
 1179ERGO    R213447   4.825  10.280   7.077  0.0838 -0.0771 -0.1174
 1179ERGO    R313448   4.686  10.057   7.147 -0.1598  0.0739 -0.0999
 1179ERGO    R413449   4.808  10.148   7.396  0.0238 -0.0749 -0.1183
 1179ERGO    R513450   4.824   9.949   7.310 -0.2292 -0.0965 -0.1427
 1179ERGO    C113451   4.668   9.862   7.647 -0.2397  0.0681 -0.1025
 1179ERGO    C213452   4.486   9.491   7.872 -0.0221  0.2991  0.2160
 1180ERGO   ROH13453   0.537   5.117   7.347  0.2187  0.0273 -0.0928
 1180ERGO    R113454   0.564   5.186   7.620  0.1005 -0.0425 -0.0625
 1180ERGO    R213455   0.348   5.238   7.783  0.0258 -0.1476 -0.1257
 1180ERGO    R313456   0.460   5.046   7.939  0.0212 -0.1620 -0.1402
 1180ERGO    R413457   0.219   5.128   8.084  0.0669 -0.1131 -0.0953
 1180ERGO    R513458   0.422   5.122   8.163  0.0804 -0.1473 -0.1357
 1180ERGO    C113459   0.249   4.884   8.406  0.0865 -0.1065 -0.0911
 1180ERGO    C213460   0.288   4.659   8.684  0.2841  0.2286 -0.0484
 1181ERGO   ROH13461   8.825   6.850   6.750  0.1410  0.0779  0.0944
 1181ERGO    R113462   8.709   6.758   6.992  0.0199  0.1616  0.0692
 1181ERGO    R213463   8.861   6.683   7.210 -0.0784 -0.0559  0.0634
 1181ERGO    R313464   8.706   6.864   7.340  0.1198  0.0980  0.0908
 1181ERGO    R413465   8.807   6.687   7.551 -0.0940 -0.0717  0.0610
 1181ERGO    R513466   8.598   6.737   7.512 -0.0394  0.1792  0.0560
 1181ERGO    C113467   8.629   6.859   7.872  0.0829  0.0636  0.0853
 1181ERGO    C213468   8.749   6.960   8.207 -0.0728  0.2141  0.1742
 1182ERGO   ROH13469   6.823   5.614   6.679 -0.1472  0.0540  0.2013
 1182ERGO    R113470   6.749   5.526   6.938 -0.1218  0.0231  0.1986
 1182ERGO    R213471   6.863   5.629   7.168 -0.0255 -0.0762  0.1982
 1182ERGO    R313472   6.604   5.676   7.236  0.0089  0.0129  0.2675
 1182ERGO    R413473   6.739   5.627   7.491  0.0694  0.0213  0.2354
 1182ERGO    R513474   6.561   5.526   7.417  0.0179  0.0605  0.3082
 1182ERGO    C113475   6.424   5.670   7.742  0.1569  0.1618  0.3221
 1182ERGO    C213476   6.421   5.812   7.988  0.0810  0.1379  0.0700
 1183ERGO   ROH13477   6.753   1.179   6.772  0.0771 -0.1411  0.1104
 1183ERGO    R113478   6.719   1.334   7.007 -0.0040 -0.0880  0.0630
 1183ERGO    R213479   6.814   1.254   7.253  0.0912  0.0648  0.0723
 1183ERGO    R313480   6.936   1.497   7.250 -0.0898  0.1575 -0.0192
 1183ERGO    R413481   6.874   1.449   7.532  0.3942 -0.0260  0.0753
 1183ERGO    R513482   6.819   1.624   7.415  0.0724 -0.0055  0.2346
 1183ERGO    C113483   7.023   1.790   7.691  0.4007  0.0082 -0.0087
 1183ERGO    C213484   7.169   2.105   7.790 -0.4045  0.0399  0.1438
 1184ERGO   ROH13485   2.665   2.100   6.868 -0.1208  0.0703  0.0951
 1184ERGO    R113486   2.565   2.199   7.114 -0.0078  0.1420  0.1138
 1184ERGO    R213487   2.540   2.040   7.339 -0.1538  0.1375  0.0999
 1184ERGO    R313488   2.690   2.235   7.454  0.0529 -0.0249  0.1093
 1184ERGO    R413489   2.586   2.080   7.679 -0.0656  0.0454  0.0982
 1184ERGO    R513490   2.569   2.295   7.652  0.1406  0.0651  0.1336
 1184ERGO    C113491   2.754   2.286   7.985  0.1798 -0.1606  0.1061
 1184ERGO    C213492   2.686   2.357   8.348  0.3348 -0.0874 -0.0466
 1185ERGO   ROH13493  16.221   0.595   7.136  0.0195  0.1177 -0.0391
 1185ERGO    R113494  16.330   0.622   7.396  0.0472  0.1252 -0.0514
 1185ERGO    R213495  16.356   0.867   7.521 -0.1032  0.1114  0.0095
 1185ERGO    R313496  16.216   0.744   7.719  0.0181 -0.0417  0.0017
 1185ERGO    R413497  16.391   0.933   7.859 -0.0969  0.0489  0.0211
 1185ERGO    R513498  16.374   0.719   7.897  0.0647  0.0265 -0.0308
 1185ERGO    C113499  16.280   0.856   8.241  0.0207 -0.1312  0.0206
 1185ERGO    C213500  16.271   1.086   8.517  0.0566  0.0927  0.2880
 1186ERGO   ROH13501  14.251   6.263   7.288  0.1727  0.0309  0.0316
 1186ERGO    R113502  14.242   6.036   7.456  0.0732  0.0304  0.0248
 1186ERGO    R213503  14.076   6.019   7.676 -0.0045  0.0574 -0.0353
 1186ERGO    R313504  13.993   5.790   7.556 -0.0049  0.0726 -0.0646
 1186ERGO    R413505  13.993   5.727   7.842 -0.0236  0.0394 -0.0740
 1186ERGO    R513506  14.093   5.615   7.685 -0.0185  0.0542 -0.0796
 1186ERGO    C113507  13.866   5.342   7.825 -0.0349  0.0432 -0.1240
 1186ERGO    C213508  13.627   5.020   8.007  0.1609 -0.0848 -0.0799
 1187ERGO   ROH13509  11.592   0.689   6.405 -0.1195 -0.0192  0.0248
 1187ERGO    R113510  11.382   0.763   6.579 -0.1206  0.0541 -0.0061
 1187ERGO    R213511  11.359   0.663   6.835 -0.2664 -0.0383 -0.0511
 1187ERGO    R313512  11.352   0.926   6.903 -0.1007 -0.0607  0.0533
 1187ERGO    R413513  11.140   0.802   7.064 -0.2858  0.0362 -0.1158
 1187ERGO    R513514  11.119   0.974   6.931 -0.0796  0.1078 -0.0563
 1187ERGO    C113515  11.006   1.130   7.260 -0.1417  0.0586 -0.0555
 1187ERGO    C213516  10.807   1.201   7.553 -0.1117  0.2225 -0.0357
 1188ERGO   ROH13517   3.641   3.378   6.427 -0.1963 -0.0048 -0.0687
 1188ERGO    R113518   3.581   3.438   6.697 -0.1151 -0.1528 -0.0170
 1188ERGO    R213519   3.648   3.269   6.906  0.1491 -0.1630 -0.1077
 1188ERGO    R313520   3.768   3.492   7.004 -0.0077 -0.0826 -0.0944
 1188ERGO    R413521   3.710   3.330   7.240  0.1446 -0.1576 -0.1076
 1188ERGO    R513522   3.653   3.537   7.208 -0.0175 -0.1958 -0.0743
 1188ERGO    C113523   3.858   3.575   7.527 -0.0052 -0.0791 -0.0950
 1188ERGO    C213524   4.161   3.455   7.721 -0.1792 -0.0426 -0.1032
 1189ERGO   ROH13525   9.606  11.692   6.278  0.0388 -0.2081  0.0397
 1189ERGO    R113526   9.662  11.648   6.552 -0.0096  0.0207  0.0884
 1189ERGO    R213527   9.528  11.780   6.755 -0.2596 -0.0314 -0.0417
 1189ERGO    R313528   9.478  11.528   6.843  0.0288 -0.0478  0.0856
 1189ERGO    R413529   9.451  11.696   7.081 -0.1482  0.0466  0.0056
 1189ERGO    R513530   9.577  11.520   7.060  0.0522  0.1747  0.0873
 1189ERGO    C113531   9.359  11.410   7.353  0.1875  0.0767  0.1526
 1189ERGO    C213532   9.094  11.304   7.635 -0.0634  0.1928  0.0897
 1190ERGO   ROH13533   9.702   1.202   6.333 -0.1599 -0.0962 -0.0834
 1190ERGO    R113534   9.741   1.309   6.591 -0.0410  0.0973 -0.1800
 1190ERGO    R213535   9.556   1.474   6.714 -0.1296 -0.0632 -0.0971
 1190ERGO    R313536   9.573   1.291   6.914  0.2908  0.0657 -0.0044
 1190ERGO    R413537   9.467   1.532   7.043 -0.1926 -0.0772 -0.1113
 1190ERGO    R513538   9.642   1.418   7.105  0.0658  0.3138 -0.0811
 1190ERGO    C113539   9.431   1.394   7.422  0.1655  0.0357 -0.0326
 1190ERGO    C213540   9.332   1.322   7.718  0.2600  0.0179  0.3699
 1191ERGO   ROH13541  16.684  10.461   7.001 -0.0220 -0.0028 -0.0301
 1191ERGO    R113542  16.723  10.435   7.281 -0.2039 -0.1275 -0.0149
 1191ERGO    R213543  16.588  10.247   7.433  0.0173 -0.4960 -0.2607
 1191ERGO    R313544  16.839  10.176   7.508  0.0984 -0.0771 -0.1080
 1191ERGO    R413545  16.669  10.086   7.728  0.1552 -0.0781 -0.0621
 1191ERGO    R513546  16.844  10.214   7.744 -0.0192  0.1819 -0.1421
 1191ERGO    C113547  16.952   9.926   7.970  0.3119  0.5585  0.1969
 1191ERGO    C213548  17.141   9.641   8.089 -0.0488  0.0759 -0.1853
 1192ERGO   ROH13549   5.275   0.611   7.191 -0.0547  0.2699 -0.1717
 1192ERGO    R113550   5.106   0.575   7.415 -0.0489  0.2610 -0.1686
 1192ERGO    R213551   5.198   0.476   7.656 -0.0713  0.1184 -0.2166
 1192ERGO    R313552   5.087   0.704   7.755  0.0496  0.1335 -0.1144
 1192ERGO    R413553   5.164   0.550   7.992 -0.0615 -0.0269 -0.1829
 1192ERGO    R513554   4.967   0.632   7.949 -0.0097  0.1069 -0.1617
 1192ERGO    C113555   5.040   0.807   8.280  0.0577 -0.0973 -0.0674
 1192ERGO    C213556   4.912   0.784   8.574 -0.0058 -0.1164 -0.1378
 1193ERGO   ROH13557  14.808  15.437   6.143  0.1224  0.0522 -0.1235
 1193ERGO    R113558  14.772  15.459   6.423  0.0870  0.1431 -0.1352
 1193ERGO    R213559  14.978  15.415   6.602  0.0544  0.1664 -0.0944
 1193ERGO    R313560  14.910  15.663   6.691  0.0805  0.2039 -0.1773
 1193ERGO    R413561  14.981  15.515   6.933 -0.1049  0.2216 -0.1083
 1193ERGO    R513562  14.795  15.624   6.897 -0.0520  0.2745 -0.2348
 1193ERGO    C113563  14.919  15.805   7.209 -0.1730  0.2889 -0.1943
 1193ERGO    C213564  15.232  15.918   7.458 -0.2880 -0.0610 -0.0232
 1194ERGO   ROH13565   4.902   4.294   6.415 -0.0736  0.0728  0.0256
 1194ERGO    R113566   5.119   4.306   6.596 -0.0021  0.1688 -0.0624
 1194ERGO    R213567   5.212   4.544   6.703 -0.1678  0.2026  0.0329
 1194ERGO    R313568   5.172   4.415   6.939  0.0410  0.0276 -0.0260
 1194ERGO    R413569   5.296   4.670   7.013 -0.1022  0.0522  0.0756
 1194ERGO    R513570   5.364   4.472   7.070  0.0609  0.0696 -0.0853
 1194ERGO    C113571   5.307   4.623   7.415  0.1322 -0.1997  0.0452
 1194ERGO    C213572   5.192   4.575   7.695  0.1649  0.2083  0.2285
 1195ERGO   ROH13573  15.358   3.914   6.677  0.1435 -0.0747 -0.0400
 1195ERGO    R113574  15.248   3.894   6.938  0.0110  0.0289 -0.0852
 1195ERGO    R213575  15.259   3.662   7.087 -0.2579  0.0168 -0.0666
 1195ERGO    R313576  15.374   3.825   7.272 -0.1915 -0.0719 -0.0309
 1195ERGO    R413577  15.273   3.598   7.426 -0.2793 -0.0535 -0.0801
 1195ERGO    R513578  15.231   3.808   7.463 -0.1911 -0.0505 -0.0351
 1195ERGO    C113579  15.388   3.714   7.798 -0.2293 -0.1778 -0.0546
 1195ERGO    C213580  15.437   3.600   8.198 -0.0903  0.1655  0.0486
 1196ERGO   ROH13581   7.277  14.029   6.454  0.0177 -0.0464  0.0156
 1196ERGO    R113582   7.336  14.069   6.728  0.0024 -0.0134  0.0138
 1196ERGO    R213583   7.179  14.227   6.892 -0.0312 -0.0297 -0.0039
 1196ERGO    R313584   7.172  14.003   7.047  0.0062 -0.0182  0.0150
 1196ERGO    R413585   7.116  14.223   7.232  0.0314 -0.0044  0.0083
 1196ERGO    R513586   7.270  14.071   7.254  0.0422  0.0030 -0.0082
 1196ERGO    C113587   7.073  14.011   7.575  0.1030  0.0212  0.0332
 1196ERGO    C213588   6.959  13.951   7.923  0.0669 -0.0500  0.1568
 1197ERGO   ROH13589   6.096  14.350   6.558  0.3552  0.0300  0.1205
 1197ERGO    R113590   6.197  14.423   6.812  0.2551  0.0355  0.1589
 1197ERGO    R213591   6.131  14.661   6.936  0.1946  0.0300  0.1338
 1197ERGO    R313592   6.059  14.497   7.140  0.1275  0.0270  0.1083
 1197ERGO    R413593   6.197  14.722   7.269  0.0630  0.0420  0.1584
 1197ERGO    R513594   6.243  14.510   7.294  0.0698  0.0438  0.1787
 1197ERGO    C113595   6.168  14.604   7.656 -0.0766  0.0460  0.1488
 1197ERGO    C213596   6.241  14.883   7.868  0.2514  0.2019 -0.3868
 1198ERGO   ROH13597   8.146   8.630   6.521  0.0539  0.0892 -0.0386
 1198ERGO    R113598   8.052   8.779   6.742  0.1484  0.0395  0.0372
 1198ERGO    R213599   7.818   8.927   6.732  0.2637  0.2334  0.0947
 1198ERGO    R313600   7.755   8.781   6.952  0.1246  0.1537  0.0025
 1198ERGO    R413601   7.638   9.044   7.003  0.4017  0.2435  0.1824
 1198ERGO    R513602   7.773   8.935   7.134  0.2966  0.0159  0.1035
 1198ERGO    C113603   7.474   8.975   7.367  0.3515  0.1746  0.1470
 1198ERGO    C213604   7.146   9.038   7.490 -0.0957 -0.2136  0.0730
 1199ERGO   ROH13605   3.151  10.302   7.142 -0.1693  0.1706 -0.0932
 1199ERGO    R113606   2.966  10.398   7.334 -0.1259  0.1212 -0.0270
 1199ERGO    R213607   2.796  10.230   7.473 -0.0080  0.0727  0.0575
 1199ERGO    R313608   2.907  10.351   7.690  0.0352  0.1332  0.0025
 1199ERGO    R413609   2.719  10.155   7.801  0.1374  0.0827  0.0947
 1199ERGO    R513610   2.727  10.368   7.847  0.0859  0.0922  0.0678
 1199ERGO    C113611   2.779  10.225   8.196  0.2627  0.1453  0.0647
 1199ERGO    C213612   2.745  10.246   8.548  0.2192  0.0603 -0.1129
 1200ERGO   ROH13613  12.779   4.272   6.556  0.0957 -0.1894  0.0387
 1200ERGO    R113614  12.554   4.284   6.728  0.0445 -0.0847 -0.0338
 1200ERGO    R213615  12.576   4.281   7.003 -0.0355  0.0322 -0.0251
 1200ERGO    R313616  12.429   4.509   6.986 -0.0033  0.0480 -0.1688
 1200ERGO    R413617  12.423   4.438   7.270  0.0587  0.2637 -0.1053
 1200ERGO    R513618  12.251   4.477   7.142  0.0278  0.1943 -0.0967
 1200ERGO    C113619  12.196   4.744   7.409  0.1439  0.4133 -0.2871
 1200ERGO    C213620  12.016   4.928   7.717  0.0736  0.0881 -0.4167
 1201ERGO   ROH13621   2.817   4.141   7.818  0.3813  0.0374 -0.1517
 1201ERGO    R113622   2.965   4.380   7.786  0.2228  0.1448 -0.1055
 1201ERGO    R213623   2.868   4.597   7.645  0.0882  0.1019 -0.0895
 1201ERGO    R313624   2.924   4.731   7.875 -0.0290  0.1056 -0.0639
 1201ERGO    R413625   2.958   4.930   7.662  0.0962  0.0965 -0.0447
 1201ERGO    R513626   3.104   4.878   7.816  0.0082  0.0945  0.0332
 1201ERGO    C113627   3.062   5.250   7.889 -0.0091  0.0967  0.0055
 1201ERGO    C213628   3.098   5.635   7.915 -0.1982 -0.0671 -0.3092
 1202ERGO   ROH13629  16.518  12.267   6.587 -0.3761 -0.0629 -0.2578
 1202ERGO    R113630  16.347  12.188   6.798 -0.1822  0.0064 -0.0716
 1202ERGO    R213631  16.419  11.996   6.984  0.0042  0.0957 -0.0507
 1202ERGO    R313632  16.357  12.191   7.162  0.1361  0.1641 -0.0782
 1202ERGO    R413633  16.476  11.979   7.324  0.0935  0.1500 -0.0625
 1202ERGO    R513634  16.283  12.074   7.357  0.1410  0.2390 -0.0297
 1202ERGO    C113635  16.452  12.153   7.689  0.2693  0.2457 -0.0952
 1202ERGO    C213636  16.464  12.191   8.041 -0.1581 -0.1173 -0.0903
 1203ERGO   ROH13637  17.679   9.295   6.864  0.1173  0.0030  0.1196
 1203ERGO    R113638  17.637   9.474   7.079  0.0309 -0.0809  0.1748
 1203ERGO    R213639  17.519   9.396   7.316  0.0513 -0.2058  0.1512
 1203ERGO    R313640  17.744   9.501   7.426  0.0048 -0.1464  0.1868
 1203ERGO    R413641  17.538   9.533   7.633 -0.0896  0.0272  0.0602
 1203ERGO    R513642  17.666   9.690   7.551 -0.0369 -0.0477  0.0094
 1203ERGO    C113643  17.761   9.712   7.920 -0.2153  0.2184  0.0407
 1203ERGO    C213644  17.874   9.810   8.204  0.1487  0.1064  0.2597
 1204ERGO   ROH13645   5.490  12.678   6.377 -0.1359  0.1662 -0.1964
 1204ERGO    R113646   5.478  12.911   6.536  0.0657  0.1215 -0.1148
 1204ERGO    R213647   5.291  12.946   6.736  0.0592  0.2355 -0.1453
 1204ERGO    R313648   5.511  12.992   6.889  0.0744 -0.0365 -0.0776
 1204ERGO    R413649   5.284  13.031   7.071  0.0547  0.2785 -0.1553
 1204ERGO    R513650   5.446  13.172   7.034  0.2572  0.0679 -0.1177
 1204ERGO    C113651   5.486  13.124   7.410  0.0663  0.0481 -0.0977
 1204ERGO    C213652   5.572  12.985   7.717 -0.0544  0.0492  0.2076
 1205ERGO   ROH13653  10.404   3.339   6.381 -0.1954 -0.0059 -0.1049
 1205ERGO    R113654  10.342   3.281   6.651  0.0714 -0.1195 -0.0659
 1205ERGO    R213655  10.521   3.322   6.857  0.1335  0.1847 -0.1856
 1205ERGO    R313656  10.318   3.468   6.963 -0.0567 -0.1640 -0.0457
 1205ERGO    R413657  10.532   3.482   7.163  0.2462  0.5336 -0.3652
 1205ERGO    R513658  10.326   3.420   7.197  0.4164  0.0867  0.0089
 1205ERGO    C113659  10.348   3.713   7.441  0.1334  0.4095 -0.3385
 1205ERGO    C213660  10.429   3.910   7.612 -0.1599 -0.0669  0.0473
 1206ERGO   ROH13661   9.278   8.420   6.567  0.0527 -0.1524 -0.2686
 1206ERGO    R113662   9.083   8.391   6.770  0.0503 -0.3143 -0.2928
 1206ERGO    R213663   9.059   8.161   6.921  0.2591 -0.3153 -0.2578
 1206ERGO    R313664   9.082   8.334   7.129  0.0551 -0.2548 -0.2836
 1206ERGO    R413665   8.941   8.102   7.240  0.1339 -0.3097 -0.3026
 1206ERGO    R513666   8.876   8.310   7.249  0.0092 -0.3453 -0.3810
 1206ERGO    C113667   8.893   8.230   7.622 -0.1304 -0.2494 -0.3530
 1206ERGO    C213668   8.856   8.264   7.899  0.1203  0.0842  0.0616
 1207ERGO   ROH13669   1.218  18.427   7.019  0.2239  0.3453  0.0249
 1207ERGO    R113670   1.071  18.590   7.197  0.3937  0.3844  0.1306
 1207ERGO    R213671   0.836  18.506   7.316  0.1494  0.6503 -0.1539
 1207ERGO    R313672   0.966  18.573   7.545  0.1144  0.1141  0.0383
 1207ERGO    R413673   0.681  18.601   7.610  0.1032  0.5952 -0.1595
 1207ERGO    R513674   0.835  18.752   7.637  0.3919  0.2677  0.1505
 1207ERGO    C113675   0.712  18.719   7.996  0.0433  0.0597  0.0177
 1207ERGO    C213676   0.508  18.517   8.064 -0.0342 -0.1600 -0.2129
 1208ERGO   ROH13677   1.524  12.739   6.263  0.2773  0.0437 -0.1008
 1208ERGO    R113678   1.561  12.641   6.526  0.1470  0.0258 -0.0888
 1208ERGO    R213679   1.350  12.593   6.697  0.0645  0.0521 -0.1844
 1208ERGO    R313680   1.463  12.346   6.714  0.0178  0.0322 -0.1436
 1208ERGO    R413681   1.333  12.386   6.974  0.0670  0.1247 -0.1294
 1208ERGO    R513682   1.541  12.332   6.940  0.0528  0.0735 -0.1514
 1208ERGO    C113683   1.429  12.035   7.151  0.0246  0.1484 -0.0592
 1208ERGO    C213684   1.399  11.970   7.493  0.2646 -0.0712 -0.1193
 1209ERGO   ROH13685   9.564   8.811   6.707 -0.1189 -0.0064 -0.0746
 1209ERGO    R113686   9.686   8.891   6.950 -0.1123 -0.0270 -0.0690
 1209ERGO    R213687   9.580   8.829   7.198 -0.1356 -0.0074 -0.0641
 1209ERGO    R313688   9.827   8.726   7.241 -0.1574 -0.0562 -0.0667
 1209ERGO    R413689   9.730   8.798   7.507 -0.1342 -0.0644 -0.0720
 1209ERGO    R513690   9.918   8.860   7.417 -0.1292 -0.0961 -0.0603
 1209ERGO    C113691  10.051   8.684   7.728 -0.1537 -0.1434 -0.0792
 1209ERGO    C213692  10.175   8.432   7.970 -0.0808  0.2372 -0.3137
 1210ERGO   ROH13693  14.473  11.928   6.738 -0.0163 -0.1282 -0.0025
 1210ERGO    R113694  14.344  12.118   6.903  0.0402 -0.0597 -0.0382
 1210ERGO    R213695  14.097  12.072   7.017  0.0221  0.0427 -0.0472
 1210ERGO    R313696  14.228  12.132   7.248  0.0252  0.0350 -0.0455
 1210ERGO    R413697  13.946  12.191   7.305 -0.0107 -0.1610  0.0219
 1210ERGO    R513698  14.115  12.326   7.332 -0.0858 -0.0633  0.0456
 1210ERGO    C113699  13.981  12.315   7.689 -0.0271 -0.2868  0.0637
 1210ERGO    C213700  13.795  12.483   7.873 -0.2300  0.4399  0.4655
 1211ERGO   ROH13701   7.669   5.905   6.356 -0.0485  0.3271  0.0293
 1211ERGO    R113702   7.805   5.976   6.594 -0.0684  0.3242  0.0414
 1211ERGO    R213703   7.692   6.139   6.787 -0.1558  0.1752  0.1168
 1211ERGO    R313704   7.753   5.931   6.951  0.0007  0.1496  0.0313
 1211ERGO    R413705   7.835   6.170   7.100 -0.3376  0.1697  0.2014
 1211ERGO    R513706   7.958   5.996   7.056 -0.1173  0.3282  0.1617
 1211ERGO    C113707   7.975   5.993   7.437 -0.2966  0.1425  0.1703
 1211ERGO    C213708   7.988   5.883   7.766 -0.1479 -0.2069 -0.0093
 1212ERGO   ROH13709   5.181  16.622   6.495 -0.0699 -0.1844 -0.1359
 1212ERGO    R113710   5.011  16.520   6.697 -0.0891  0.0428 -0.0341
 1212ERGO    R213711   5.084  16.309   6.859 -0.2936 -0.0897 -0.1140
 1212ERGO    R313712   5.023  16.483   7.059  0.1024 -0.0218 -0.0455
 1212ERGO    R413713   5.036  16.221   7.190 -0.3219 -0.0907 -0.1184
 1212ERGO    R513714   4.870  16.362   7.199 -0.0675  0.2160 -0.0168
 1212ERGO    C113715   4.952  16.333   7.570  0.0335 -0.0274 -0.0566
 1212ERGO    C213716   4.768  16.248   7.847 -0.0539 -0.2913  0.0548
 1213ERGO   ROH13717   5.129  18.097   6.679  0.0837 -0.0139 -0.1537
 1213ERGO    R113718   5.134  17.974   6.933  0.1424  0.0124 -0.1416
 1213ERGO    R213719   5.345  18.003   7.110  0.0955  0.1942 -0.1117
 1213ERGO    R313720   5.149  18.083   7.280  0.0052  0.0581 -0.1498
 1213ERGO    R413721   5.384  18.051   7.450 -0.0341  0.1313 -0.0873
 1213ERGO    R513722   5.189  17.961   7.481  0.0014  0.0301 -0.1679
 1213ERGO    C113723   5.223  18.155   7.807 -0.1944 -0.0330 -0.1089
 1213ERGO    C213724   5.277  18.142   8.251  0.1951 -0.3909  0.2917
 1214ERGO   ROH13725   4.831   5.872   6.326  0.1370 -0.1218 -0.0264
 1214ERGO    R113726   4.875   5.841   6.604  0.2120  0.1261 -0.0080
 1214ERGO    R213727   4.880   6.055   6.778 -0.1476  0.2509 -0.1386
 1214ERGO    R313728   4.692   5.910   6.910  0.1074 -0.0008 -0.0415
 1214ERGO    R413729   4.748   6.137   7.087 -0.1420  0.1057 -0.0973
 1214ERGO    R513730   4.755   5.926   7.141  0.1787  0.1197 -0.0696
 1214ERGO    C113731   4.495   6.049   7.391  0.1006 -0.2151  0.0179
 1214ERGO    C213732   4.305   6.200   7.720  0.1155 -0.3184 -0.1950
 1215ERGO   ROH13733  12.963   6.646   7.289  0.1282 -0.0552 -0.0540
 1215ERGO    R113734  12.791   6.637   7.513  0.0672 -0.0549 -0.1008
 1215ERGO    R213735  12.873   6.545   7.761 -0.0360 -0.1750 -0.1109
 1215ERGO    R313736  12.781   6.787   7.845  0.0492 -0.1623 -0.0523
 1215ERGO    R413737  12.770   6.616   8.083 -0.1726 -0.2668 -0.1334
 1215ERGO    R513738  12.607   6.733   8.000 -0.0652 -0.1395 -0.1711
 1215ERGO    C113739  12.624   6.884   8.350 -0.1721 -0.3081 -0.0916
 1215ERGO    C213740  12.460   6.917   8.616 -0.1945  0.0537  0.2682
 1216ERGO   ROH13741  17.484   7.237   7.295  0.1417  0.0961 -0.0722
 1216ERGO    R113742  17.442   7.462   7.463  0.0470  0.0301 -0.0064
 1216ERGO    R213743  17.395   7.439   7.734  0.0875 -0.0678 -0.0088
 1216ERGO    R313744  17.606   7.609   7.753  0.0039  0.0338  0.0167
 1216ERGO    R413745  17.523   7.562   8.030  0.0101 -0.0330  0.0107
 1216ERGO    R513746  17.548   7.756   7.933 -0.0793 -0.0104  0.0282
 1216ERGO    C113747  17.796   7.794   8.220 -0.1133  0.0825  0.0459
 1216ERGO    C213748  18.019   7.759   8.447 -0.0015  0.0341  0.1113
 1217ERGO   ROH13749  10.445   2.012   6.432  0.0662  0.1600  0.0642
 1217ERGO    R113750  10.360   1.914   6.684 -0.0176  0.1076  0.0160
 1217ERGO    R213751  10.475   1.694   6.804 -0.0490  0.0907  0.0145
 1217ERGO    R313752  10.509   1.866   7.012 -0.1309  0.0527  0.0599
 1217ERGO    R413753  10.521   1.599   7.134 -0.1290  0.0291  0.0082
 1217ERGO    R513754  10.391   1.764   7.194 -0.1683 -0.0009  0.0057
 1217ERGO    C113755  10.579   1.706   7.521 -0.2523 -0.0425  0.0471
 1217ERGO    C213756  10.767   1.686   7.745  0.2617 -0.3149 -0.2609
 1218ERGO   ROH13757  15.416   9.886   6.754 -0.1713  0.1810  0.0263
 1218ERGO    R113758  15.309   9.989   6.995 -0.1113  0.1289  0.0748
 1218ERGO    R213759  15.198   9.828   7.190 -0.0264  0.0851  0.0817
 1218ERGO    R313760  15.377   9.954   7.351  0.0025  0.0863  0.0505
 1218ERGO    R413761  15.189   9.828   7.536  0.1183 -0.0469  0.0879
 1218ERGO    R513762  15.246  10.038   7.532  0.0482 -0.0228  0.1388
 1218ERGO    C113763  15.351   9.948   7.888  0.2295 -0.1227  0.0621
 1218ERGO    C213764  15.284  10.083   8.244 -0.0914  0.1721  0.2806
 1219ERGO   ROH13765  17.053   1.405   7.076 -0.0150 -0.2568  0.1699
 1219ERGO    R113766  17.190   1.607   7.219 -0.0155 -0.1272 -0.0089
 1219ERGO    R213767  17.166   1.639   7.492 -0.0189  0.1193 -0.0340
 1219ERGO    R313768  17.437   1.621   7.486 -0.0192  0.1107 -0.0164
 1219ERGO    R413769  17.372   1.668   7.768 -0.0502 -0.1915  0.0263
 1219ERGO    R513770  17.511   1.784   7.646 -0.0286 -0.0666  0.1699
 1219ERGO    C113771  17.746   1.669   7.923 -0.0689 -0.3805  0.0780
 1219ERGO    C213772  17.852   1.770   8.340 -0.0751  0.1590  0.3675
 1220ERGO   ROH13773  10.681   7.921   6.817  0.1610  0.0619  0.0013
 1220ERGO    R113774  10.805   8.054   7.034  0.1928 -0.0026  0.0242
 1220ERGO    R213775  10.761   7.983   7.298  0.0439  0.0699  0.0242
 1220ERGO    R313776  11.032   7.966   7.304  0.0299 -0.1463  0.1150
 1220ERGO    R413777  10.956   8.032   7.579  0.0113  0.2311  0.0189
 1220ERGO    R513778  11.099   8.139   7.455  0.1325 -0.0285 -0.0663
 1220ERGO    C113779  11.324   8.045   7.748 -0.0208  0.1220  0.1010
 1220ERGO    C213780  11.743   8.021   7.913  0.0008  0.0040  0.1863
 1221ERGO   ROH13781  11.063   5.827   6.573 -0.1143 -0.1614 -0.1511
 1221ERGO    R113782  10.991   5.701   6.816  0.0642 -0.0918 -0.0603
 1221ERGO    R213783  11.161   5.690   7.034  0.1405  0.1733 -0.1005
 1221ERGO    R313784  10.951   5.802   7.163  0.0802  0.0650 -0.1038
 1221ERGO    R413785  11.130   5.714   7.377  0.2124  0.3322 -0.1045
 1221ERGO    R513786  10.919   5.665   7.357  0.2483  0.1425 -0.0208
 1221ERGO    C113787  10.914   5.834   7.699  0.1976  0.3231 -0.1099
 1221ERGO    C213788  10.983   5.933   8.072  0.0880  0.1164  0.1758
 1222ERGO   ROH13789   6.320   8.846   6.326  0.0512  0.0559 -0.2379
 1222ERGO    R113790   6.394   8.853   6.599  0.0032  0.0796 -0.2254
 1222ERGO    R213791   6.237   8.745   6.799 -0.0662  0.1582 -0.2354
 1222ERGO    R313792   6.465   8.610   6.860 -0.1162  0.1016 -0.1730
 1222ERGO    R413793   6.298   8.588   7.100 -0.2007  0.1025 -0.2363
 1222ERGO    R513794   6.503   8.660   7.091 -0.1841  0.0597 -0.1540
 1222ERGO    C113795   6.547   8.369   7.334 -0.3259  0.0169 -0.1784
 1222ERGO    C213796   6.480   8.170   7.590 -0.0235  0.1010 -0.0216
 1223ERGO   ROH13797   1.502   6.988   6.757  0.4026  0.2018  0.0833
 1223ERGO    R113798   1.553   6.863   7.006  0.4167  0.0912  0.0256
 1223ERGO    R213799   1.806   6.781   7.082  0.4302  0.1070 -0.0011
 1223ERGO    R313800   1.754   6.933   7.302  0.3873 -0.0105  0.0704
 1223ERGO    R413801   1.912   6.707   7.403  0.2264 -0.1559  0.0085
 1223ERGO    R513802   1.717   6.774   7.477  0.2175 -0.1104 -0.0519
 1223ERGO    C113803   1.924   6.807   7.796  0.0674 -0.4192  0.0813
 1223ERGO    C213804   2.090   6.624   7.969  0.3613  0.2551 -0.2548
 1224ERGO   ROH13805  13.794  14.742   6.381  0.1765  0.2418  0.0099
 1224ERGO    R113806  13.641  14.703   6.616  0.2097 -0.0064 -0.0062
 1224ERGO    R213807  13.750  14.724   6.869  0.1599  0.1479  0.0059
 1224ERGO    R313808  13.548  14.902   6.907 -0.1236 -0.1576 -0.0047
 1224ERGO    R413809  13.558  14.747   7.156  0.3111  0.0557  0.1156
 1224ERGO    R513810  13.383  14.780   7.030  0.1628 -0.3415  0.2064
 1224ERGO    C113811  13.257  14.928   7.358  0.1331 -0.2847  0.1696
 1224ERGO    C213812  13.259  14.923   7.688 -0.2881  0.0377 -0.0672
 1225ERGO   ROH13813  10.264   9.458   6.373 -0.0285 -0.0020 -0.1516
 1225ERGO    R113814  10.363   9.591   6.602  0.1131 -0.2367 -0.0723
 1225ERGO    R213815  10.208   9.764   6.752  0.3453 -0.0104 -0.0852
 1225ERGO    R313816  10.283   9.602   6.957 -0.0123 -0.2063 -0.1013
 1225ERGO    R413817  10.196   9.850   7.087  0.4784 -0.0420 -0.0717
 1225ERGO    R513818  10.387   9.749   7.115  0.2741 -0.4436 -0.0621
 1225ERGO    C113819  10.259   9.747   7.474  0.2200 -0.2444 -0.0791
 1225ERGO    C213820  10.313   9.931   7.742  0.2180 -0.0515 -0.0657
 1226ERGO   ROH13821  17.749   0.827   6.803 -0.2599 -0.0260  0.0639
 1226ERGO    R113822  17.586   0.714   7.005 -0.3536  0.2216  0.1301
 1226ERGO    R213823  17.686   0.549   7.202 -0.5595 -0.1507 -0.0663
 1226ERGO    R313824  17.568   0.728   7.368  0.0019  0.0330  0.1599
 1226ERGO    R413825  17.650   0.508   7.543 -0.4523 -0.3434 -0.0767
 1226ERGO    R513826  17.450   0.593   7.527 -0.2555  0.1964  0.1140
 1226ERGO    C113827  17.517   0.652   7.898  0.1371 -0.2831  0.1294
 1226ERGO    C213828  17.625   0.568   8.219  0.1657 -0.1456  0.3018
 1227ERGO   ROH13829  16.389   2.911   6.851 -0.2758 -0.0857 -0.0708
 1227ERGO    R113830  16.348   2.820   7.116 -0.2141 -0.1950 -0.0986
 1227ERGO    R213831  16.547   2.699   7.265 -0.1219 -0.0745 -0.1252
 1227ERGO    R313832  16.484   2.893   7.445 -0.2889 -0.1757 -0.0713
 1227ERGO    R413833  16.686   2.727   7.579 -0.1935 -0.0786 -0.0923
 1227ERGO    R513834  16.489   2.780   7.657 -0.2453 -0.2425 -0.1067
 1227ERGO    C113835  16.709   2.926   7.932 -0.3921 -0.1760 -0.0225
 1227ERGO    C213836  16.636   3.089   8.135  0.0618  0.2583  0.2485
 1228ERGO   ROH13837   4.355   9.350   6.570  0.0804 -0.1522  0.0290
 1228ERGO    R113838   4.343   9.349   6.853  0.0272 -0.1080  0.0278
 1228ERGO    R213839   4.172   9.185   6.994 -0.0387 -0.0500  0.0226
 1228ERGO    R313840   4.400   9.109   7.120 -0.0784 -0.0833  0.0724
 1228ERGO    R413841   4.183   9.028   7.302 -0.1244 -0.0202  0.0403
 1228ERGO    R513842   4.356   9.152   7.352 -0.1104 -0.0517  0.0586
 1228ERGO    C113843   4.404   8.865   7.599 -0.2116 -0.0340  0.0973
 1228ERGO    C213844   4.572   8.562   7.772 -0.0283  0.1972 -0.2062
 1229ERGO   ROH13845   3.644   0.748   6.708  0.2757 -0.1542  0.0016
 1229ERGO    R113846   3.809   0.755   6.937  0.2196  0.0155  0.0389
 1229ERGO    R213847   3.858   0.987   7.078  0.0179  0.0835  0.0034
 1229ERGO    R313848   3.770   0.839   7.289  0.0765  0.0618  0.0121
 1229ERGO    R413849   3.864   1.090   7.408 -0.0009  0.0944  0.0000
 1229ERGO    R513850   3.925   0.888   7.465  0.0673  0.1173  0.0032
 1229ERGO    C113851   3.786   1.011   7.798  0.0432  0.0803  0.0062
 1229ERGO    C213852   3.704   1.070   8.142  0.1182 -0.2076  0.0761
 1230ERGO   ROH13853   8.937  14.287   6.239 -0.0662  0.0299 -0.0657
 1230ERGO    R113854   8.775  14.215   6.459 -0.0823 -0.1915 -0.1477
 1230ERGO    R213855   8.809  13.979   6.599  0.4522  0.0342  0.1293
 1230ERGO    R313856   8.824  14.145   6.813 -0.2119  0.3205 -0.0200
 1230ERGO    R413857   8.681  13.909   6.912  0.5326 -0.1077  0.1318
 1230ERGO    R513858   8.615  14.117   6.925 -0.1927 -0.2909 -0.1005
 1230ERGO    C113859   8.620  14.026   7.295 -0.0441  0.0781 -0.0069
 1230ERGO    C213860   8.683  13.854   7.573  0.0582 -0.0186 -0.0172
 1231ERGO   ROH13861   0.022  14.590   6.425 -0.1785  0.2173 -0.0344
 1231ERGO    R113862  -0.011  14.426   6.654 -0.0841  0.0717 -0.1221
 1231ERGO    R213863  -0.070  14.530   6.904  0.0029 -0.0864 -0.0308
 1231ERGO    R313864  -0.278  14.355   6.891  0.0074 -0.0877 -0.0664
 1231ERGO    R413865  -0.256  14.421   7.174 -0.1060 -0.0190 -0.0783
 1231ERGO    R513866  -0.258  14.222   7.087 -0.0733 -0.0380 -0.0267
 1231ERGO    C113867  -0.559  14.193   7.319 -0.1650  0.0189 -0.1392
 1231ERGO    C213868  -0.686  13.888   7.492 -0.1316 -0.0632  0.0269
 1232ERGO   ROH13869  17.974  17.605   7.045 -0.0636  0.1150 -0.0478
 1232ERGO    R113870  17.842  17.707   7.274 -0.3199 -0.0481 -0.1156
 1232ERGO    R213871  17.605  17.602   7.369 -0.0618 -0.6099 -0.0187
 1232ERGO    R313872  17.744  17.581   7.601  0.0368 -0.0744 -0.0174
 1232ERGO    R413873  17.466  17.528   7.676  0.1696 -0.5712  0.0957
 1232ERGO    R513874  17.599  17.675   7.766 -0.1155 -0.1988 -0.0890
 1232ERGO    C113875  17.516  17.465   8.074  0.3968 -0.0456  0.1635
 1232ERGO    C213876  17.394  17.263   8.360  0.1097  0.2245 -0.3291
 1233ERGO   ROH13877   0.838  10.394   6.672 -0.1065 -0.1728  0.0943
 1233ERGO    R113878   0.821  10.535   6.917 -0.0821 -0.1911  0.1062
 1233ERGO    R213879   0.600  10.686   6.987 -0.0212 -0.0911  0.0814
 1233ERGO    R313880   0.606  10.530   7.210 -0.1378 -0.1178  0.0670
 1233ERGO    R413881   0.594  10.805   7.311  0.4438 -0.0904  0.0971
 1233ERGO    R513882   0.741  10.653   7.365  0.2116 -0.3690 -0.0246
 1233ERGO    C113883   0.596  10.728   7.710  0.6051 -0.1149  0.0927
 1233ERGO    C213884   0.621  10.759   8.183  0.0241 -0.2185  0.1026
 1234ERGO   ROH13885   3.846   9.145   6.612  0.3815  0.0477 -0.0408
 1234ERGO    R113886   3.685   9.085   6.838  0.2669  0.0198 -0.1288
 1234ERGO    R213887   3.780   8.940   7.053  0.1675  0.0225 -0.0844
 1234ERGO    R313888   3.694   9.156   7.194  0.0662  0.0057 -0.1195
 1234ERGO    R413889   3.693   8.936   7.388  0.0867  0.0122 -0.1054
 1234ERGO    R513890   3.526   9.068   7.342  0.0555 -0.0400 -0.1557
 1234ERGO    C113891   3.562   9.137   7.715 -0.0554 -0.0095 -0.1506
 1234ERGO    C213892   3.686   9.101   8.079 -0.0061 -0.0266  0.2138
 1235ERGO   ROH13893  11.924   9.036   6.838  0.0790  0.0656  0.2437
 1235ERGO    R113894  12.003   8.999   7.107  0.2082 -0.1657  0.1768
 1235ERGO    R213895  11.824   9.012   7.318  0.3723  0.0712  0.3078
 1235ERGO    R313896  11.925   8.766   7.376 -0.0075 -0.1315  0.1452
 1235ERGO    R413897  11.853   8.881   7.636  0.3412 -0.1154  0.2349
 1235ERGO    R513898  12.047   8.799   7.579  0.1723 -0.4243  0.0878
 1235ERGO    C113899  11.964   8.573   7.876 -0.0333 -0.4142  0.0398
 1235ERGO    C213900  11.714   8.510   8.108 -0.2504  0.2864 -0.0136
 1236ERGO   ROH13901  15.347   2.901   6.476  0.2443 -0.2590 -0.0538
 1236ERGO    R113902  15.390   2.874   6.754  0.1929 -0.1272 -0.0323
 1236ERGO    R213903  15.413   3.091   6.922  0.0337 -0.0488 -0.1103
 1236ERGO    R313904  15.215   2.966   7.060  0.0694 -0.1043 -0.1092
 1236ERGO    R413905  15.334   3.152   7.254 -0.0079 -0.0408 -0.1216
 1236ERGO    R513906  15.305   2.937   7.280  0.0664 -0.0487 -0.1005
 1236ERGO    C113907  15.103   3.069   7.575  0.0014 -0.0882 -0.1272
 1236ERGO    C213908  15.189   3.266   7.807 -0.0139  0.0846  0.1558
 1237ERGO   ROH13909   3.472  14.554   6.475  0.2321 -0.1474  0.1089
 1237ERGO    R113910   3.236  14.511   6.625  0.1672 -0.0945  0.0214
 1237ERGO    R213911   3.237  14.389   6.872  0.0505 -0.0782  0.0260
 1237ERGO    R313912   3.106  14.615   6.948  0.0595 -0.0519 -0.0335
 1237ERGO    R413913   3.026  14.411   7.145 -0.1098 -0.0619 -0.0980
 1237ERGO    R513914   2.892  14.536   7.024 -0.0094 -0.0139 -0.1714
 1237ERGO    C113915   2.779  14.635   7.375 -0.1947 -0.0275 -0.2259
 1237ERGO    C213916   2.540  14.550   7.628 -0.0155  0.0770  0.1679
 1238ERGO   ROH13917   7.489   4.313   6.264 -0.2213 -0.1868  0.1035
 1238ERGO    R113918   7.659   4.173   6.442 -0.0359  0.1189  0.1753
 1238ERGO    R213919   7.700   4.254   6.704 -0.3974  0.1270  0.2383
 1238ERGO    R313920   7.623   3.999   6.760  0.1094 -0.0697  0.0895
 1238ERGO    R413921   7.709   4.110   7.018 -0.2953  0.0215  0.1871
 1238ERGO    R513922   7.780   3.926   6.926  0.1640  0.2015  0.1601
 1238ERGO    C113923   7.642   3.788   7.254  0.2400 -0.2246  0.0176
 1238ERGO    C213924   7.632   3.669   7.630  0.0737  0.1348 -0.0809
 1239ERGO   ROH13925   0.062   1.703   7.208  0.2234 -0.2368 -0.1041
 1239ERGO    R113926  -0.074   1.670   7.455  0.2119 -0.3215 -0.1208
 1239ERGO    R213927   0.055   1.591   7.686  0.2515 -0.1514 -0.0815
 1239ERGO    R313928  -0.057   1.817   7.787  0.0124 -0.2383 -0.1464
 1239ERGO    R413929   0.003   1.653   8.022  0.3379 -0.0414 -0.0882
 1239ERGO    R513930  -0.189   1.741   7.971  0.1986 -0.3122 -0.0417
 1239ERGO    C113931  -0.132   1.901   8.312  0.1637 -0.0589 -0.1531
 1239ERGO    C213932  -0.144   1.884   8.590  0.0452 -0.0338 -0.1615
 1240ERGO   ROH13933  15.598   0.410   6.383 -0.2843 -0.1236 -0.0028
 1240ERGO    R113934  15.550   0.449   6.659 -0.2744 -0.0017 -0.0166
 1240ERGO    R213935  15.315   0.556   6.756 -0.3706 -0.1772 -0.0420
 1240ERGO    R313936  15.310   0.329   6.905 -0.1135 -0.0953  0.0959
 1240ERGO    R413937  15.081   0.487   7.000 -0.2105 -0.2371  0.0952
 1240ERGO    R513938  15.241   0.404   7.123 -0.0874 -0.0269  0.0793
 1240ERGO    C113939  14.939   0.235   7.284  0.1242 -0.1951  0.3044
 1240ERGO    C213940  14.665   0.173   7.568 -0.0302  0.0497 -0.1306
 1241ERGO   ROH13941   3.916   6.368   6.573  0.3003  0.0687 -0.1725
 1241ERGO    R113942   3.829   6.585   6.734  0.1601  0.0073 -0.1602
 1241ERGO    R213943   3.778   6.558   7.004 -0.0209 -0.0853 -0.1893
 1241ERGO    R313944   3.954   6.764   7.025 -0.0550 -0.0744 -0.0201
 1241ERGO    R413945   3.780   6.792   7.259 -0.1309 -0.1917 -0.0912
 1241ERGO    R513946   3.824   6.945   7.111 -0.0910 -0.1278  0.0084
 1241ERGO    C113947   3.947   7.121   7.426 -0.2270 -0.2434  0.1248
 1241ERGO    C213948   4.077   7.202   7.759 -0.2457 -0.0742  0.1411
 1242ERGO   ROH13949  11.576  10.594   6.541 -0.0107  0.1040 -0.0199
 1242ERGO    R113950  11.577  10.499   6.807 -0.0475 -0.0056 -0.0583
 1242ERGO    R213951  11.780  10.557   6.985 -0.0264 -0.1537 -0.0324
 1242ERGO    R313952  11.576  10.645   7.141  0.0055 -0.1406  0.0020
 1242ERGO    R413953  11.776  10.546   7.330 -0.0236 -0.2724 -0.0356
 1242ERGO    R513954  11.566  10.488   7.321 -0.0428 -0.2004 -0.0523
 1242ERGO    C113955  11.581  10.623   7.678  0.0079 -0.3291 -0.0053
 1242ERGO    C213956  11.462  10.735   8.072 -0.0454 -0.2606 -0.0703
 1243ERGO   ROH13957  14.937  11.340   6.816  0.0740  0.0262  0.0297
 1243ERGO    R113958  15.080  11.385   7.056  0.0748 -0.2074  0.0769
 1243ERGO    R213959  15.046  11.613   7.209  0.5045 -0.0671 -0.0129
 1243ERGO    R313960  14.999  11.433   7.408  0.0171  0.0890  0.0235
 1243ERGO    R413961  15.131  11.660   7.540  0.2783 -0.0891  0.0492
 1243ERGO    R513962  15.192  11.450   7.549 -0.0848 -0.1880  0.1944
 1243ERGO    C113963  15.136  11.519   7.920 -0.3109  0.0445  0.1195
 1243ERGO    C213964  15.231  11.701   8.184 -0.0023  0.1477  0.0561
 1244ERGO   ROH13965  16.503   3.782   6.749 -0.2136 -0.0813  0.0233
 1244ERGO    R113966  16.485   4.027   6.889 -0.0491 -0.0884  0.0579
 1244ERGO    R213967  16.324   4.235   6.805  0.0901  0.0307  0.0878
 1244ERGO    R313968  16.224   4.217   7.057  0.0779  0.0642  0.0859
 1244ERGO    R413969  16.082   4.444   6.936 -0.0131 -0.0340  0.0026
 1244ERGO    R513970  16.192   4.444   7.124 -0.0275  0.0728  0.0126
 1244ERGO    C113971  15.846   4.548   7.249 -0.0847 -0.0402 -0.0488
 1244ERGO    C213972  15.669   4.683   7.188  0.2425 -0.1549 -0.0712
 1245ERGO   ROH13973   8.854  11.047   6.246  0.0762 -0.0598 -0.0021
 1245ERGO    R113974   8.662  10.955   6.433 -0.0034 -0.0352 -0.0729
 1245ERGO    R213975   8.722  10.912   6.699 -0.0766 -0.1562 -0.0820
 1245ERGO    R313976   8.512  11.079   6.740 -0.0097 -0.0755 -0.0572
 1245ERGO    R413977   8.539  10.930   6.991 -0.1795 -0.2711 -0.1377
 1245ERGO    R513978   8.358  10.950   6.871 -0.1276 -0.0977 -0.2045
 1245ERGO    C113979   8.234  11.098   7.200 -0.1770 -0.2623 -0.1469
 1245ERGO    C213980   7.988  11.175   7.463 -0.2583  0.0172 -0.1113
 1246ERGO   ROH13981   0.896  16.030   6.558  0.1496 -0.1350  0.0681
 1246ERGO    R113982   0.835  16.013   6.834 -0.0478 -0.0732  0.0299
 1246ERGO    R213983   1.019  16.072   7.030 -0.1611 -0.1150  0.1494
 1246ERGO    R313984   0.825  16.242   7.117 -0.1579 -0.0297 -0.0082
 1246ERGO    R413985   0.960  16.152   7.362 -0.2706  0.0551  0.0900
 1246ERGO    R513986   0.746  16.143   7.320 -0.2585  0.0834  0.0103
 1246ERGO    C113987   0.743  16.358   7.635 -0.3313  0.2343 -0.0925
 1246ERGO    C213988   0.787  16.492   7.994  0.1504  0.0120 -0.1602
 1247ERGO   ROH13989  14.198  10.221   6.858 -0.0255 -0.0057  0.0026
 1247ERGO    R113990  14.138  10.220   7.134 -0.1971 -0.4100 -0.0284
 1247ERGO    R213991  14.143   9.990   7.287  0.6805 -0.5140 -0.1619
 1247ERGO    R313992  14.312  10.136   7.442  0.0078  0.1389  0.0177
 1247ERGO    R413993  14.188   9.945   7.627  0.6113 -0.4495 -0.1440
 1247ERGO    R513994  14.196  10.161   7.650 -0.2723 -0.3914 -0.0566
 1247ERGO    C113995  14.373  10.055   7.970 -0.0604  0.2010  0.0349
 1247ERGO    C213996  14.401  10.181   8.320  0.0195 -0.1627  0.0327
 1248ERGO   ROH13997   5.814   0.449   7.147 -0.1003  0.1731 -0.0135
 1248ERGO    R113998   5.826   0.548   7.412 -0.0482 -0.0142  0.0556
 1248ERGO    R213999   5.607   0.660   7.539  0.0351  0.1015  0.0979
 1248ERGO    R314000   5.662   0.474   7.728 -0.1623 -0.0779 -0.0176
 1248ERGO    R414001   5.547   0.697   7.877  0.3390  0.0800  0.1567
 1248ERGO    R514002   5.737   0.599   7.917  0.2006 -0.2808 -0.0165
 1248ERGO    C114003   5.563   0.543   8.252  0.3306 -0.1010  0.0825
 1248ERGO    C214004   5.292   0.420   8.509 -0.3722 -0.1719  0.2601
 1249ERGO   ROH14005   5.725   1.618   6.737 -0.1012 -0.0918  0.0214
 1249ERGO    R114006   5.735   1.519   7.002 -0.1096 -0.0499  0.0363
 1249ERGO    R214007   5.898   1.628   7.195 -0.0672 -0.0657  0.0009
 1249ERGO    R314008   5.666   1.647   7.336 -0.0482  0.0223  0.0235
 1249ERGO    R414009   5.872   1.588   7.538 -0.0326 -0.0221  0.0095
 1249ERGO    R514010   5.686   1.478   7.505 -0.0762  0.0288  0.0401
 1249ERGO    C114011   5.638   1.582   7.869  0.0054  0.0859  0.0359
 1249ERGO    C214012   5.684   1.834   8.080  0.0178  0.1165 -0.1435
 1250ERGO   ROH14013   2.292   0.438   7.218 -0.0079 -0.1582 -0.1733
 1250ERGO    R114014   2.512   0.412   7.394 -0.0327 -0.1049 -0.1355
 1250ERGO    R214015   2.519   0.535   7.641 -0.1099 -0.1108 -0.1332
 1250ERGO    R314016   2.568   0.283   7.730 -0.0560 -0.1000 -0.1290
 1250ERGO    R414017   2.574   0.449   7.972 -0.3037 -0.1215 -0.1023
 1250ERGO    R514018   2.729   0.311   7.905 -0.1904 -0.0437 -0.0101
 1250ERGO    C114019   2.651   0.161   8.247 -0.3660 -0.1176 -0.0803
 1250ERGO    C214020   2.564  -0.113   8.507  0.3375  0.3399  0.1825
 1251ERGO   ROH14021   3.587  10.386   7.342 -0.0090  0.1747 -0.0984
 1251ERGO    R114022   3.393  10.335   7.543  0.0064  0.1632 -0.0866
 1251ERGO    R214023   3.398  10.108   7.700 -0.0443  0.1012 -0.1739
 1251ERGO    R314024   3.393  10.288   7.903  0.0494  0.0261 -0.1044
 1251ERGO    R414025   3.283  10.042   8.019  0.1473 -0.0274 -0.1296
 1251ERGO    R514026   3.191  10.239   8.021  0.1236 -0.0407 -0.0044
 1251ERGO    C114027   3.212  10.173   8.396  0.3469 -0.1729 -0.0386
 1251ERGO    C214028   3.217  10.082   8.767  0.0690 -0.3865 -0.1786
 1252ERGO   ROH14029  10.652  11.609   6.458  0.1769 -0.2583  0.0645
 1252ERGO    R114030  10.498  11.633   6.695  0.1399 -0.1816  0.0331
 1252ERGO    R214031  10.596  11.562   6.944  0.1004 -0.1025  0.0715
 1252ERGO    R314032  10.521  11.816   7.009  0.0915 -0.0813 -0.0214
 1252ERGO    R414033  10.516  11.669   7.263  0.1404  0.0221  0.0402
 1252ERGO    R514034  10.354  11.787   7.177  0.1189 -0.0249  0.0157
 1252ERGO    C114035  10.400  11.970   7.509  0.1554  0.1147 -0.0653
 1252ERGO    C214036  10.266  11.875   7.770  0.0494 -0.1164  0.2319
 1253ERGO   ROH14037   2.145  17.872   7.740  0.0374  0.0694 -0.0288
 1253ERGO    R114038   1.957  17.929   7.944  0.0297  0.2103 -0.0746
 1253ERGO    R214039   1.829  18.173   7.964 -0.2057  0.1231 -0.4376
 1253ERGO    R314040   1.605  18.019   7.961 -0.0589 -0.1082 -0.1419
 1253ERGO    R414041   1.583  18.177   8.206 -0.1398  0.2543 -0.3716
 1253ERGO    R514042   1.569  17.960   8.190  0.0670  0.2074 -0.0346
 1253ERGO    C114043   1.229  18.035   8.344  0.0364  0.1135 -0.0556
 1253ERGO    C214044   0.906  17.892   8.396 -0.1914 -0.0545 -0.1745
 1254ERGO   ROH14045   2.862   8.341   7.103 -0.2176 -0.0205 -0.1568
 1254ERGO    R114046   2.967   8.396   7.360 -0.0918  0.0414 -0.2207
 1254ERGO    R214047   2.894   8.251   7.584 -0.0475  0.1508 -0.1366
 1254ERGO    R314048   3.162   8.216   7.609 -0.0479  0.0700 -0.2340
 1254ERGO    R414049   3.058   8.194   7.883  0.0155 -0.1444 -0.2241
 1254ERGO    R514050   3.217   8.326   7.815  0.0275 -0.1185 -0.1497
 1254ERGO    C114051   3.406   8.128   8.080  0.0519 -0.3922 -0.3665
 1254ERGO    C214052   3.418   7.873   8.346  0.3218 -0.1528  0.1212
 1255ERGO   ROH14053   6.786   8.647   6.353 -0.4543 -0.0328  0.0408
 1255ERGO    R114054   6.778   8.453   6.560 -0.1750 -0.1311 -0.0350
 1255ERGO    R214055   7.001   8.308   6.637  0.0541  0.1832 -0.0756
 1255ERGO    R314056   6.938   8.405   6.883 -0.1258 -0.0023 -0.0376
 1255ERGO    R414057   7.023   8.128   6.931  0.0946  0.0414 -0.1651
 1255ERGO    R514058   6.835   8.219   6.995 -0.0140 -0.1538 -0.1801
 1255ERGO    C114059   6.976   8.113   7.333 -0.0506 -0.2153 -0.1814
 1255ERGO    C214060   7.032   8.173   7.629 -0.1602 -0.1065  0.1275
 1256ERGO   ROH14061  16.698   6.451   7.032 -0.0216 -0.2646 -0.1077
 1256ERGO    R114062  16.673   6.236   7.215 -0.0791 -0.2036 -0.0425
 1256ERGO    R214063  16.613   6.275   7.482  0.1251 -0.0922 -0.0079
 1256ERGO    R314064  16.412   6.100   7.428 -0.0552  0.0611  0.1592
 1256ERGO    R414065  16.451   6.082   7.718  0.2442 -0.0493  0.1094
 1256ERGO    R514066  16.451   5.916   7.577 -0.0233 -0.0086  0.0612
 1256ERGO    C114067  16.167   5.806   7.806  0.1442  0.1196  0.3345
 1256ERGO    C214068  15.895   5.692   8.016 -0.2181  0.1363  0.2703
 1257ERGO   ROH14069  16.446  14.570   6.553  0.0998 -0.0607 -0.0273
 1257ERGO    R114070  16.629  14.669   6.746  0.0506 -0.0819  0.0290
 1257ERGO    R214071  16.800  14.880   6.695  0.1352 -0.1509  0.0597
 1257ERGO    R314072  16.686  14.984   6.919  0.0826 -0.0670 -0.0042
 1257ERGO    R414073  16.960  15.091   6.916  0.0687  0.0070 -0.0401
 1257ERGO    R514074  16.863  14.984   7.080  0.0775  0.0596  0.0117
 1257ERGO    C114075  16.946  15.312   7.256 -0.0195  0.1776 -0.1583
 1257ERGO    C214076  17.048  15.399   7.506  0.2654 -0.1317  0.1863
 1258ERGO   ROH14077   4.481  12.800   6.201 -0.2621 -0.0459 -0.0982
 1258ERGO    R114078   4.371  12.772   6.460 -0.1158  0.1117 -0.0168
 1258ERGO    R214079   4.305  12.526   6.568 -0.2483  0.1906  0.0898
 1258ERGO    R314080   4.466  12.608   6.771 -0.0435  0.1139 -0.0385
 1258ERGO    R414081   4.235  12.485   6.904  0.1188  0.0218  0.1502
 1258ERGO    R514082   4.314  12.685   6.940  0.1274  0.0123  0.1627
 1258ERGO    C114083   4.346  12.537   7.290  0.5248 -0.1484  0.0648
 1258ERGO    C214084   4.288  12.468   7.609  0.3244 -0.0446  0.1500
 1259ERGO   ROH14085  13.935  15.767   5.988 -0.1632 -0.0849  0.0248
 1259ERGO    R114086  13.864  15.911   6.222 -0.1866 -0.1456  0.0543
 1259ERGO    R214087  13.809  15.787   6.462  0.0305 -0.1923  0.0783
 1259ERGO    R314088  14.000  15.957   6.556 -0.0770 -0.0212 -0.0056
 1259ERGO    R414089  13.826  15.904   6.787  0.0636 -0.1723  0.0703
 1259ERGO    R514090  13.882  16.100   6.708 -0.1415 -0.1214  0.0418
 1259ERGO    C114091  14.014  16.132   7.064 -0.0181 -0.0002 -0.0131
 1259ERGO    C214092  13.991  16.227   7.464  0.1713 -0.0662  0.4085
 1260ERGO   ROH14093  17.292   3.848   7.087  0.0081 -0.0961  0.0437
 1260ERGO    R114094  17.205   3.751   7.339  0.1918 -0.1971  0.0703
 1260ERGO    R214095  17.380   3.694   7.544  0.3058  0.2706  0.1184
 1260ERGO    R314096  17.220   3.862   7.685 -0.0958 -0.0226  0.0289
 1260ERGO    R414097  17.323   3.672   7.884  0.3344  0.3020  0.1248
 1260ERGO    R514098  17.113   3.720   7.847  0.2164 -0.1956  0.0884
 1260ERGO    C114099  17.139   3.817   8.215 -0.0260  0.0450  0.0446
 1260ERGO    C214100  17.230   3.750   8.644  0.1327 -0.1681 -0.0166
 1261ERGO   ROH14101   0.434   0.105   7.104 -0.0083 -0.1545  0.0397
 1261ERGO    R114102   0.258   0.121   7.325  0.0671 -0.0912  0.0954
 1261ERGO    R214103   0.102  -0.091   7.407 -0.0998  0.0110  0.0463
 1261ERGO    R314104   0.221  -0.044   7.647  0.0099 -0.1966  0.0356
 1261ERGO    R414105  -0.047  -0.141   7.715 -0.0896  0.0858  0.0637
 1261ERGO    R514106   0.046   0.044   7.784  0.1372 -0.0373  0.1012
 1261ERGO    C114107  -0.023  -0.125   8.119  0.0191 -0.0654  0.0638
 1261ERGO    C214108  -0.095  -0.323   8.292  0.3075 -0.0064 -0.2601
 1262ERGO   ROH14109  11.587  13.369   6.588  0.2299  0.0436 -0.1615
 1262ERGO    R114110  11.512  13.373   6.861  0.1623  0.0302 -0.1792
 1262ERGO    R214111  11.373  13.166   6.980 -0.0530  0.1149 -0.2734
 1262ERGO    R314112  11.580  13.172   7.156 -0.0900 -0.1174 -0.2198
 1262ERGO    R414113  11.350  13.084   7.315 -0.2056  0.0501 -0.2993
 1262ERGO    R514114  11.483  13.250   7.360 -0.0664 -0.0820 -0.2244
 1262ERGO    C114115  11.531  13.040   7.675 -0.3292 -0.2056 -0.2642
 1262ERGO    C214116  11.419  12.881   7.953 -0.3303 -0.0907  0.1428
 1263ERGO   ROH14117  17.000  18.250   7.283  0.0037  0.0847 -0.0347
 1263ERGO    R114118  16.769  18.266   7.446  0.1073  0.1533  0.1098
 1263ERGO    R214119  16.618  18.044   7.515 -0.0321  0.2176  0.0343
 1263ERGO    R314120  16.662  18.135   7.767  0.1902  0.0043  0.0763
 1263ERGO    R414121  16.397  18.015   7.779  0.0336  0.3554  0.1051
 1263ERGO    R514122  16.449  18.216   7.840  0.3277  0.2468  0.2114
 1263ERGO    C114123  16.308  18.084   8.169  0.2806  0.2355  0.1856
 1263ERGO    C214124  16.044  18.101   8.460  0.0954 -0.0062 -0.1662
 1264ERGO   ROH14125   5.611  11.179   6.454 -0.1872  0.0893  0.1321
 1264ERGO    R114126   5.718  11.150   6.714 -0.0154  0.1117  0.0655
 1264ERGO    R214127   5.849  11.354   6.845 -0.0654  0.1720  0.0220
 1264ERGO    R314128   5.667  11.303   7.040  0.0795  0.0255  0.1217
 1264ERGO    R414129   5.783  11.563   7.112 -0.1609  0.1695  0.0007
 1264ERGO    R514130   5.769  11.387   7.240  0.0873  0.1845  0.0524
 1264ERGO    C114131   5.573  11.637   7.451 -0.0805  0.0304  0.0818
 1264ERGO    C214132   5.630  11.802   7.773  0.1356  0.2257 -0.2421
 1265ERGO   ROH14133  17.764  12.156   6.778  0.2066 -0.1322 -0.0584
 1265ERGO    R114134  17.862  12.315   6.991  0.0881 -0.1275 -0.0072
 1265ERGO    R214135  17.774  12.285   7.252  0.0770 -0.2472 -0.0261
 1265ERGO    R314136  18.039  12.257   7.304  0.0890 -0.1003 -0.0024
 1265ERGO    R414137  17.912  12.261   7.568  0.0403 -0.3624 -0.0180
 1265ERGO    R514138  18.075  12.388   7.501 -0.0340 -0.2041  0.0921
 1265ERGO    C114139  18.241  12.220   7.801  0.0304 -0.2917  0.0091
 1265ERGO    C214140  18.241  12.169   8.174 -0.0564  0.1885 -0.2567
 1266ERGO   ROH14141   1.388  13.292   6.396  0.1057 -0.2182 -0.0968
 1266ERGO    R114142   1.492  13.077   6.548  0.2340 -0.0708  0.0293
 1266ERGO    R214143   1.650  13.115   6.771  0.0432  0.1569  0.1335
 1266ERGO    R314144   1.463  12.957   6.890  0.1251 -0.0115  0.0407
 1266ERGO    R414145   1.649  13.028   7.106 -0.1157  0.2578  0.1600
 1266ERGO    R514146   1.588  12.827   7.048  0.1482  0.1727  0.1741
 1266ERGO    C114147   1.474  12.829   7.412 -0.1314  0.1583  0.0883
 1266ERGO    C214148   1.506  12.990   7.802 -0.1754  0.1521  0.2401
 1267ERGO   ROH14149   4.255  15.318   6.521 -0.2933  0.0748 -0.0831
 1267ERGO    R114150   4.366  15.099   6.662 -0.2073  0.0612 -0.1716
 1267ERGO    R214151   4.382  15.092   6.938 -0.1081  0.0021 -0.1782
 1267ERGO    R314152   4.250  14.856   6.906 -0.0813 -0.0125 -0.1845
 1267ERGO    R414153   4.418  14.816   7.143 -0.3332  0.1144  0.0185
 1267ERGO    R514154   4.411  14.689   6.966 -0.1478  0.0142  0.0813
 1267ERGO    C114155   4.316  14.434   7.232 -0.4392  0.1659  0.1272
 1267ERGO    C214156   4.403  14.184   7.380  0.2316 -0.0968 -0.2385
 1268ERGO   ROH14157   6.088   0.041   7.160 -0.0466  0.3066 -0.0276
 1268ERGO    R114158   6.283  -0.053   7.342 -0.0721  0.1978 -0.0558
 1268ERGO    R214159   6.538   0.052   7.355 -0.0381  0.1133 -0.0344
 1268ERGO    R314160   6.477   0.085   7.618 -0.0211  0.0658 -0.0244
 1268ERGO    R414161   6.766   0.037   7.614 -0.0193  0.0727 -0.0532
 1268ERGO    R514162   6.618  -0.071   7.732 -0.0093  0.0485 -0.0619
 1268ERGO    C114163   6.841   0.059   8.012  0.0076  0.0044 -0.0548
 1268ERGO    C214164   7.114  -0.032   8.252 -0.0865  0.2164 -0.1433
 1269ERGO   ROH14165  14.731  11.008   6.640 -0.2125 -0.1382  0.0726
 1269ERGO    R114166  14.653  10.983   6.911 -0.0413 -0.1111  0.1249
 1269ERGO    R214167  14.830  10.913   7.111  0.1335  0.1187  0.0531
 1269ERGO    R314168  14.741  11.142   7.226 -0.0077  0.0817  0.0207
 1269ERGO    R414169  14.830  10.975   7.451  0.0432  0.1446  0.0491
 1269ERGO    R514170  14.634  11.069   7.428 -0.0041  0.0401  0.0086
 1269ERGO    C114171  14.746  11.226   7.757 -0.1420  0.1249  0.0165
 1269ERGO    C214172  14.827  11.162   8.160  0.0830 -0.2147 -0.0872
 1270ERGO   ROH14173  13.908   6.458   7.502 -0.3274  0.2781  0.2135
 1270ERGO    R114174  14.121   6.492   7.685 -0.2662  0.5190  0.0974
 1270ERGO    R214175  14.164   6.729   7.820 -0.6844  0.4561  0.3386
 1270ERGO    R314176  14.156   6.568   8.039 -0.1766  0.1742  0.1679
 1270ERGO    R414177  14.323   6.794   8.120 -0.6450  0.4953  0.3116
 1270ERGO    R514178  14.376   6.583   8.132 -0.1375  0.5836  0.0422
 1270ERGO    C114179  14.408   6.680   8.500 -0.1453  0.2534  0.1356
 1270ERGO    C214180  14.501   6.592   8.885 -0.1451  0.0293 -0.1727
 1271ERGO   ROH14181  15.026   4.695   6.896  0.0018 -0.1896 -0.1135
 1271ERGO    R114182  15.074   4.816   7.147  0.1082 -0.0982 -0.1771
 1271ERGO    R214183  14.948   4.734   7.379  0.0172  0.1483 -0.1359
 1271ERGO    R314184  15.202   4.711   7.471 -0.0063 -0.0478 -0.1148
 1271ERGO    R414185  15.035   4.705   7.712 -0.0232  0.2557 -0.1154
 1271ERGO    R514186  15.203   4.838   7.674  0.1103  0.0706 -0.1879
 1271ERGO    C114187  15.325   4.666   7.993 -0.0686  0.1342 -0.0837
 1271ERGO    C214188  15.435   4.473   8.163  0.0071 -0.0037 -0.1724
 1272ERGO   ROH14189  13.733  11.185   6.523 -0.1001 -0.1342 -0.0774
 1272ERGO    R114190  13.699  11.195   6.804 -0.0708 -0.0681 -0.0765
 1272ERGO    R214191  13.561  11.001   6.944 -0.0340 -0.0464 -0.0148
 1272ERGO    R314192  13.790  10.989   7.090 -0.0185  0.0134 -0.0331
 1272ERGO    R414193  13.575  10.975   7.288 -0.0062 -0.1440 -0.0224
 1272ERGO    R514194  13.741  11.116   7.287 -0.0672 -0.0657  0.0089
 1272ERGO    C114195  13.798  10.950   7.626  0.0247 -0.1447 -0.0441
 1272ERGO    C214196  13.915  11.061   7.961  0.4137 -0.0881 -0.0333
 1273ERGO   ROH14197  13.649  13.692   6.490  0.2843 -0.2785 -0.1038
 1273ERGO    R114198  13.560  13.733   6.756  0.1231 -0.1078 -0.1828
 1273ERGO    R214199  13.662  13.592   6.970 -0.0254  0.0132 -0.0363
 1273ERGO    R314200  13.708  13.840   7.070 -0.0642  0.0685 -0.1506
 1273ERGO    R414201  13.695  13.666   7.306  0.2121  0.1222 -0.0808
 1273ERGO    R514202  13.580  13.848   7.272  0.0914  0.0602 -0.0443
 1273ERGO    C114203  13.758  13.942   7.596  0.3141  0.2376 -0.2142
 1273ERGO    C214204  13.942  14.181   7.744 -0.2136 -0.0427 -0.2594
 1274ERGO   ROH14205   2.571  13.607   6.302  0.1258  0.1128  0.0511
 1274ERGO    R114206   2.732  13.472   6.493  0.0330 -0.0974 -0.0164
 1274ERGO    R214207   2.788  13.579   6.742  0.2759 -0.1681 -0.0412
 1274ERGO    R314208   2.689  13.341   6.829  0.0041 -0.0425  0.0023
 1274ERGO    R414209   2.806  13.466   7.068  0.2736 -0.1840 -0.0464
 1274ERGO    R514210   2.849  13.266   6.991 -0.0168 -0.2466 -0.0657
 1274ERGO    C114211   2.724  13.177   7.340  0.0171 -0.0753 -0.0085
 1274ERGO    C214212   2.741  13.177   7.578  0.0076 -0.0623 -0.3334
 1275ERGO   ROH14213   1.738  17.243   6.838  0.0771  0.2366  0.0542
 1275ERGO    R114214   1.755  17.267   7.120 -0.1635  0.1500  0.0791
 1275ERGO    R214215   1.561  17.168   7.290 -0.0906 -0.3200 -0.0931
 1275ERGO    R314216   1.772  17.041   7.404  0.0976  0.0506 -0.0130
 1275ERGO    R414217   1.553  17.008   7.596  0.1443 -0.1448  0.0068
 1275ERGO    R514218   1.751  17.088   7.637  0.0327  0.1662 -0.0425
 1275ERGO    C114219   1.747  16.795   7.881  0.4577  0.3051  0.1401
 1275ERGO    C214220   1.795  16.639   8.144  0.1817 -0.2381 -0.0466
 1276ERGO   ROH14221   2.693   5.017   6.606 -0.0960 -0.0230 -0.1560
 1276ERGO    R114222   2.650   4.996   6.885 -0.0107 -0.0638 -0.1461
 1276ERGO    R214223   2.411   4.905   6.993 -0.0339  0.0744 -0.0870
 1276ERGO    R314224   2.575   4.730   7.122 -0.1099 -0.0726 -0.1854
 1276ERGO    R414225   2.324   4.721   7.272 -0.0422  0.1441 -0.0427
 1276ERGO    R514226   2.522   4.758   7.353  0.0424 -0.0291 -0.1518
 1276ERGO    C114227   2.426   4.450   7.555 -0.1185  0.0467 -0.1092
 1276ERGO    C214228   2.297   4.160   7.808  0.1333  0.3772 -0.3400
 1277ERGO   ROH14229  12.851   7.043   6.982  0.1110  0.2139 -0.0585
 1277ERGO    R114230  12.852   7.169   7.236  0.0896  0.1117 -0.0072
 1277ERGO    R214231  12.627   7.287   7.344  0.0889  0.0996  0.0057
 1277ERGO    R314232  12.682   7.123   7.554  0.0339  0.0065 -0.0518
 1277ERGO    R414233  12.474   7.305   7.654 -0.0797 -0.1189 -0.0619
 1277ERGO    R514234  12.668   7.266   7.746 -0.1154 -0.1012  0.0187
 1277ERGO    C114235  12.437   7.162   8.031 -0.2297 -0.3337 -0.1552
 1277ERGO    C214236  12.198   7.217   8.322 -0.0092 -0.2277  0.1404
 1278ERGO   ROH14237  12.868  10.806   6.691  0.0687  0.2381 -0.1545
 1278ERGO    R114238  12.927  10.715   6.953  0.1259  0.1195 -0.2078
 1278ERGO    R214239  13.183  10.643   7.031  0.1728  0.2300 -0.2531
 1278ERGO    R314240  13.139  10.824   7.228  0.0609  0.0880 -0.1456
 1278ERGO    R414241  13.338  10.640   7.339  0.1239  0.1085 -0.2290
 1278ERGO    R514242  13.148  10.695   7.430  0.0855 -0.0329 -0.2237
 1278ERGO    C114243  13.388  10.808   7.705 -0.0095 -0.0956 -0.1141
 1278ERGO    C214244  13.418  10.848   8.085  0.0216 -0.1092 -0.1351
 1279ERGO   ROH14245   2.131  13.751   6.088 -0.1269 -0.3104 -0.1394
 1279ERGO    R114246   2.228  13.847   6.336  0.0064 -0.2653 -0.2083
 1279ERGO    R214247   2.081  13.832   6.570  0.0752 -0.0987 -0.1524
 1279ERGO    R314248   2.303  13.707   6.663  0.0417 -0.1797 -0.1795
 1279ERGO    R414249   2.175  13.817   6.902  0.0654 -0.2101 -0.1540
 1279ERGO    R514250   2.381  13.848   6.841  0.0741 -0.2462 -0.1409
 1279ERGO    C114251   2.437  13.691   7.184  0.0283 -0.3509 -0.1804
 1279ERGO    C214252   2.482  13.636   7.457 -0.0294  0.0020 -0.1598
 1280ERGO   ROH14253   3.131   2.324   6.805 -0.2147  0.1736 -0.0365
 1280ERGO    R114254   3.014   2.413   7.046 -0.1002  0.0269  0.0751
 1280ERGO    R214255   3.067   2.294   7.290  0.1852  0.0136  0.0117
 1280ERGO    R314256   3.132   2.548   7.363  0.0401  0.0511  0.0129
 1280ERGO    R414257   3.071   2.411   7.615  0.1766  0.0016  0.0160
 1280ERGO    R514258   2.983   2.597   7.544  0.0457 -0.0506  0.0440
 1280ERGO    C114259   3.134   2.717   7.874  0.0355  0.0299  0.0196
 1280ERGO    C214260   3.055   2.655   8.151  0.0406  0.2542 -0.1201
 1281ERGO   ROH14261  16.408  16.046   6.333  0.1359  0.0423  0.0773
 1281ERGO    R114262  16.417  15.922   6.587 -0.0598 -0.0708  0.0318
 1281ERGO    R214263  16.504  16.053   6.814  0.2490 -0.3166  0.0651
 1281ERGO    R314264  16.263  15.974   6.913  0.1013  0.1221  0.0788
 1281ERGO    R414265  16.444  15.968   7.144  0.1644 -0.4008  0.0278
 1281ERGO    R514266  16.318  15.805   7.073 -0.2032 -0.0998 -0.0427
 1281ERGO    C114267  16.183  15.843   7.428 -0.0236 -0.0380  0.0188
 1281ERGO    C214268  16.254  15.736   7.818  0.1724 -0.1528  0.2961
 1282ERGO   ROH14269  17.486  15.859   6.648  0.1935  0.1927 -0.0456
 1282ERGO    R114270  17.611  15.606   6.675  0.1486  0.1667 -0.0812
 1282ERGO    R214271  17.885  15.576   6.689  0.1430  0.1154 -0.0984
 1282ERGO    R314272  17.826  15.443   6.918  0.1306  0.0982 -0.1107
 1282ERGO    R414273  18.087  15.336   6.834  0.1955  0.1939 -0.0400
 1282ERGO    R514274  17.907  15.221   6.880  0.2251  0.1267 -0.0857
 1282ERGO    C114275  18.149  15.071   7.134  0.2146  0.2235 -0.0176
 1282ERGO    C214276  18.386  14.954   7.231  0.2070  0.0399  0.0311
 1283ERGO   ROH14277   0.660   4.041   7.052  0.0037 -0.1742 -0.0022
 1283ERGO    R114278   0.637   4.152   7.312  0.1888  0.0867 -0.0916
 1283ERGO    R214279   0.525   4.014   7.523 -0.0756  0.4566  0.0249
 1283ERGO    R314280   0.760   4.073   7.645  0.0339  0.1348 -0.0227
 1283ERGO    R414281   0.588   3.972   7.860 -0.0350  0.2991 -0.0026
 1283ERGO    R514282   0.696   4.161   7.858  0.2021  0.1661  0.0144
 1283ERGO    C114283   0.847   4.003   8.171  0.0915 -0.0947 -0.0633
 1283ERGO    C214284   0.981   3.912   8.328  0.0497  0.2921  0.1003
 1284ERGO   ROH14285  15.992   1.625   6.972  0.2337  0.1134  0.0865
 1284ERGO    R114286  15.775   1.645   7.153  0.1656  0.0593  0.0116
 1284ERGO    R214287  15.776   1.521   7.400  0.0352 -0.0880 -0.0589
 1284ERGO    R314288  15.722   1.772   7.490  0.0629 -0.1273  0.0669
 1284ERGO    R414289  15.589   1.595   7.682 -0.3352 -0.1994 -0.2684
 1284ERGO    R514290  15.498   1.759   7.572 -0.0695 -0.0533 -0.2728
 1284ERGO    C114291  15.431   1.873   7.930 -0.5249 -0.3011 -0.2722
 1284ERGO    C214292  15.243   1.965   8.174  0.2755  0.2360 -0.0407
 1285ERGO   ROH14293  12.250  11.957   6.683 -0.1419  0.1657 -0.0737
 1285ERGO    R114294  12.143  11.808   6.898 -0.1599  0.0215 -0.1812
 1285ERGO    R214295  12.062  11.925   7.134  0.2001 -0.1755  0.0513
 1285ERGO    R314296  11.828  11.795   7.081 -0.0264  0.2101  0.0665
 1285ERGO    R414297  11.862  11.774   7.373  0.3709 -0.5094 -0.0108
 1285ERGO    R514298  11.829  11.609   7.233 -0.0128 -0.1555 -0.3627
 1285ERGO    C114299  11.527  11.565   7.462  0.2578 -0.3418 -0.0325
 1285ERGO    C214300  11.382  11.666   7.849  0.2405 -0.1417  0.0026
 1286ERGO   ROH14301   7.743   9.352   6.445 -0.0538 -0.0972  0.0452
 1286ERGO    R114302   7.734   9.516   6.676 -0.0771 -0.0165 -0.0136
 1286ERGO    R214303   7.894   9.471   6.897 -0.0965  0.0657  0.0121
 1286ERGO    R314304   7.966   9.730   6.857 -0.0994  0.0553 -0.0670
 1286ERGO    R414305   8.021   9.681   7.141 -0.2943  0.1962  0.0059
 1286ERGO    R514306   7.900   9.842   7.058 -0.2592  0.1452 -0.1631
 1286ERGO    C114307   8.162  10.046   7.245 -0.4122  0.2626 -0.0720
 1286ERGO    C214308   8.278  10.139   7.505 -0.0905  0.1170 -0.0604
 1287ERGO   ROH14309   5.846   8.445   6.759 -0.0416 -0.1051  0.0844
 1287ERGO    R114310   5.770   8.180   6.822  0.0003 -0.1287  0.0386
 1287ERGO    R214311   5.781   8.078   7.079 -0.0418 -0.1537  0.0333
 1287ERGO    R314312   5.520   8.019   7.031 -0.0170 -0.2027 -0.0393
 1287ERGO    R414313   5.577   7.896   7.291 -0.0747 -0.1741 -0.0165
 1287ERGO    R514314   5.492   7.797   7.117 -0.0052 -0.1999 -0.0332
 1287ERGO    C114315   5.213   7.735   7.370 -0.0706 -0.2320 -0.1138
 1287ERGO    C214316   5.128   7.819   7.713 -0.2542 -0.1813  0.1994
 1288ERGO   ROH14317  12.890   9.189   6.932  0.0076 -0.1281  0.1802
 1288ERGO    R114318  12.768   9.165   7.186 -0.2794  0.0708  0.0665
 1288ERGO    R214319  12.913   9.127   7.418 -0.5622 -0.3182  0.1899
 1288ERGO    R314320  12.776   9.346   7.502 -0.1571 -0.0261  0.1200
 1288ERGO    R414321  12.921   9.254   7.739 -0.3295 -0.2288  0.1512
 1288ERGO    R514322  12.707   9.292   7.724 -0.2671  0.1704  0.1365
 1288ERGO    C114323  12.796   9.534   8.005  0.1864  0.0973  0.0632
 1288ERGO    C214324  12.688   9.780   8.356 -0.0230  0.0522 -0.1718
 1289ERGO   ROH14325  13.409   1.917   6.526  0.1297 -0.0969  0.2659
 1289ERGO    R114326  13.320   1.898   6.794  0.0579  0.0679  0.2550
 1289ERGO    R214327  13.432   1.723   6.976 -0.1201  0.0374  0.3417
 1289ERGO    R314328  13.465   1.949   7.124  0.0321  0.0659  0.2655
 1289ERGO    R414329  13.427   1.736   7.321 -0.0676  0.1602  0.3382
 1289ERGO    R514330  13.315   1.922   7.308  0.0426  0.2192  0.2937
 1289ERGO    C114331  13.454   1.955   7.661  0.1058  0.2585  0.2649
 1289ERGO    C214332  13.664   1.983   7.906 -0.2423  0.0655  0.0174
 1290ERGO   ROH14333   5.733  10.073   6.564 -0.3742 -0.1980  0.0203
 1290ERGO    R114334   5.665  10.090   6.838 -0.2913 -0.0728  0.0332
 1290ERGO    R214335   5.712   9.884   7.016 -0.2913 -0.0129  0.0997
 1290ERGO    R314336   5.843  10.078   7.155 -0.2040  0.0100 -0.0114
 1290ERGO    R414337   5.789   9.868   7.353  0.3155 -0.1605 -0.0330
 1290ERGO    R514338   5.737  10.079   7.370  0.1664 -0.2105  0.1847
 1290ERGO    C114339   5.956  10.040   7.679  0.7507 -0.2249 -0.2145
 1290ERGO    C214340   5.937  10.246   7.939  0.2536  0.0187  0.2143
 1291ERGO   ROH14341  13.405  18.010   6.235  0.0582  0.0138  0.1257
 1291ERGO    R114342  13.278  18.034   6.487  0.0597  0.0557  0.1223
 1291ERGO    R214343  13.228  17.817   6.650 -0.1238  0.0561  0.0667
 1291ERGO    R314344  13.363  17.965   6.834 -0.0188 -0.0937  0.1131
 1291ERGO    R414345  13.170  17.808   6.991 -0.1615  0.0199  0.0597
 1291ERGO    R514346  13.196  18.025   6.995  0.0122  0.0018  0.1126
 1291ERGO    C114347  13.263  17.942   7.362 -0.0848 -0.1416  0.0991
 1291ERGO    C214348  13.257  17.913   7.686  0.3063  0.1665 -0.0103
 1292ERGO   ROH14349   5.402   9.107   6.635  0.0573  0.1432 -0.0192
 1292ERGO    R114350   5.319   9.167   6.899  0.2440  0.1853  0.0308
 1292ERGO    R214351   5.195   8.981   7.061  0.0539  0.3100  0.0249
 1292ERGO    R314352   5.395   9.046   7.233  0.2127 -0.0120 -0.0311
 1292ERGO    R414353   5.236   8.846   7.376  0.0011  0.1349 -0.0422
 1292ERGO    R514354   5.291   9.043   7.449  0.2904  0.0439  0.0109
 1292ERGO    C114355   5.448   8.827   7.721  0.1195 -0.2693 -0.1339
 1292ERGO    C214356   5.423   8.544   7.902  0.2631  0.2872 -0.2756
 1293ERGO   ROH14357   8.780   9.286   6.766  0.1201  0.1278 -0.2967
 1293ERGO    R114358   8.873   9.251   7.031  0.0905  0.3422 -0.2574
 1293ERGO    R214359   8.816   9.430   7.234 -0.4518  0.1972 -0.2727
 1293ERGO    R314360   8.724   9.208   7.361  0.0387 -0.0524 -0.3261
 1293ERGO    R414361   8.796   9.393   7.577 -0.4565  0.1122 -0.2810
 1293ERGO    R514362   8.864   9.187   7.554  0.0479  0.2633 -0.2891
 1293ERGO    C114363   8.697   9.163   7.896  0.0014 -0.1716 -0.3359
 1293ERGO    C214364   8.687   9.088   8.228  0.0660 -0.0177  0.1913
 1294ERGO   ROH14365  10.471   5.023   6.441  0.2115  0.2395  0.0088
 1294ERGO    R114366  10.437   4.873   6.679 -0.0314  0.2331 -0.0274
 1294ERGO    R214367  10.646   4.819   6.852 -0.1301 -0.0871 -0.0045
 1294ERGO    R314368  10.480   4.930   7.036 -0.0115  0.1010 -0.0078
 1294ERGO    R414369  10.638   4.735   7.187 -0.2708 -0.1225 -0.0158
 1294ERGO    R514370  10.421   4.748   7.180 -0.2573  0.1536 -0.0375
 1294ERGO    C114371  10.477   4.790   7.555 -0.2414  0.0335 -0.0256
 1294ERGO    C214372  10.376   4.716   7.987  0.1106  0.2531 -0.2143
 1295ERGO   ROH14373   7.402   8.159   6.529 -0.1732  0.0119 -0.0554
 1295ERGO    R114374   7.475   8.138   6.801 -0.1434 -0.0973 -0.0716
 1295ERGO    R214375   7.606   8.341   6.936 -0.0512 -0.1878 -0.0293
 1295ERGO    R314376   7.398   8.315   7.110 -0.0348 -0.1625 -0.0053
 1295ERGO    R414377   7.574   8.514   7.234  0.0076 -0.1756 -0.0298
 1295ERGO    R514378   7.499   8.331   7.326 -0.0030 -0.1692 -0.0165
 1295ERGO    C114379   7.361   8.590   7.570  0.0573 -0.1448 -0.0075
 1295ERGO    C214380   7.320   8.795   7.883  0.1536  0.0763 -0.2166
 1296ERGO   ROH14381   2.357  18.016   7.341  0.1901  0.0675  0.1817
 1296ERGO    R114382   2.478  17.778   7.434  0.1118  0.0444  0.2233
 1296ERGO    R214383   2.644  17.772   7.656 -0.1368 -0.0242  0.4047
 1296ERGO    R314384   2.471  17.580   7.739 -0.2066 -0.0820  0.1395
 1296ERGO    R414385   2.707  17.547   7.910 -0.2303 -0.3562  0.1425
 1296ERGO    R514386   2.611  17.392   7.791 -0.2592 -0.1884 -0.0701
 1296ERGO    C114387   2.581  17.235   8.137 -0.3502 -0.6037 -0.2591
 1296ERGO    C214388   2.389  17.024   8.341  0.4105 -0.2697 -0.0559
 1297ERGO   ROH14389   6.284  13.332   6.414 -0.0349  0.0363  0.0273
 1297ERGO    R114390   6.344  13.225   6.669 -0.3284  0.0381  0.1005
 1297ERGO    R214391   6.586  13.270   6.796 -0.1772 -0.5567  0.0531
 1297ERGO    R314392   6.426  13.357   6.998  0.0643  0.0515  0.0027
 1297ERGO    R414393   6.676  13.280   7.130 -0.0882 -0.4358  0.0262
 1297ERGO    R514394   6.476  13.211   7.181 -0.2616  0.1060  0.1424
 1297ERGO    C114395   6.579  13.368   7.514  0.1902  0.2055 -0.0368
 1297ERGO    C214396   6.782  13.553   7.732 -0.0053 -0.0383  0.4131
 1298ERGO   ROH14397   7.746  14.915   5.994 -0.1079 -0.1313  0.1461
 1298ERGO    R114398   7.866  15.150   6.096 -0.0439 -0.1342  0.0734
 1298ERGO    R214399   7.723  15.382   6.142  0.0401 -0.0586 -0.0865
 1298ERGO    R314400   7.830  15.360   6.391 -0.0511  0.0261 -0.0371
 1298ERGO    R414401   7.860  15.643   6.323  0.0386 -0.0010 -0.1646
 1298ERGO    R514402   8.018  15.508   6.389 -0.0108 -0.0152 -0.0472
 1298ERGO    C114403   8.040  15.773   6.662 -0.0480  0.1121 -0.1637
 1298ERGO    C214404   8.111  15.832   7.013  0.1248 -0.0383 -0.0331
 1299ERGO   ROH14405   8.366   0.620   6.318 -0.0072 -0.0131 -0.1319
 1299ERGO    R114406   8.350   0.700   6.589  0.0525  0.0393 -0.1444
 1299ERGO    R214407   8.184   0.904   6.674  0.0667  0.0470 -0.1477
 1299ERGO    R314408   8.093   0.715   6.846  0.1124  0.0806 -0.0846
 1299ERGO    R414409   8.089   0.964   7.001 -0.3010  0.2124 -0.2797
 1299ERGO    R514410   8.186   0.777   7.058 -0.1459  0.3546 -0.0418
 1299ERGO    C114411   7.947   0.821   7.352 -0.4722  0.3402 -0.2974
 1299ERGO    C214412   7.764   1.033   7.592 -0.1853  0.1832 -0.1439
 1300ERGO   ROH14413  15.318  10.401   6.656 -0.1332  0.1768 -0.1173
 1300ERGO    R114414  15.331  10.488   6.925 -0.0795  0.1387 -0.1076
 1300ERGO    R214415  15.108  10.572   7.065 -0.0503  0.1218 -0.0530
 1300ERGO    R314416  15.189  10.384   7.244 -0.0187  0.0963 -0.0937
 1300ERGO    R414417  15.102  10.611   7.408  0.0403  0.0891 -0.0475
 1300ERGO    R514418  15.295  10.509   7.418  0.0366  0.0720 -0.1080
 1300ERGO    C114419  15.175  10.457   7.776  0.1228  0.0461 -0.0825
 1300ERGO    C214420  15.059  10.740   8.057  0.1014 -0.1634  0.0888
 1301ERGO   ROH14421   4.104   8.738   6.840 -0.0400 -0.0621  0.1224
 1301ERGO    R114422   4.349   8.656   6.956 -0.0249 -0.0740  0.0818
 1301ERGO    R214423   4.364   8.540   7.207  0.0123 -0.0608  0.0846
 1301ERGO    R314424   4.495   8.344   7.071 -0.0262 -0.0786  0.0723
 1301ERGO    R414425   4.496   8.255   7.350  0.0458 -0.0450  0.0856
 1301ERGO    R514426   4.670   8.275   7.220  0.0128 -0.0625  0.0360
 1301ERGO    C114427   4.696   7.905   7.307  0.0290 -0.0525  0.0746
 1301ERGO    C214428   4.630   7.772   7.509 -0.1898  0.2599  0.0798
 1302ERGO   ROH14429  11.947   2.156   6.436 -0.6820  0.1356  0.0448
 1302ERGO    R114430  12.151   2.184   6.631 -0.4976 -0.1235 -0.1059
 1302ERGO    R214431  12.158   2.394   6.810  0.0105 -0.0211 -0.2358
 1302ERGO    R314432  12.170   2.194   6.994 -0.2413  0.0643 -0.1210
 1302ERGO    R414433  12.250   2.435   7.141  0.0659  0.0570 -0.2598
 1302ERGO    R514434  12.361   2.248   7.128 -0.1673 -0.0969 -0.1555
 1302ERGO    C114435  12.316   2.271   7.506 -0.1382  0.1826 -0.1661
 1302ERGO    C214436  12.390   2.392   7.791  0.1044  0.1427  0.1672
 1303ERGO   ROH14437   6.326   3.280   6.023 -0.2022 -0.0404  0.0038
 1303ERGO    R114438   6.319   3.167   6.282 -0.0823 -0.0124  0.0205
 1303ERGO    R214439   6.350   2.896   6.328  0.0520  0.0039  0.0466
 1303ERGO    R314440   6.547   2.981   6.496  0.0601  0.1159 -0.0191
 1303ERGO    R414441   6.482   2.710   6.588  0.1541  0.1351  0.0892
 1303ERGO    R514442   6.486   2.891   6.709  0.1277  0.1762  0.0233
 1303ERGO    C114443   6.744   2.681   6.897  0.2211  0.3166  0.0523
 1303ERGO    C214444   7.114   2.667   7.069 -0.4046  0.3037 -0.0161
 1304ERGO   ROH14445   2.239   9.521   6.977 -0.0636  0.0448  0.1269
 1304ERGO    R114446   2.068   9.588   7.193 -0.0888 -0.0523  0.1378
 1304ERGO    R214447   1.974   9.399   7.372 -0.0553 -0.1235  0.0833
 1304ERGO    R314448   2.081   9.568   7.556 -0.1002 -0.1491  0.1329
 1304ERGO    R414449   1.877   9.418   7.704  0.0035 -0.3071  0.1117
 1304ERGO    R514450   1.895   9.635   7.692 -0.1035 -0.2945  0.1992
 1304ERGO    C114451   1.922   9.588   8.069 -0.0044 -0.4380  0.1749
 1304ERGO    C214452   1.949   9.438   8.318  0.1308  0.1451 -0.1419
 1305ERGO   ROH14453  17.321   9.556   6.703 -0.0516 -0.1079 -0.1360
 1305ERGO    R114454  17.229   9.723   6.912 -0.0292 -0.1099 -0.1240
 1305ERGO    R214455  17.149   9.625   7.158  0.1216 -0.1015 -0.0686
 1305ERGO    R314456  17.332   9.802   7.253  0.0906 -0.0077 -0.1833
 1305ERGO    R414457  17.174   9.727   7.487  0.1042  0.1175 -0.1341
 1305ERGO    R514458  17.213   9.929   7.417  0.0691  0.0785 -0.2658
 1305ERGO    C114459  17.361   9.952   7.768  0.0649  0.3329 -0.2799
 1305ERGO    C214460  17.436  10.023   8.100  0.3452 -0.1356  0.0965
 1306ERGO   ROH14461   8.696   3.827   6.212  0.1788 -0.1476 -0.1064
 1306ERGO    R114462   8.591   3.754   6.464  0.2112 -0.2259 -0.1136
 1306ERGO    R214463   8.742   3.628   6.659  0.2872 -0.1325 -0.1029
 1306ERGO    R314464   8.658   3.836   6.813  0.1386 -0.1879 -0.1101
 1306ERGO    R414465   8.715   3.621   7.003  0.1702 -0.1705 -0.1133
 1306ERGO    R514466   8.529   3.733   6.987  0.1285 -0.2579 -0.1645
 1306ERGO    C114467   8.621   3.812   7.348 -0.0374 -0.2447 -0.1261
 1306ERGO    C214468   8.737   4.004   7.628 -0.3376 -0.2224  0.1907
 1307ERGO   ROH14469   7.738   5.429   6.438 -0.0747 -0.0178  0.1701
 1307ERGO    R114470   7.799   5.362   6.706 -0.0784  0.0175  0.1805
 1307ERGO    R214471   7.919   5.539   6.880 -0.0592  0.0343  0.1551
 1307ERGO    R314472   7.705   5.480   7.037 -0.0649  0.0782  0.1618
 1307ERGO    R414473   7.919   5.547   7.226 -0.0514  0.0396  0.1541
 1307ERGO    R514474   7.799   5.365   7.225 -0.0845  0.0650  0.1607
 1307ERGO    C114475   7.718   5.495   7.574 -0.0521  0.0838  0.1600
 1307ERGO    C214476   7.707   5.472   7.952 -0.1306  0.1738 -0.3228
 1308ERGO   ROH14477   2.450  16.553   6.979 -0.1328 -0.0239 -0.1262
 1308ERGO    R114478   2.530  16.344   7.153  0.0452  0.1488  0.0030
 1308ERGO    R214479   2.539  16.374   7.427 -0.1589  0.2698 -0.0045
 1308ERGO    R314480   2.380  16.153   7.424  0.1374  0.0501 -0.0135
 1308ERGO    R414481   2.408  16.220   7.708 -0.1743  0.2528 -0.0206
 1308ERGO    R514482   2.449  16.027   7.616  0.1610  0.2492  0.1148
 1308ERGO    C114483   2.183  15.924   7.868  0.0949  0.0367 -0.0384
 1308ERGO    C214484   1.883  15.803   7.905  0.0430 -0.2996 -0.3509
 1309ERGO   ROH14485  13.092   6.266   7.177  0.0637 -0.1626  0.0468
 1309ERGO    R114486  12.956   6.146   7.395  0.0257 -0.1096  0.0523
 1309ERGO    R214487  13.036   5.905   7.506  0.0481 -0.0490  0.1698
 1309ERGO    R314488  13.037   6.049   7.736 -0.0550  0.0417  0.1147
 1309ERGO    R414489  13.028   5.770   7.824 -0.0177  0.0760  0.2224
 1309ERGO    R514490  12.891   5.928   7.883 -0.0715  0.0675  0.1183
 1309ERGO    C114491  13.024   5.826   8.225 -0.1530  0.2339  0.2013
 1309ERGO    C214492  13.039   5.526   8.554 -0.0600  0.0481  0.1894
 1310ERGO   ROH14493   3.584  15.872   6.484  0.0448 -0.0445 -0.1088
 1310ERGO    R114494   3.403  15.856   6.701 -0.1224 -0.1882 -0.2563
 1310ERGO    R214495   3.312  15.616   6.800  0.2462 -0.2794 -0.1242
 1310ERGO    R314496   3.404  15.715   7.036 -0.1470  0.1172 -0.1241
 1310ERGO    R414497   3.320  15.440   7.098  0.5716 -0.0984 -0.0213
 1310ERGO    R514498   3.256  15.621   7.201  0.0101 -0.2004 -0.1560
 1310ERGO    C114499   3.412  15.430   7.492  0.3919  0.3793  0.0388
 1310ERGO    C214500   3.493  15.210   7.922  0.1207 -0.1888 -0.0437
 1311ERGO   ROH14501   9.543   3.461   6.033 -0.1670  0.2002 -0.1424
 1311ERGO    R114502   9.515   3.593   6.282 -0.2068  0.1657 -0.1276
 1311ERGO    R214503   9.285   3.579   6.433 -0.1683 -0.0053 -0.0775
 1311ERGO    R314504   9.456   3.496   6.627 -0.0667  0.0994 -0.1222
 1311ERGO    R414505   9.203   3.548   6.767 -0.0397  0.0024 -0.0456
 1311ERGO    R514506   9.399   3.630   6.817 -0.0625  0.0973 -0.1221
 1311ERGO    C114507   9.317   3.451   7.144  0.1306  0.1052 -0.0690
 1311ERGO    C214508   9.036   3.483   7.464  0.1667  0.0278  0.0879
 1312ERGO   ROH14509   9.471  18.052   6.128 -0.3397 -0.0672  0.1298
 1312ERGO    R114510   9.561  18.079   6.394 -0.2174 -0.0306  0.0865
 1312ERGO    R214511   9.666  18.315   6.492 -0.0431 -0.0532 -0.0286
 1312ERGO    R314512   9.474  18.283   6.683  0.0113  0.1143  0.0542
 1312ERGO    R414513   9.705  18.394   6.827  0.2050 -0.1794 -0.0268
 1312ERGO    R514514   9.596  18.212   6.877  0.0253 -0.0692 -0.0217
 1312ERGO    C114515   9.549  18.410   7.200  0.4007 -0.0955  0.0519
 1312ERGO    C214516   9.614  18.332   7.525  0.0622 -0.2043  0.0248
 1313ERGO   ROH14517   6.655   9.820   6.486  0.0266 -0.0854 -0.0217
 1313ERGO    R114518   6.616   9.711   6.745 -0.0924  0.0304  0.0113
 1313ERGO    R214519   6.813   9.570   6.879 -0.2587 -0.2008  0.0277
 1313ERGO    R314520   6.764   9.752   7.074  0.0008 -0.0793 -0.0170
 1313ERGO    R414521   6.879   9.522   7.214 -0.1385 -0.1261  0.0144
 1313ERGO    R514522   6.691   9.620   7.261 -0.0262  0.0608  0.0703
 1313ERGO    C114523   6.872   9.664   7.593  0.1751  0.0314 -0.0353
 1313ERGO    C214524   6.911   9.506   7.895 -0.3046 -0.2311  0.1146
 1314ERGO   ROH14525  15.236   9.071  10.036  0.0202  0.3257 -0.0027
 1314ERGO    R114526  15.160   8.944   9.795  0.0074  0.1824  0.0765
 1314ERGO    R214527  15.067   9.085   9.576  0.1385  0.0664 -0.0512
 1314ERGO    R314528  15.267   8.952   9.447  0.0942 -0.1457  0.0915
 1314ERGO    R414529  15.151   9.129   9.244  0.4521  0.0189  0.0169
 1314ERGO    R514530  15.179   8.914   9.227  0.2199 -0.0172  0.0149
 1314ERGO    C114531  15.386   9.031   8.929  0.5934 -0.2077  0.1905
 1314ERGO    C214532  15.575   9.172   8.812  0.0265  0.4318 -0.2879
 1315ERGO   ROH14533   1.406   8.249   6.941  0.0803  0.0505  0.0313
 1315ERGO    R114534   1.568   8.257   7.173  0.2304  0.0714 -0.0718
 1315ERGO    R214535   1.815   8.380   7.178  0.1156  0.3202 -0.1676
 1315ERGO    R314536   1.708   8.515   7.388  0.1147  0.0861 -0.0149
 1315ERGO    R414537   1.996   8.507   7.444  0.1358  0.2231 -0.1349
 1315ERGO    R514538   1.836   8.442   7.577  0.2321  0.0177 -0.1231
 1315ERGO    C114539   2.000   8.708   7.796  0.1467 -0.0531  0.0273
 1315ERGO    C214540   1.966   9.001   8.022  0.1636 -0.1593 -0.0847
 1316ERGO   ROH14541   2.670   1.673   6.712 -0.2124 -0.0278 -0.1294
 1316ERGO    R114542   2.544   1.695   6.964 -0.3595 -0.2343 -0.1839
 1316ERGO    R214543   2.419   1.481   7.088  0.2048 -0.5253 -0.1045
 1316ERGO    R314544   2.584   1.547   7.294 -0.0358  0.0675 -0.0793
 1316ERGO    R414545   2.337   1.457   7.422  0.1444 -0.5794 -0.1218
 1316ERGO    R514546   2.439   1.646   7.457 -0.3957 -0.2440 -0.1861
 1316ERGO    C114547   2.443   1.505   7.811 -0.1167 -0.0544 -0.1082
 1316ERGO    C214548   2.451   1.311   8.137 -0.1176  0.1428  0.2354
 1317ERGO   ROH14549   7.617  17.269   6.450 -0.1210  0.1454  0.0105
 1317ERGO    R114550   7.643  17.070   6.649  0.0566  0.1637  0.0066
 1317ERGO    R214551   7.734  17.125   6.905  0.0617  0.2297 -0.0092
 1317ERGO    R314552   7.502  17.004   6.978  0.1593  0.0628  0.0310
 1317ERGO    R414553   7.693  16.932   7.188  0.2274  0.2574  0.0350
 1317ERGO    R514554   7.571  16.795   7.071  0.3276  0.1359  0.0728
 1317ERGO    C114555   7.451  16.706   7.423  0.4155  0.1171  0.0985
 1317ERGO    C214556   7.316  16.676   7.772 -0.3322 -0.1621  0.2190
 1318ERGO   ROH14557  17.297  16.937   6.680 -0.3442 -0.2875 -0.1034
 1318ERGO    R114558  17.140  16.837   6.893 -0.1493 -0.3492  0.0140
 1318ERGO    R214559  17.243  16.674   7.091  0.1394 -0.0437  0.1240
 1318ERGO    R314560  17.139  16.863   7.256 -0.0980 -0.0579 -0.0044
 1318ERGO    R414561  17.233  16.650   7.435  0.1725  0.1764  0.1413
 1318ERGO    R514562  17.033  16.737   7.430  0.0597 -0.0761  0.0809
 1318ERGO    C114563  17.129  16.814   7.791 -0.0311  0.2913  0.0309
 1318ERGO    C214564  17.077  17.026   8.101  0.3024  0.0667 -0.1530
 1319ERGO   ROH14565   1.081   5.984   6.758  0.0232 -0.0186  0.0188
 1319ERGO    R114566   1.073   5.924   7.034  0.0400  0.1563  0.0578
 1319ERGO    R214567   1.229   5.728   7.149 -0.1152  0.0784  0.1315
 1319ERGO    R314568   1.306   5.930   7.313  0.1202  0.1058 -0.0063
 1319ERGO    R414569   1.428   5.689   7.429 -0.0769  0.0467  0.1005
 1319ERGO    R514570   1.301   5.833   7.533  0.0827  0.2327  0.0531
 1319ERGO    C114571   1.615   5.857   7.747  0.1664  0.0539 -0.0469
 1319ERGO    C214572   1.841   5.890   8.029 -0.0048 -0.2507 -0.3054
 1320ERGO   ROH14573  14.040   2.497   6.896 -0.0904  0.0421  0.2060
 1320ERGO    R114574  13.988   2.726   7.056  0.0528  0.0372  0.2613
 1320ERGO    R214575  13.734   2.795   7.138  0.0773  0.2537  0.1617
 1320ERGO    R314576  13.848   2.792   7.385 -0.0435  0.0552  0.2170
 1320ERGO    R414577  13.608   2.959   7.415  0.1220  0.3158  0.1451
 1320ERGO    R514578  13.813   3.014   7.469  0.1610  0.0740  0.2608
 1320ERGO    C114579  13.642   3.052   7.808  0.0346  0.1656  0.1873
 1320ERGO    C214580  13.358   2.930   8.011  0.0047 -0.2912 -0.2278
 1321ERGO   ROH14581   1.509   0.879   6.958  0.2259  0.0018 -0.1085
 1321ERGO    R114582   1.622   0.941   7.210  0.1046 -0.0251 -0.0463
 1321ERGO    R214583   1.469   0.981   7.437 -0.0075 -0.0171 -0.1219
 1321ERGO    R314584   1.631   0.789   7.541 -0.0848 -0.0429 -0.0485
 1321ERGO    R414585   1.556   0.955   7.770 -0.0135  0.0775 -0.1126
 1321ERGO    R514586   1.758   0.903   7.709 -0.0360 -0.0296 -0.0950
 1321ERGO    C114587   1.759   0.759   8.062 -0.0896  0.1083 -0.0384
 1321ERGO    C214588   1.960   0.608   8.261 -0.0731  0.0376  0.0314
 1322ERGO   ROH14589  12.105   6.133   6.873  0.0900 -0.0491  0.1929
 1322ERGO    R114590  12.036   6.294   7.095  0.1167  0.0072  0.1617
 1322ERGO    R214591  11.780   6.300   7.200  0.0946  0.1241  0.1121
 1322ERGO    R314592  11.910   6.240   7.432  0.0320  0.0934  0.1452
 1322ERGO    R414593  11.665   6.379   7.517  0.0270  0.1213  0.0880
 1322ERGO    R514594  11.870   6.430   7.573  0.0226  0.0929  0.1444
 1322ERGO    C114595  11.720   6.368   7.919 -0.0710  0.0908  0.1049
 1322ERGO    C214596  11.661   6.514   8.220  0.3842  0.2867  0.0544
 1323ERGO   ROH14597   8.883   2.785   6.213  0.0263  0.0435 -0.1083
 1323ERGO    R114598   8.995   2.596   6.392 -0.0166  0.0843 -0.0376
 1323ERGO    R214599   9.189   2.663   6.577 -0.0300  0.1177 -0.0350
 1323ERGO    R314600   9.014   2.552   6.753 -0.0638  0.1919 -0.0219
 1323ERGO    R414601   9.271   2.548   6.892 -0.0496  0.0556 -0.0525
 1323ERGO    R514602   9.138   2.378   6.860 -0.1369  0.1232 -0.0483
 1323ERGO    C114603   9.154   2.377   7.241 -0.0928  0.0892 -0.0502
 1323ERGO    C214604   9.268   2.396   7.500 -0.3567  0.2971  0.0161
 1324ERGO   ROH14605   5.518  17.271   6.598 -0.2612  0.0547  0.0552
 1324ERGO    R114606   5.549  17.110   6.829  0.0479  0.0172 -0.0063
 1324ERGO    R214607   5.778  17.111   6.982  0.1105  0.2818 -0.0931
 1324ERGO    R314608   5.605  17.165   7.184  0.1085 -0.0194 -0.0109
 1324ERGO    R414609   5.868  17.149   7.313  0.1864  0.3428 -0.1208
 1324ERGO    R514610   5.689  17.038   7.369  0.3716  0.0631 -0.0714
 1324ERGO    C114611   5.758  17.222   7.696  0.2287  0.0957 -0.0599
 1324ERGO    C214612   5.816  17.219   7.913 -0.1867  0.0593 -0.0418
 1325ERGO   ROH14613   7.845   2.349   6.243 -0.1906 -0.1594  0.0811
 1325ERGO    R114614   7.977   2.520   6.425 -0.0599 -0.2232  0.0501
 1325ERGO    R214615   7.880   2.771   6.492  0.1500 -0.1103 -0.0275
 1325ERGO    R314616   7.901   2.676   6.745  0.0328 -0.0683 -0.0039
 1325ERGO    R414617   7.966   2.960   6.768  0.3062 -0.1343 -0.0607
 1325ERGO    R514618   8.087   2.793   6.839  0.1343 -0.2308 -0.0110
 1325ERGO    C114619   8.035   2.981   7.167  0.2874 -0.1089 -0.0579
 1325ERGO    C214620   8.156   3.072   7.443  0.1848 -0.1165  0.0029
 1326ERGO   ROH14621  18.187   4.337   6.949 -0.2476 -0.1446 -0.0914
 1326ERGO    R114622  18.238   4.353   7.227 -0.1024 -0.0077 -0.1262
 1326ERGO    R214623  18.171   4.575   7.378 -0.1030  0.0286 -0.1875
 1326ERGO    R314624  18.041   4.392   7.530  0.0490  0.0449 -0.0324
 1326ERGO    R414625  18.083   4.621   7.709 -0.1826  0.2568 -0.2373
 1326ERGO    R514626  18.140   4.415   7.747  0.0072  0.3400 -0.0372
 1326ERGO    C114627  17.908   4.476   8.045 -0.0865  0.4051 -0.1207
 1326ERGO    C214628  17.822   4.624   8.260  0.0879 -0.0455 -0.1103
 1327ERGO   ROH14629   0.007   1.195   7.180 -0.3341  0.1079  0.1145
 1327ERGO    R114630   0.020   1.227   7.461 -0.3005 -0.0980  0.1378
 1327ERGO    R214631   0.038   1.012   7.635  0.0850 -0.2167 -0.0386
 1327ERGO    R314632   0.256   1.146   7.726 -0.0907  0.0529 -0.0002
 1327ERGO    R414633   0.148   1.015   7.963  0.0523 -0.1234 -0.0279
 1327ERGO    R514634   0.193   1.226   7.942 -0.2156 -0.0580  0.0066
 1327ERGO    C114635   0.417   1.141   8.238 -0.1318  0.1840  0.0143
 1327ERGO    C214636   0.595   1.276   8.583  0.2311 -0.0308  0.0747
 1328ERGO   ROH14637   1.727   1.286   6.857 -0.1602  0.1079 -0.0556
 1328ERGO    R114638   1.877   1.281   7.097 -0.0391  0.1966 -0.1282
 1328ERGO    R214639   1.867   1.485   7.283 -0.1783  0.1276 -0.0580
 1328ERGO    R314640   1.805   1.283   7.454  0.1265  0.0012 -0.0921
 1328ERGO    R414641   1.913   1.494   7.625 -0.3191  0.1968 -0.0401
 1328ERGO    R514642   1.980   1.287   7.617  0.0642  0.3134 -0.0277
 1328ERGO    C114643   1.883   1.310   7.985 -0.1148  0.1184 -0.0615
 1328ERGO    C214644   1.736   1.273   8.221 -0.2878  0.1695 -0.0956
 1329ERGO   ROH14645  12.033  13.223   6.543  0.0785 -0.0129  0.1013
 1329ERGO    R114646  11.959  13.051   6.756  0.0663 -0.0459  0.0702
 1329ERGO    R214647  12.143  12.905   6.900  0.0588 -0.0577  0.0661
 1329ERGO    R314648  12.026  13.029   7.113  0.0337 -0.0936  0.0737
 1329ERGO    R414649  12.070  12.753   7.202 -0.0924 -0.1440 -0.0128
 1329ERGO    R514650  11.881  12.862   7.206 -0.0560 -0.0782 -0.0342
 1329ERGO    C114651  11.918  12.780   7.576 -0.2037 -0.2281 -0.0515
 1329ERGO    C214652  11.820  12.605   7.794  0.2184 -0.1939 -0.0468
 1330ERGO   ROH14653   4.789  11.308   6.484 -0.1103 -0.1699 -0.1191
 1330ERGO    R114654   4.738  11.164   6.723 -0.1017 -0.0825 -0.0647
 1330ERGO    R214655   4.907  11.173   6.941 -0.0132 -0.1253 -0.1333
 1330ERGO    R314656   4.681  11.245   7.073  0.0775  0.0354 -0.0608
 1330ERGO    R414657   4.875  11.190   7.285  0.0862 -0.1858 -0.1204
 1330ERGO    R514658   4.676  11.103   7.266  0.0045 -0.0125 -0.0957
 1330ERGO    C114659   4.644  11.267   7.609  0.2293 -0.0701 -0.0448
 1330ERGO    C214660   4.329  11.313   7.898 -0.1308 -0.2015  0.1301
 1331ERGO   ROH14661   7.752  12.761   6.441  0.0037 -0.0920 -0.0297
 1331ERGO    R114662   7.799  12.775   6.720  0.0049 -0.1667 -0.0248
 1331ERGO    R214663   8.031  12.681   6.837  0.1177  0.0244 -0.0780
 1331ERGO    R314664   8.042  12.933   6.940 -0.1462 -0.0045  0.0260
 1331ERGO    R414665   8.141  12.761   7.155  0.3201  0.0411 -0.1518
 1331ERGO    R514666   7.980  12.906   7.170  0.1212 -0.1996  0.0764
 1331ERGO    C114667   8.215  13.043   7.437  0.1903  0.0237 -0.0971
 1331ERGO    C214668   8.459  12.852   7.790 -0.3370 -0.1151 -0.0801
 1332ERGO   ROH14669   6.153   9.928   6.537  0.2506 -0.3191 -0.0812
 1332ERGO    R114670   6.120   9.941   6.818  0.1137 -0.1798 -0.1024
 1332ERGO    R214671   6.178   9.728   6.985  0.0403 -0.0968  0.0341
 1332ERGO    R314672   6.333   9.912   7.112 -0.0266 -0.0277  0.0154
 1332ERGO    R414673   6.288   9.703   7.312  0.0139  0.0029  0.0509
 1332ERGO    R514674   6.249   9.916   7.336 -0.0496 -0.0056  0.0045
 1332ERGO    C114675   6.497   9.861   7.621 -0.0642  0.1259  0.0430
 1332ERGO    C214676   6.392   9.842   7.933  0.0668  0.1816  0.3579
 1333ERGO   ROH14677   6.468  10.802   6.603  0.0866  0.2829 -0.0060
 1333ERGO    R114678   6.418  10.758   6.879  0.2774 -0.1018 -0.0252
 1333ERGO    R214679   6.616  10.685   7.057  0.5565  0.3318 -0.1394
 1333ERGO    R314680   6.529  10.903   7.194 -0.0672 -0.0224  0.0630
 1333ERGO    R414681   6.634  10.723   7.400  0.5340  0.1144 -0.1127
 1333ERGO    R514682   6.436  10.813   7.395  0.2486 -0.4691  0.0220
 1333ERGO    C114683   6.562  10.950   7.728 -0.0646 -0.3447  0.0928
 1333ERGO    C214684   6.600  11.003   8.044  0.2296 -0.0059  0.1849
 1334ERGO   ROH14685  14.878   1.703   6.393 -0.1622  0.2083 -0.1155
 1334ERGO    R114686  14.911   1.693   6.674 -0.0824  0.0902 -0.1282
 1334ERGO    R214687  14.900   1.918   6.833  0.0482  0.0353 -0.0397
 1334ERGO    R314688  14.711   1.775   6.966  0.0341  0.0544 -0.0373
 1334ERGO    R414689  14.782   1.994   7.149  0.3852 -0.2006  0.1490
 1334ERGO    R514690  14.783   1.781   7.195  0.2381 -0.2585 -0.0866
 1334ERGO    C114691  14.536   1.904   7.458  0.5682 -0.3201  0.2612
 1334ERGO    C214692  14.369   2.024   7.736 -0.1236 -0.0742 -0.0058
 1335ERGO   ROH14693  17.423   4.703   6.734 -0.1800  0.1613 -0.1307
 1335ERGO    R114694  17.421   4.812   6.995 -0.1835  0.3306 -0.2013
 1335ERGO    R214695  17.209   4.958   7.093 -0.4284 -0.0799 -0.1138
 1335ERGO    R314696  17.218   4.776   7.295  0.1642  0.0669  0.0115
 1335ERGO    R414697  17.078   5.009   7.409 -0.5536 -0.2557 -0.1346
 1335ERGO    R514698  17.254   4.909   7.492 -0.2117  0.3324 -0.0825
 1335ERGO    C114699  17.011   4.868   7.783 -0.0702 -0.2202 -0.0291
 1335ERGO    C214700  16.888   5.036   8.147  0.1671  0.2547  0.4350
 1336ERGO   ROH14701   6.913  15.053   6.395  0.2349 -0.0908  0.0082
 1336ERGO    R114702   6.951  15.251   6.593 -0.2253  0.0367 -0.0173
 1336ERGO    R214703   6.762  15.306   6.787 -0.2547 -0.5870  0.1674
 1336ERGO    R314704   6.970  15.262   6.956  0.0707  0.0582 -0.0342
 1336ERGO    R414705   6.761  15.380   7.124 -0.1319 -0.5969  0.1690
 1336ERGO    R514706   6.966  15.450   7.105 -0.3596  0.0499 -0.0354
 1336ERGO    C114707   6.956  15.381   7.480  0.2450  0.0030 -0.0194
 1336ERGO    C214708   6.983  15.400   7.790 -0.1975 -0.0824 -0.4558
 1337ERGO   ROH14709  16.691   2.592   6.780  0.0922 -0.2595  0.0326
 1337ERGO    R114710  16.850   2.531   7.007  0.0866 -0.1221  0.0741
 1337ERGO    R214711  17.118   2.595   7.023  0.0685 -0.0518  0.0699
 1337ERGO    R314712  17.042   2.718   7.253  0.0211  0.0316  0.0106
 1337ERGO    R414713  17.291   2.581   7.321 -0.0777 -0.0871  0.1538
 1337ERGO    R514714  17.101   2.563   7.425 -0.1392  0.0304  0.0680
 1337ERGO    C114715  17.320   2.687   7.711 -0.2073 -0.0294  0.1469
 1337ERGO    C214716  17.300   2.748   7.992 -0.1776 -0.0410 -0.1485
 1338ERGO   ROH14717  16.922   4.667   6.753  0.1215 -0.2900  0.2194
 1338ERGO    R114718  16.783   4.719   6.994 -0.0762 -0.2805  0.1063
 1338ERGO    R214719  16.621   4.531   7.116  0.1959 -0.4467  0.2241
 1338ERGO    R314720  16.779   4.581   7.331  0.0221  0.0536  0.2479
 1338ERGO    R414721  16.526   4.488   7.445  0.1421 -0.3097  0.2268
 1338ERGO    R514722  16.630   4.673   7.494 -0.2179 -0.0626  0.0987
 1338ERGO    C114723  16.618   4.511   7.839 -0.0523  0.2397  0.2507
 1338ERGO    C214724  16.443   4.602   8.219 -0.0895  0.0762  0.0526
 1339ERGO   ROH14725  10.585  13.527   6.317 -0.5715  0.1484 -0.1956
 1339ERGO    R114726  10.659  13.480   6.585 -0.2547  0.1590 -0.2782
 1339ERGO    R214727  10.533  13.602   6.798 -0.1516  0.0012 -0.1250
 1339ERGO    R314728  10.501  13.346   6.884  0.1672 -0.0486 -0.1389
 1339ERGO    R414729  10.524  13.505   7.130 -0.2974  0.0119 -0.1248
 1339ERGO    R514730  10.643  13.330   7.077  0.0258  0.1867 -0.0095
 1339ERGO    C114731  10.489  13.208   7.404 -0.0830 -0.0286 -0.1377
 1339ERGO    C214732  10.253  13.142   7.738 -0.3584  0.1371 -0.1927
 1340ERGO   ROH14733   1.167  16.570   7.044  0.0680 -0.0581  0.0332
 1340ERGO    R114734   1.296  16.577   7.295  0.0361  0.0089  0.0466
 1340ERGO    R214735   1.212  16.740   7.502 -0.0610 -0.0276  0.0266
 1340ERGO    R314736   1.207  16.506   7.641  0.0338 -0.0225  0.0420
 1340ERGO    R414737   1.253  16.713   7.844  0.0292  0.0178  0.0206
 1340ERGO    R514738   1.374  16.534   7.810  0.0735  0.0407  0.0013
 1340ERGO    C114739   1.273  16.478   8.174  0.1707  0.0488  0.0313
 1340ERGO    C214740   1.228  16.333   8.507  0.3176  0.0298 -0.5065
 1341ERGO   ROH14741  10.085   7.812   8.219 -0.0073  0.0467 -0.0647
 1341ERGO    R114742   9.994   7.964   8.440 -0.2403 -0.2354  0.0392
 1341ERGO    R214743   9.916   7.847   8.678  0.2013 -0.5072  0.0637
 1341ERGO    R314744  10.099   8.018   8.784 -0.1381 -0.0775 -0.0170
 1341ERGO    R414745   9.930   7.942   9.010  0.1938 -0.5558  0.0778
 1341ERGO    R514746   9.976   8.145   8.945 -0.3448 -0.4156  0.0964
 1341ERGO    C114747  10.109   8.158   9.303 -0.1291 -0.1807  0.0104
 1341ERGO    C214748  10.169   8.410   9.599  0.0080  0.2701  0.1888
 1342ERGO   ROH14749   2.018   5.605   6.759  0.0400  0.0419  0.0858
 1342ERGO    R114750   2.032   5.695   7.027 -0.0524  0.0928  0.0738
 1342ERGO    R214751   1.862   5.602   7.224  0.0704 -0.0896  0.0949
 1342ERGO    R314752   2.095   5.546   7.353  0.1489  0.2073  0.0890
 1342ERGO    R414753   1.887   5.521   7.559  0.1654 -0.1800  0.0664
 1342ERGO    R514754   2.067   5.644   7.570 -0.0144  0.0871  0.1248
 1342ERGO    C114755   2.121   5.422   7.875  0.2944  0.0462  0.0443
 1342ERGO    C214756   2.157   5.304   8.160 -0.0537 -0.0061  0.0209
 1343W        W14757   3.689  17.760   0.144 -0.1225  0.0526  0.1965
 1344W        W14758   3.386   3.989  14.570 -0.1753  0.1930  0.0790
 1345W        W14759  12.774  11.703   4.181 -0.1068 -0.0989  0.0260
 1346W        W14760   2.699   1.032  10.518  0.2144 -0.0010  0.1904
 1347W        W14761   9.386  14.806   1.973 -0.1878  0.0990 -0.0729
 1348W        W14762   3.823  10.372   4.468 -0.3392 -0.0251 -0.2470
 1349W        W14763  11.887  16.019   4.640 -0.0674  0.1253 -0.4865
 1350W        W14764  17.660  17.173   5.170 -0.2775 -0.0904  0.2550
 1351W        W14765  14.234   2.827  15.554 -0.0554  0.1689  0.0841
 1352W        W14766   7.331  16.195  16.255 -0.0054 -0.1170  0.1910
 1353W        W14767   7.701  17.352  10.297  0.2113  0.0870 -0.3289
 1354W        W14768  14.633   0.549   1.674  0.0618  0.1714  0.3430
 1355W        W14769   2.033  17.888  16.154 -0.1339 -0.0392 -0.0701
 1356W        W14770   6.753  10.849  15.396  0.0786 -0.1759 -0.1793
 1357W        W14771   1.320  17.745   3.820  0.1166 -0.0913 -0.0203
 1358W        W14772  18.161  17.754   1.351  0.1450 -0.0645  0.1162
 1359W        W14773  12.027  17.412   1.486 -0.0676 -0.0401  0.4009
 1360W        W14774   0.915  14.749  11.995 -0.0420 -0.1027  0.3717
 1361W        W14775   5.035  10.472  16.154  0.1485 -0.0302  0.3361
 1362W        W14776  12.797  17.103  14.847 -0.0230 -0.1326  0.1073
 1363W        W14777   9.867  10.137  11.506  0.1343  0.3536 -0.2919
 1364W        W14778   2.652  12.712  11.339  0.2816  0.3996  0.1903
 1365W        W14779   3.576  16.015  12.770 -0.1477  0.0105 -0.0850
 1366W        W14780   4.834   8.333   5.635 -0.1249 -0.2365 -0.1542
 1367W        W14781   2.969   2.264  10.417  0.0498  0.1231 -0.1095
 1368W        W14782  16.715  16.209   2.505 -0.0084 -0.1366  0.1974
 1369W        W14783   6.332   0.293   4.272 -0.2918  0.0543  0.3048
 1370W        W14784  15.286  18.274  14.244  0.3233  0.1091  0.1398
 1371W        W14785  11.409   4.137  10.868 -0.3289 -0.0360  0.1044
 1372W        W14786  12.725  17.313   9.722  0.2247  0.0620  0.0758
 1373W        W14787  12.426  12.176   3.912 -0.0105  0.1078 -0.1512
 1374W        W14788   1.626  10.462   5.438 -0.2127 -0.0972  0.1032
 1375W        W14789   5.805   1.167   0.402  0.0831 -0.1199  0.0010
 1376W        W14790   8.014   8.108   5.664 -0.3479  0.3691  0.0041
 1377W        W14791   4.429  10.930   5.300  0.1528  0.3333 -0.4195
 1378W        W14792  16.624   9.045   2.646 -0.2940 -0.0639 -0.0771
 1379W        W14793  15.016   8.243   5.925  0.2206  0.2240  0.1142
 1380W        W14794   7.731   9.116   4.607  0.0305  0.0420  0.0143
 1381W        W14795   7.336  14.882   1.569 -0.0663  0.1644  0.1672
 1382W        W14796  15.989  11.393   5.253 -0.1875  0.0847  0.2545
 1383W        W14797   5.458   1.220   0.091  0.0871 -0.1132 -0.0944
 1384W        W14798   9.667   6.753   0.889  0.0925  0.4189  0.1093
 1385W        W14799   8.046   2.679  13.985  0.1280 -0.0446 -0.2197
 1386W        W14800   1.174  16.531  14.677 -0.1309 -0.0537 -0.2179
 1387W        W14801  14.811   5.538  13.779 -0.2001 -0.1201  0.1104
 1388W        W14802   8.117  17.541   4.828 -0.0075 -0.3746  0.0976
 1389W        W14803   1.493  17.611   4.323  0.1676 -0.2905  0.0265
 1390W        W14804   7.547  14.514  14.597 -0.4449  0.2690  0.0838
 1391W        W14805  10.004  11.395  12.811  0.1933  0.0766  0.0503
 1392W        W14806   4.305   4.703   5.781 -0.0318 -0.0753 -0.0676
 1393W        W14807   3.744  11.056   5.852  0.0166 -0.1265  0.4693
 1394W        W14808   0.147   9.278  15.905  0.1147 -0.1338 -0.1925
 1395W        W14809  16.970   2.070  10.460  0.0714  0.2353  0.0400
 1396W        W14810   4.469  12.141   1.803  0.0355 -0.2765 -0.1838
 1397W        W14811   1.648   7.069  16.116 -0.0700 -0.2471  0.1421
 1398W        W14812   7.096  14.216  10.565 -0.0803 -0.0344  0.0609
 1399W        W14813   5.726  12.651   5.451 -0.2720 -0.2820 -0.1537
 1400W        W14814  17.635  17.834  14.061  0.0972  0.0730  0.1853
 1401W        W14815   3.881  17.170   4.774  0.1649 -0.1163 -0.0073
 1402W        W14816   5.523   6.852  16.234  0.0836  0.2601 -0.0206
 1403W        W14817  13.948   7.219  15.476 -0.3394  0.0891  0.0018
 1404W        W14818   8.289   6.063   4.916 -0.0816 -0.1737  0.2365
 1405W        W14819   1.111   6.864   4.434  0.0797  0.0696  0.1628
 1406W        W14820   7.169  16.183  11.108  0.1606 -0.1974 -0.0485
 1407W        W14821   7.542  17.906   4.111 -0.0317  0.0635 -0.0996
 1408W        W14822  15.799  14.692   2.224 -0.0827 -0.2030 -0.0067
 1409W        W14823   3.085  15.284  12.155  0.0485  0.0652  0.4936
 1410W        W14824   8.111  14.839   9.820 -0.0018 -0.2105  0.1826
 1411W        W14825  10.612   6.272   4.574  0.0496 -0.1048  0.0257
 1412W        W14826   8.902  14.608  11.413 -0.0334 -0.0680 -0.2874
 1413W        W14827  14.311   9.708   5.468  0.0226  0.3382  0.1456
 1414W        W14828  11.083   5.087  16.133  0.0427  0.1717  0.0433
 1415W        W14829  15.365   5.955   4.937 -0.1399  0.0540  0.2673
 1416W        W14830   6.231   2.540   4.993 -0.2522  0.1064 -0.0791
 1417W        W14831   2.114   2.427   2.931 -0.0250  0.1896  0.2177
 1418W        W14832   0.734   3.138  12.126  0.0396 -0.2988 -0.1359
 1419W        W14833   9.520  11.126   0.949  0.0209 -0.2304  0.1216
 1420W        W14834   6.865   9.425  10.306 -0.5160  0.1469 -0.2479
 1421W        W14835   8.290   8.305  11.134  0.0495  0.0761  0.2388
 1422W        W14836   7.780   9.559   4.168  0.0871 -0.0722 -0.2612
 1423W        W14837   5.480   1.190   0.858  0.3975  0.1674 -0.2696
 1424W        W14838  14.447   7.523   4.619  0.1353  0.1146  0.0865
 1425W        W14839   3.016  10.103   0.382  0.1947 -0.1892 -0.4072
 1426W        W14840   8.754  11.475   1.668  0.1548 -0.0243 -0.0394
 1427W        W14841   8.811   1.394   4.771  0.1184  0.0408  0.1595
 1428W        W14842  12.246   5.455  14.657  0.1823  0.2564 -0.0587
 1429W        W14843  14.977  14.008  11.301  0.2127  0.2982 -0.0391
 1430W        W14844  10.317   3.016   4.873 -0.0010  0.3731 -0.3452
 1431W        W14845   3.602   0.437  14.702  0.3181 -0.0710 -0.1120
 1432W        W14846   2.730  14.905   2.970 -0.2228 -0.0136  0.1330
 1433W        W14847  10.316   5.481  13.743 -0.0699  0.1117 -0.1560
 1434W        W14848  17.404   9.601   3.913  0.0425  0.1996  0.0320
 1435W        W14849   6.669  17.840   3.471  0.1690  0.2738  0.2408
 1436W        W14850  13.864  12.486  11.159 -0.0561 -0.3294  0.2014
 1437W        W14851  13.305  15.594   2.211 -0.1750 -0.1022 -0.0307
 1438W        W14852  16.615  15.576  14.127 -0.1071  0.1103 -0.3025
 1439W        W14853  16.952   1.657  13.169 -0.1280 -0.1645 -0.2477
 1440W        W14854  13.006  10.141  14.882 -0.1806  0.2023  0.1627
 1441W        W14855   7.203  11.119   2.305  0.1438 -0.3220 -0.0432
 1442W        W14856   2.796  14.647   3.701  0.3328  0.2928 -0.2309
 1443W        W14857   4.649  16.215  14.393  0.0014  0.1483  0.5623
 1444W        W14858  18.361  18.107   0.828  0.3074 -0.4840  0.2305
 1445W        W14859   2.177  12.189   1.382  0.0291  0.1023  0.1689
 1446W        W14860  12.629  11.784  11.549 -0.0877 -0.1219 -0.0922
 1447W        W14861  14.536  14.854   1.871 -0.3213  0.2645  0.0286
 1448W        W14862   0.132   7.222  11.065 -0.0624  0.3177  0.1792
 1449W        W14863  15.476   8.184   5.741  0.1605  0.0206  0.3121
 1450W        W14864  18.217  14.003   5.002 -0.0924  0.1087 -0.2032
 1451W        W14865   0.269   7.905   0.892 -0.4219 -0.0864  0.3459
 1452W        W14866   5.604  10.736  15.052  0.3640  0.2593  0.0894
 1453W        W14867  12.372   1.418  13.104  0.3426 -0.1259 -0.1903
 1454W        W14868  10.583  10.664  14.843 -0.0715  0.0690 -0.0573
 1455W        W14869   5.351  16.445  16.057  0.0468 -0.1769  0.0121
 1456W        W14870  11.250   9.174  10.375  0.0720 -0.5451  0.2699
 1457W        W14871  12.823  15.990   1.480 -0.2377 -0.0939 -0.2443
 1458W        W14872   5.972  18.157   1.903  0.3810  0.0554 -0.1676
 1459W        W14873  12.258   5.137  12.173 -0.3596  0.1320 -0.1453
 1460W        W14874   5.396   5.474   3.880  0.1003 -0.2690  0.1762
 1461W        W14875  11.184  11.006  16.062  0.1373 -0.0331  0.2254
 1462W        W14876  16.203  15.013   4.178 -0.1273  0.0632 -0.3622
 1463W        W14877  10.619   8.829   0.974  0.0678  0.0978  0.2655
 1464W        W14878   0.397   4.274   2.888 -0.1801  0.0995  0.1977
 1465W        W14879  10.824   0.635   4.355  0.2389 -0.0380 -0.0045
 1466W        W14880  11.245   0.044   4.696  0.0591 -0.3076  0.0436
 1467W        W14881  10.189  10.937   3.349 -0.3158  0.3181  0.0198
 1468W        W14882  10.089   8.892   2.695 -0.0336  0.0901 -0.0867
 1469W        W14883   1.428  12.355   1.331 -0.3563 -0.0538  0.0415
 1470W        W14884  17.491  16.885   4.684 -0.2660  0.2245 -0.3094
 1471W        W14885  11.231   5.650   0.527  0.0624 -0.1479  0.2268
 1472W        W14886   5.519  14.248  14.691 -0.1029  0.4809  0.4874
 1473W        W14887  16.873   2.128   3.745  0.1529 -0.0385 -0.0937
 1474W        W14888  15.913   4.289   2.184 -0.0372 -0.1881 -0.1197
 1475W        W14889   1.698  12.591  14.601  0.0317  0.1208 -0.1541
 1476W        W14890   5.130  15.099  11.367  0.1107  0.1221 -0.1157
 1477W        W14891   1.402   4.302  11.480  0.1869 -0.1291  0.2510
 1478W        W14892  14.199   0.623   5.819  0.0152 -0.0456  0.0168
 1479W        W14893   4.430  13.036  15.208 -0.2803 -0.1241  0.1387
 1480W        W14894   9.494   6.154  11.075 -0.1656  0.3908 -0.0716
 1481W        W14895  18.365  15.095  15.765 -0.1440  0.1891  0.1312
 1482W        W14896  13.727   6.468  14.638 -0.2025  0.3542  0.1411
 1483W        W14897  16.988   4.688   3.129  0.1087 -0.1777  0.4019
 1484W        W14898   8.577  18.408   0.394 -0.0233  0.1774  0.0200
 1485W        W14899   1.583   7.559  15.508 -0.1574 -0.0591  0.2343
 1486W        W14900  17.596   7.470   4.104 -0.0455  0.1541 -0.0927
 1487W        W14901  17.842  13.260   5.187 -0.1368 -0.2186 -0.1186
 1488W        W14902  11.695   2.702  13.007  0.1359  0.0221  0.0835
 1489W        W14903   1.306   2.001  12.887 -0.0164 -0.1092 -0.0469
 1490W        W14904   3.290   7.372  15.944 -0.0402  0.4884 -0.0956
 1491W        W14905  16.343   6.928   2.557 -0.1002  0.2053 -0.1002
 1492W        W14906   6.568   7.843  14.720 -0.1178  0.1462 -0.4021
 1493W        W14907   6.334  11.482   2.765 -0.2968  0.2903  0.1628
 1494W        W14908   7.582   4.695  15.486  0.1330 -0.0637  0.0511
 1495W        W14909   7.031   5.712  10.123 -0.2847 -0.1179 -0.0762
 1496W        W14910   0.937   5.430  10.258  0.1050 -0.0794  0.0925
 1497W        W14911  12.354   9.850   1.546 -0.1867  0.0173  0.4669
 1498W        W14912  17.288   6.059  15.729  0.0503  0.0024  0.0955
 1499W        W14913   0.140   5.045   4.250 -0.1773  0.0840  0.1037
 1500W        W14914  13.780   2.298   0.100 -0.3693  0.0500 -0.0217
 1501W        W14915   5.281  16.582  14.445 -0.0361 -0.0374  0.2213
 1502W        W14916  10.303  14.454  10.975 -0.2756 -0.2842 -0.3104
 1503W        W14917   2.118  12.035   0.048 -0.4938 -0.0348 -0.2393
 1504W        W14918  15.531   0.770  15.224 -0.2100 -0.0555 -0.1361
 1505W        W14919  13.912  10.696  11.943 -0.3813  0.2809 -0.1630
 1506W        W14920  15.219  13.933  15.896 -0.1366  0.1514 -0.1360
 1507W        W14921  13.507   3.438   0.967 -0.0851 -0.0680 -0.1882
 1508W        W14922   0.662   5.592  15.163 -0.3199  0.1343 -0.1065
 1509W        W14923   7.057  17.912   0.911 -0.0161  0.0508 -0.2450
 1510W        W14924   2.834   6.392  11.702 -0.3314  0.3644  0.0930
 1511W        W14925  16.552  12.740  16.217 -0.3375  0.1907  0.2874
 1512W        W14926   7.836  17.854  11.038  0.3976  0.2692 -0.1854
 1513W        W14927  16.837  10.375  16.108  0.0028  0.0484  0.1554
 1514W        W14928  14.919  10.212  11.303  0.0970 -0.0543 -0.1262
 1515W        W14929   8.688  15.562   2.276  0.1618  0.2052 -0.1113
 1516W        W14930  15.835   1.711  10.330  0.2326 -0.0749 -0.3739
 1517W        W14931  16.051  14.278   4.483  0.0023  0.0147 -0.0098
 1518W        W14932   2.153   9.378  13.500 -0.0175  0.0334  0.0243
 1519W        W14933  11.815  17.678   0.626  0.1238 -0.1013 -0.0746
 1520W        W14934  13.133   0.133  13.328 -0.1759  0.0855  0.3565
 1521W        W14935  10.413   3.630  10.481  0.1290  0.0870  0.1518
 1522W        W14936  13.013  17.218  10.601 -0.2191  0.4555 -0.0208
 1523W        W14937  12.984  10.974  15.245  0.0488 -0.2983  0.0858
 1524W        W14938  18.010  17.982   4.643  0.0509  0.1444  0.1678
 1525W        W14939  13.083   6.010  14.209  0.0026  0.3243  0.0642
 1526W        W14940   2.620   4.149   6.299 -0.0469 -0.0049  0.0257
 1527W        W14941   7.055  13.213  10.825 -0.0567 -0.0614  0.0281
 1528W        W14942  17.100   4.175  14.509  0.0405  0.2145 -0.1527
 1529W        W14943   6.749   1.656  11.055  0.2174 -0.3292 -0.3818
 1530W        W14944   8.039   9.067   3.024  0.0784 -0.1856  0.0293
 1531W        W14945   8.471  13.528  10.791 -0.2621 -0.0544  0.0172
 1532W        W14946  13.240  14.849   0.904  0.1559 -0.0677 -0.0601
 1533W        W14947   6.571  14.612  14.668 -0.1129  0.1315  0.1949
 1534W        W14948  16.582  13.572  14.120  0.0749 -0.3311 -0.0710
 1535W        W14949   1.293  13.574   0.620 -0.4985  0.0508  0.0346
 1536W        W14950  13.176   4.742   6.106  0.0223  0.5945 -0.1214
 1537W        W14951   6.257   0.344  11.453 -0.2072  0.5029 -0.0429
 1538W        W14952   0.230   0.114  15.883  0.3153 -0.1499  0.2379
 1539W        W14953  14.549   9.862   0.132  0.0209  0.3073 -0.2600
 1540W        W14954   5.384  16.256   1.829 -0.0267  0.2314 -0.2236
 1541W        W14955  13.051  16.043   2.337 -0.0728  0.2222  0.1248
 1542W        W14956  14.422  14.992   0.523 -0.0358  0.0862 -0.3404
 1543W        W14957   0.809   5.692   0.410 -0.1353 -0.1727 -0.2994
 1544W        W14958   3.041  10.419   5.720 -0.2363  0.0557  0.2125
 1545W        W14959  12.077   8.224  14.342 -0.1648 -0.0759 -0.0379
 1546W        W14960  15.141  14.070  10.763  0.0579  0.1711 -0.1734
 1547W        W14961  15.293  11.934   3.418 -0.1546  0.4725 -0.1370
 1548W        W14962  12.978   3.730  13.589  0.0871  0.2540 -0.1013
 1549W        W14963   8.768   9.062  11.823  0.0869  0.0083 -0.2434
 1550W        W14964  15.207  12.729   0.052 -0.0213  0.0272 -0.0233
 1551W        W14965   2.166  16.190   3.067  0.0103 -0.1447 -0.0132
 1552W        W14966   3.796  12.173  13.289 -0.3720  0.1341 -0.1653
 1553W        W14967   3.659  11.340  11.714 -0.3498 -0.0820  0.1420
 1554W        W14968   0.646  11.286  13.856  0.0573 -0.3666 -0.4533
 1555W        W14969  10.216  13.219   0.358 -0.1802 -0.0662 -0.0063
 1556W        W14970  13.117   5.369   5.705  0.0649  0.3138  0.0326
 1557W        W14971   6.671  18.117  11.828 -0.2546  0.2508  0.3768
 1558W        W14972   0.559   4.522  10.953  0.1811  0.1901 -0.0561
 1559W        W14973  15.076  14.702   1.111 -0.2105  0.4038 -0.0505
 1560W        W14974  17.981  15.571  13.244  0.0288 -0.0562  0.1370
 1561W        W14975  13.560  12.064   5.321 -0.3352 -0.0097  0.0359
 1562W        W14976  17.842   1.689   2.046 -0.1937  0.0696  0.3088
 1563W        W14977   6.275   3.634   2.069 -0.0938  0.1510  0.0227
 1564W        W14978  14.048   8.690   1.460 -0.0036  0.1600  0.5147
 1565W        W14979  12.564  16.369   9.818  0.0389 -0.0760 -0.0055
 1566W        W14980   4.610   0.079   2.528  0.1053 -0.3499  0.0330
 1567W        W14981  17.897   8.777  15.925 -0.2061  0.1588 -0.0451
 1568W        W14982   7.204   0.230  10.386  0.0456 -0.0350  0.0425
 1569W        W14983   1.499   5.596   2.118  0.0867 -0.0179 -0.2142
 1570W        W14984  11.459  12.390   2.983  0.0172 -0.0862  0.1712
 1571W        W14985   4.447   9.416   0.869  0.1207  0.0239  0.4485
 1572W        W14986  12.611  11.470  14.601 -0.0291 -0.1976 -0.1767
 1573W        W14987  10.381   4.805  13.230  0.0306 -0.1891 -0.3196
 1574W        W14988   0.429   7.616   0.424 -0.3312 -0.0227  0.0010
 1575W        W14989   3.095   9.320  11.039 -0.1980 -0.2034 -0.2952
 1576W        W14990   9.187  15.992  11.499  0.2139 -0.3298  0.0067
 1577W        W14991  10.405  18.262  14.235  0.0759  0.1047 -0.4541
 1578W        W14992   3.110  11.215  14.088  0.3451 -0.1198 -0.1117
 1579W        W14993   5.267   4.574   2.249  0.0853  0.0089 -0.1939
 1580W        W14994   4.814   6.676   4.904 -0.2530  0.0067 -0.0637
 1581W        W14995  13.562   3.392   4.298 -0.0521  0.1642 -0.1039
 1582W        W14996   5.619   7.528  13.173  0.0059 -0.1487 -0.0620
 1583W        W14997   5.512  12.365   1.264 -0.0449  0.0403 -0.2550
 1584W        W14998   0.535   8.041  15.959 -0.2888  0.0302 -0.3441
 1585W        W14999   9.614   2.204  11.082 -0.0474  0.0428 -0.1124
 1586W        W15000   5.288  14.222   1.311 -0.0319 -0.0575  0.2313
 1587W        W15001   2.322   7.854   1.674  0.1358 -0.2227  0.1253
 1588W        W15002  18.238   5.213   1.257  0.3350 -0.2871 -0.1780
 1589W        W15003   7.189   6.679  11.260  0.0521  0.0726  0.1587
 1590W        W15004  17.676  17.012  10.255 -0.2076 -0.0727 -0.2841
 1591W        W15005  11.914  12.482  15.726 -0.3320 -0.0244 -0.0492
 1592W        W15006  13.100   9.116   2.835  0.1761 -0.1187 -0.0892
 1593W        W15007  14.102  16.071  13.351  0.1638  0.0665 -0.2312
 1594W        W15008   3.233  10.929   1.088 -0.1191 -0.3922  0.0563
 1595W        W15009   0.249  13.849  11.448 -0.0138  0.0197  0.0760
 1596W        W15010  16.662   9.152   5.961  0.0136 -0.0701 -0.0010
 1597W        W15011   7.097  12.444   2.897 -0.2457 -0.2333  0.1693
 1598W        W15012   2.192   0.125  14.308 -0.1626 -0.1892 -0.0411
 1599W        W15013  11.400  10.362  15.473  0.0295  0.0030  0.0378
 1600W        W15014   9.497   3.169   3.714 -0.1830 -0.1314  0.0936
 1601W        W15015   1.417   3.215   9.959 -0.0419 -0.1895  0.0840
 1602W        W15016   3.095   0.517  15.698 -0.0553  0.0895 -0.0219
 1603W        W15017   2.477  10.267   2.787  0.2095 -0.0463  0.0337
 1604W        W15018  17.180  13.665   6.111  0.2905  0.0539 -0.0626
 1605W        W15019  11.815   9.697   2.919  0.0131  0.3273 -0.0786
 1606W        W15020   0.547   6.145  15.556  0.3785  0.1550 -0.1248
 1607W        W15021  16.947   6.871  12.040 -0.0869 -0.0006  0.1035
 1608W        W15022  13.966  10.241   4.368 -0.1524 -0.1506 -0.3081
 1609W        W15023   8.364   9.241  15.124 -0.1063 -0.2379 -0.4862
 1610W        W15024   5.512  11.659  12.872  0.0168 -0.2739  0.0603
 1611W        W15025   1.444  17.586   6.570 -0.1270  0.0168 -0.2176
 1612W        W15026  10.532  14.129   2.015  0.1172  0.3747 -0.0330
 1613W        W15027   4.864  14.700  14.055 -0.1644 -0.2570  0.1528
 1614W        W15028  13.736   4.099  14.763  0.2102 -0.0686 -0.0536
 1615W        W15029  13.421   5.564   1.107 -0.0405 -0.0736 -0.1909
 1616W        W15030  10.612   4.901   1.733 -0.1515  0.2706 -0.0505
 1617W        W15031  17.254   1.073  13.042 -0.1242 -0.2711 -0.0519
 1618W        W15032   2.358   5.532   4.484 -0.0645  0.2921  0.1666
 1619W        W15033   9.563   3.632   3.350 -0.3220 -0.1925 -0.2227
 1620W        W15034   4.686   2.449  11.180  0.1332  0.2101 -0.1751
 1621W        W15035   8.928   7.043  14.642  0.0316 -0.2823 -0.0025
 1622W        W15036   5.382   1.767  10.569 -0.0251  0.0525  0.3365
 1623W        W15037  15.536   3.090   1.077 -0.1678 -0.2559  0.2611
 1624W        W15038   9.542   5.835   2.829 -0.1880  0.0191 -0.3992
 1625W        W15039  11.476   3.978   2.740 -0.4212 -0.5184 -0.0283
 1626W        W15040  12.972   0.085  16.269  0.0450  0.2661 -0.3312
 1627W        W15041  17.527   0.308  11.825 -0.2369 -0.0185 -0.1142
 1628W        W15042  17.563   1.379  14.862  0.2089 -0.2111  0.3106
 1629W        W15043  11.508   1.641   9.642 -0.1595  0.1088 -0.2592
 1630W        W15044   5.989  12.339  11.073 -0.0101  0.0482  0.0329
 1631W        W15045  11.498  11.107   2.505  0.3011  0.1648  0.1879
 1632W        W15046   5.668   9.939   5.322  0.1203 -0.0066  0.3082
 1633W        W15047   5.648   8.503   0.025 -0.1501  0.2411  0.0913
 1634W        W15048   6.663  18.293   3.742  0.0966 -0.1149  0.2130
 1635W        W15049   5.331   6.364  14.427 -0.3681 -0.0473  0.4050
 1636W        W15050   7.043  11.914   2.255 -0.0817  0.1143 -0.2423
 1637W        W15051  14.178  14.600   4.400 -0.3538  0.2465 -0.4343
 1638W        W15052  17.645   5.005   0.363  0.0727 -0.1914  0.0754
 1639W        W15053   1.659   1.218  13.060  0.1609  0.2323 -0.0536
 1640W        W15054  14.840   9.200  14.736  0.0053 -0.4320 -0.2162
 1641W        W15055  17.325   2.377   1.954 -0.3411 -0.0122  0.1752
 1642W        W15056  16.635  15.957   9.945 -0.2301  0.0496  0.2881
 1643W        W15057   9.605   1.701  13.849 -0.1975 -0.1434  0.2015
 1644W        W15058   3.184   9.804  11.098 -0.1607 -0.1431  0.2517
 1645W        W15059   7.848  13.893  15.582 -0.2690 -0.0441 -0.1413
 1646W        W15060  14.696   6.150   0.008  0.0345 -0.2087 -0.4011
 1647W        W15061  14.030   1.112   1.478  0.0233 -0.2217 -0.1320
 1648W        W15062  17.498   7.382  12.929 -0.0493 -0.0886 -0.3907
 1649W        W15063  12.557  17.944  10.829  0.0762  0.1612  0.4558
 1650W        W15064   9.876   2.494  13.074  0.1332  0.0275  0.1886
 1651W        W15065  15.954  15.567   2.576 -0.0037  0.2604  0.2080
 1652W        W15066   6.075   5.518   0.238 -0.0524 -0.0585  0.0228
 1653W        W15067   5.897   2.311  15.922  0.0332 -0.2450  0.2824
 1654W        W15068  16.778  16.518   4.779 -0.1054  0.2405  0.0656
 1655W        W15069   8.900   9.131   5.360 -0.1381  0.1489 -0.1198
 1656W        W15070   4.834   4.439  16.036  0.1347  0.3710  0.2974
 1657W        W15071  16.977   7.547  14.816 -0.0403 -0.2973 -0.0942
 1658W        W15072   6.027   5.700  14.674  0.0018  0.3844 -0.1087
 1659W        W15073  13.463   1.775   0.001  0.0820 -0.0730 -0.5540
 1660W        W15074  11.973   6.409   5.604 -0.1235 -0.1993  0.1295
 1661W        W15075   1.685  13.410  15.353  0.0363 -0.1775  0.1338
 1662W        W15076  13.194   6.645   2.344  0.1846  0.0627 -0.0241
 1663W        W15077   7.736  18.189  10.100 -0.1594 -0.1233 -0.3657
 1664W        W15078   3.360   2.830   5.723 -0.0323 -0.1764 -0.1099
 1665W        W15079  11.494   0.591   0.191  0.0778  0.0867 -0.1790
 1666W        W15080   8.082  16.859   3.921  0.0759 -0.0092 -0.0150
 1667W        W15081   4.314   1.762  12.857 -0.3402 -0.0508  0.0777
 1668W        W15082   3.859  14.830   1.310 -0.4032 -0.3291 -0.1311
 1669W        W15083  15.224   9.551  15.785 -0.1860 -0.1320 -0.0141
 1670W        W15084   4.442  16.779  14.050 -0.1785  0.0941 -0.0448
 1671W        W15085  17.104  13.356  13.915 -0.0462  0.1240 -0.1809
 1672W        W15086   9.546  15.807   3.811 -0.1791  0.0477  0.0925
 1673W        W15087   9.668  16.100  12.251 -0.0622 -0.0888 -0.0571
 1674W        W15088  16.998   2.998  13.166 -0.1606 -0.0640 -0.5053
 1675W        W15089   1.772   2.589   3.253  0.3272 -0.0320 -0.2035
 1676W        W15090   8.562   5.162   2.386 -0.0762  0.2531  0.3120
 1677W        W15091  13.783   2.660   1.556  0.0966 -0.1415 -0.0589
 1678W        W15092   6.881  10.229   4.766  0.0409  0.0808 -0.0800
 1679W        W15093   6.703   0.676   4.312  0.0981 -0.3292  0.1535
 1680W        W15094  18.441   4.803   3.822 -0.0579 -0.0279  0.2512
 1681W        W15095   1.527  12.374   2.285  0.2618 -0.1894  0.0466
 1682W        W15096  10.102  10.477   3.780  0.0977 -0.2107  0.2260
 1683W        W15097   5.430   0.714  12.672 -0.0427 -0.2923 -0.0202
 1684W        W15098  16.387   5.697   4.919 -0.0836  0.0762 -0.1963
 1685W        W15099   4.914  16.477   1.778 -0.0184  0.0377 -0.0692
 1686W        W15100   9.352   7.261   6.221  0.1844 -0.0238  0.1949
 1687W        W15101  10.052  16.944   2.209  0.0176  0.0448 -0.0340
 1688W        W15102  17.440  17.881   3.353  0.0614  0.1330  0.1095
 1689W        W15103   6.847   6.212   0.915  0.1308 -0.1139  0.0204
 1690W        W15104   9.477   2.096   2.844 -0.0526 -0.0814 -0.1016
 1691W        W15105   2.861  12.299  12.232 -0.0241  0.4101 -0.0588
 1692W        W15106  16.757   7.378   4.508  0.0791 -0.2015 -0.1237
 1693W        W15107  11.114   6.709  16.108 -0.0434 -0.0372 -0.2892
 1694W        W15108  13.023   4.181   0.985  0.2351  0.0798 -0.1619
 1695W        W15109   2.384  17.405   3.037 -0.1048 -0.2260  0.0099
 1696W        W15110   8.565   7.901  15.114  0.0303 -0.0325  0.1090
 1697W        W15111  12.783  13.948   0.853 -0.1005  0.4628 -0.1673
 1698W        W15112  17.510   2.426   4.429  0.0912 -0.3472 -0.1984
 1699W        W15113  13.248  11.872   0.370 -0.2846 -0.2583  0.1694
 1700W        W15114  17.760  18.074   2.486 -0.1630  0.0122  0.0123
 1701W        W15115  16.075  10.555   4.347 -0.1522  0.0444  0.1507
 1702W        W15116   3.193  12.976  14.617  0.1654  0.1498  0.1909
 1703W        W15117   7.688   0.593   0.355 -0.1973 -0.1534 -0.0421
 1704W        W15118  17.876  16.058   4.137 -0.2892  0.0780  0.1789
 1705W        W15119  10.953  15.309  15.972 -0.1432 -0.1129 -0.2912
 1706W        W15120  16.047   8.297  14.100 -0.1040 -0.0455 -0.3855
 1707W        W15121   6.739   0.854   1.934  0.3070  0.0252  0.1004
 1708W        W15122  14.647   4.956   0.024 -0.1131  0.2545  0.0884
 1709W        W15123  12.587   8.780  11.732  0.1904  0.1468  0.1644
 1710W        W15124   2.564  15.381  14.144  0.2607 -0.1341  0.0022
 1711W        W15125  16.791   7.107   2.290 -0.3279 -0.1137  0.4530
 1712W        W15126   1.469   1.402  14.479 -0.1311  0.0589 -0.3207
 1713W        W15127  18.055   0.041   2.591  0.2267 -0.1908  0.2962
 1714W        W15128  11.719   7.642  12.247  0.3064 -0.1986  0.1823
 1715W        W15129  15.252   1.658   3.727  0.1208  0.0209 -0.1716
 1716W        W15130   7.829   7.891   6.483 -0.3955 -0.0343  0.4053
 1717W        W15131   8.155  12.879   0.150 -0.0771  0.2655 -0.1093
 1718W        W15132  16.981   8.889   1.357 -0.0032 -0.1201  0.0681
 1719W        W15133   4.064   7.613  15.365 -0.0782 -0.0190  0.2032
 1720W        W15134  13.396  11.984   5.831 -0.0222 -0.1707 -0.1860
 1721W        W15135   3.067   4.343  10.912 -0.0704 -0.0868 -0.1907
 1722W        W15136  11.689  10.828  10.853  0.0475  0.1572  0.0410
 1723W        W15137   1.076   7.208  11.645 -0.0653 -0.3198  0.0781
 1724W        W15138   7.015   8.052   5.366  0.1670 -0.0588 -0.3190
 1725W        W15139  12.205  11.748   4.171 -0.0901 -0.0275  0.2996
 1726W        W15140   6.281   3.684   0.613  0.0636  0.0491 -0.0056
 1727W        W15141   1.770  16.125   5.182  0.2330 -0.0786 -0.1218
 1728W        W15142   2.553   4.473  10.664 -0.1565  0.0106  0.0091
 1729W        W15143   3.775   6.872   0.383  0.1293  0.0550  0.0156
 1730W        W15144   3.335   8.974  12.481  0.0353  0.2060 -0.2648
 1731W        W15145   4.615   8.948   3.872  0.0598 -0.0106  0.1417
 1732W        W15146   6.740  12.410   0.063  0.1253 -0.3299 -0.0076
 1733W        W15147  17.654  11.037   4.647  0.0102  0.1026  0.2272
 1734W        W15148   8.447   4.486   0.766  0.3769 -0.0164 -0.1192
 1735W        W15149  16.740  16.948   3.634 -0.0207  0.2765 -0.1505
 1736W        W15150   8.515  17.133  10.723 -0.2931 -0.3840  0.3849
 1737W        W15151  14.580  17.398  12.613 -0.0944  0.1537 -0.0653
 1738W        W15152  14.672  14.860  11.560  0.0854 -0.2832 -0.2128
 1739W        W15153   8.646  15.553   2.799  0.1306  0.1844  0.0523
 1740W        W15154  17.463   7.541   3.175 -0.1643  0.1227 -0.3329
 1741W        W15155   1.325   9.659   6.033  0.1884  0.1398 -0.1599
 1742W        W15156   8.083  13.989   2.729 -0.2518  0.2081 -0.4149
 1743W        W15157   7.953   4.823  14.529 -0.5550  0.3208 -0.0505
 1744W        W15158  17.124   2.323   0.963  0.0562 -0.1480 -0.6023
 1745W        W15159   4.290  15.055   2.957 -0.2387 -0.0680 -0.0010
 1746W        W15160   2.161  10.883   4.739 -0.0418 -0.3242 -0.0548
 1747W        W15161   7.767   3.431  13.368 -0.2479  0.0724  0.0418
 1748W        W15162  12.107  14.214  13.832  0.0105  0.0993 -0.0505
 1749W        W15163   2.215   5.662   0.697 -0.1627  0.0051 -0.2465
 1750W        W15164  11.003  10.823  10.861 -0.1334 -0.2588  0.1650
 1751W        W15165  13.108  16.752  10.624 -0.0155 -0.0680  0.2398
 1752W        W15166   3.889  17.227   0.074  0.1303  0.1498  0.0630
 1753W        W15167  10.953  10.660  13.903  0.0968 -0.0554 -0.0428
 1754W        W15168   2.117   1.528   3.901  0.0544 -0.3357 -0.0284
 1755W        W15169   3.503  16.835   4.382 -0.3241  0.2636  0.2722
 1756W        W15170   8.894  13.555   4.514 -0.0351  0.0304 -0.1521
 1757W        W15171  13.141   8.260   5.890 -0.2394  0.2268 -0.1189
 1758W        W15172  15.819  18.062  15.270 -0.1482  0.2194 -0.1171
 1759W        W15173  15.389  12.240   0.399 -0.2560  0.2156 -0.0312
 1760W        W15174  12.458  13.776  15.860 -0.2687 -0.3675  0.2181
 1761W        W15175  16.929   2.328   5.213  0.2313 -0.1760  0.2547
 1762W        W15176  11.878  18.069  10.524 -0.5013  0.0644  0.0477
 1763W        W15177  13.901   9.514   5.642 -0.4202 -0.0995  0.4996
 1764W        W15178   6.070  15.672  10.376  0.2938 -0.1237  0.0985
 1765W        W15179   2.146  10.750   2.976  0.1128  0.0672 -0.1717
 1766W        W15180   5.100   0.148   2.880 -0.0387  0.2771 -0.1002
 1767W        W15181   3.292  16.310   2.917  0.1622 -0.1744 -0.0958
 1768W        W15182  16.642  17.202  10.588  0.2467  0.0478 -0.1767
 1769W        W15183  17.409   6.198   5.541  0.0788 -0.0765  0.1544
 1770W        W15184   5.012   6.084  15.842  0.0396 -0.0262 -0.2113
 1771W        W15185   3.009  15.720  12.974 -0.0524 -0.0386 -0.0615
 1772W        W15186  16.764  10.875  11.289  0.0961  0.2134 -0.1167
 1773W        W15187   7.604  12.632  14.790 -0.0662 -0.3517  0.0368
 1774W        W15188  12.403   6.344   2.721  0.0041  0.2094  0.0769
 1775W        W15189   4.343   9.235  10.861  0.0707 -0.2933 -0.2872
 1776W        W15190   5.399  11.586   0.508 -0.1437 -0.1070  0.0664
 1777W        W15191  16.613   8.518   4.061  0.0687  0.1153 -0.2310
 1778W        W15192  14.758   5.724  15.892  0.0797 -0.2017 -0.1271
 1779W        W15193   2.941   1.978   4.175 -0.3638  0.1579  0.2112
 1780W        W15194  17.775   8.222  13.884 -0.0211 -0.3992 -0.1981
 1781W        W15195   6.821  16.489   0.878  0.0070 -0.5067 -0.0265
 1782W        W15196  15.620   5.344  10.092  0.0448  0.0266 -0.2028
 1783W        W15197   5.617  18.309  12.717  0.0045 -0.0272 -0.2465
 1784W        W15198   6.624   7.059  14.230 -0.1308 -0.3139  0.1627
 1785W        W15199   2.932  11.860  11.983 -0.0360 -0.1004  0.0849
 1786W        W15200  17.901  14.213  14.497  0.0973  0.1462 -0.5053
 1787W        W15201   7.733  16.318  15.177  0.0413 -0.0243  0.1595
 1788W        W15202  12.649   6.153   5.731  0.2964  0.1980  0.0756
 1789W        W15203   1.776  15.075  11.003 -0.0360 -0.4268  0.2917
 1790W        W15204  15.380  15.232   3.858  0.1641 -0.0395  0.0166
 1791W        W15205   7.783  18.332   5.325  0.3518 -0.1373  0.3530
 1792W        W15206   7.398  12.906   4.692  0.1510  0.2555 -0.0629
 1793W        W15207  14.144   7.724  11.446  0.2622  0.0043  0.0391
 1794W        W15208   9.606   7.653   2.964  0.0580 -0.1031  0.2210
 1795W        W15209   9.693   6.942   6.065  0.0553  0.1084 -0.2336
 1796W        W15210   4.844  10.872  13.908  0.0293  0.1828  0.3988
 1797W        W15211  18.005   4.330   4.203 -0.2048  0.0648 -0.2135
 1798W        W15212   9.202  10.303  14.973  0.1202  0.1091  0.3988
 1799W        W15213  16.186   9.367   0.192  0.1459 -0.1424  0.3091
 1800W        W15214  15.482   4.707  13.813 -0.0324 -0.0865 -0.1771
 1801W        W15215   3.403   1.500  14.766  0.1247  0.0400 -0.2811
 1802W        W15216   4.658   9.621   1.307  0.1192  0.2776 -0.0958
 1803W        W15217   8.131   4.983  14.012 -0.0692  0.2008 -0.0350
 1804W        W15218  11.757  15.538  14.631  0.0031 -0.1731  0.1173
 1805W        W15219  12.253   1.718   4.318 -0.2713 -0.0623  0.0676
 1806W        W15220   0.674  18.374  15.916 -0.2957 -0.0290  0.0718
 1807W        W15221   5.378   9.386   3.197 -0.0953  0.0650  0.0179
 1808W        W15222   2.007   6.625  12.478  0.1293 -0.0017 -0.0920
 1809W        W15223   4.273   4.648   0.753 -0.1523  0.0239  0.0387
 1810W        W15224  17.529   6.663   1.548 -0.3490 -0.2231  0.4269
 1811W        W15225  12.844  10.305   3.786  0.0289  0.2926 -0.0124
 1812W        W15226  14.718  11.254   2.382  0.0590  0.2924  0.3848
 1813W        W15227   2.380   6.502  15.291  0.0722 -0.0326  0.1323
 1814W        W15228   2.201   0.318   1.517 -0.1288  0.2692  0.0291
 1815W        W15229  14.764  12.632   5.063 -0.1104  0.4878  0.0091
 1816W        W15230  16.798  13.789   4.639 -0.1654  0.1851  0.0329
 1817W        W15231   9.789  13.040   5.180 -0.1692 -0.2080  0.0205
 1818W        W15232  15.697   5.629   5.665  0.0388 -0.0919 -0.0529
 1819W        W15233  17.074   3.406  10.957  0.0086 -0.1909 -0.1373
 1820W        W15234  17.907   0.341  13.831  0.1200  0.1877 -0.0175
 1821W        W15235   3.788  11.701   3.679 -0.2404  0.1426 -0.0889
 1822W        W15236   5.384   4.753  13.809 -0.3531  0.2998 -0.2421
 1823W        W15237   8.600  11.282   4.668  0.2312 -0.2187 -0.1039
 1824W        W15238  17.298   9.761   5.442 -0.0778 -0.1680 -0.0721
 1825W        W15239  12.921   9.631  13.889  0.1501  0.0297  0.1744
 1826W        W15240  16.000   1.703   1.740 -0.1082  0.0472  0.1591
 1827W        W15241   5.167   2.091   5.396 -0.1050  0.1062 -0.0398
 1828W        W15242   9.416   2.301  13.193 -0.1922 -0.3178 -0.1872
 1829W        W15243   4.299   3.122   4.769 -0.2093  0.3728 -0.0734
 1830W        W15244   2.101  11.370  15.996  0.1152 -0.0527  0.0934
 1831W        W15245  11.334  13.636   1.728 -0.4835  0.0158  0.0571
 1832W        W15246  18.081  11.320   4.597  0.1276  0.2948 -0.0104
 1833W        W15247   9.432  13.991   3.600 -0.2353  0.2661 -0.0400
 1834W        W15248  11.779   6.962  13.900 -0.4298  0.4653  0.1582
 1835W        W15249  15.916   0.826  11.872 -0.0730 -0.1662  0.0105
 1836W        W15250  15.268   3.898   0.898 -0.0387 -0.0678 -0.0260
 1837W        W15251   3.096   5.846   1.219 -0.0851  0.3737 -0.1073
 1838W        W15252   0.750  10.728  15.080 -0.1835 -0.0745 -0.1387
 1839W        W15253  16.993  18.443  15.737  0.2602  0.1478  0.2187
 1840W        W15254   7.188  12.388   5.254 -0.1725  0.0561  0.0762
 1841W        W15255   0.768   7.638   3.705 -0.0703  0.3500  0.0565
 1842W        W15256   9.690  13.709  15.003  0.0323 -0.3420  0.3163
 1843W        W15257   7.623  12.436   2.614 -0.2351  0.0295 -0.0419
 1844W        W15258  16.300   6.874  15.342 -0.1776  0.0059  0.0951
 1845W        W15259  16.980   5.483   0.634 -0.0585  0.0879  0.0077
 1846W        W15260   6.545   2.862  12.193  0.2439 -0.0423 -0.0415
 1847W        W15261  10.575  14.319   4.443  0.2222 -0.4718 -0.0025
 1848W        W15262   0.487   3.512  14.001 -0.1625 -0.3393 -0.1990
 1849W        W15263  13.398  11.490  14.278 -0.0119  0.1547 -0.0520
 1850W        W15264   0.038   0.905   0.307 -0.0970 -0.1828  0.0848
 1851W        W15265   5.047   4.333   5.137  0.1330  0.2143 -0.0270
 1852W        W15266   7.539   9.279  15.200 -0.3639  0.1772  0.0143
 1853W        W15267  14.023   9.726   4.278 -0.2288 -0.1676 -0.0724
 1854W        W15268   5.028  11.393   5.365 -0.0747  0.0685 -0.0167
 1855W        W15269  16.325   2.381  11.301 -0.1016  0.0039  0.1535
 1856W        W15270  15.859   0.988   4.496  0.1008 -0.1356  0.0308
 1857W        W15271   7.744   2.777   0.683 -0.1330 -0.2474  0.1403
 1858W        W15272   0.680  11.208   1.520  0.0266  0.1424  0.1469
 1859W        W15273   2.034  15.066  15.127 -0.0303 -0.2737 -0.1316
 1860W        W15274   9.116   4.214   3.775 -0.1892  0.0291  0.0532
 1861W        W15275  12.729  13.973  10.478  0.0168  0.2139  0.3732
 1862W        W15276  16.535   2.737  13.958 -0.1659  0.0016  0.0916
 1863W        W15277   8.270  17.903   1.990  0.0031  0.2869  0.2548
 1864W        W15278   7.599   6.788   3.834 -0.4074 -0.0840  0.2602
 1865W        W15279  16.249  10.695   5.735  0.0249 -0.1182  0.0460
 1866W        W15280  10.909   2.335   2.061 -0.1704 -0.4646 -0.0189
 1867W        W15281   7.222   3.254   4.846 -0.0245  0.1321 -0.0963
 1868W        W15282   9.311  14.263   0.963 -0.0979  0.1995  0.0588
 1869W        W15283   8.964   3.306   0.250  0.0964  0.1461  0.0363
 1870W        W15284  12.515   2.097  16.251 -0.1185 -0.2706 -0.1126
 1871W        W15285   1.999  15.424   5.577 -0.1173 -0.0987 -0.0873
 1872W        W15286   2.300   0.182  12.574 -0.1785 -0.0010 -0.1244
 1873W        W15287   7.728  11.825  12.940 -0.1330 -0.2079  0.0024
 1874W        W15288   4.172   3.450   2.817  0.2669  0.1630 -0.0919
 1875W        W15289   5.790   1.865  14.001  0.2049  0.1930  0.0450
 1876W        W15290   4.240  10.604   9.826  0.0195 -0.0379  0.0945
 1877W        W15291   1.363   0.188   0.970  0.0887 -0.1122 -0.0042
 1878W        W15292  12.218  16.003  10.648  0.1606 -0.0037  0.0452
 1879W        W15293   1.951  10.402   3.319  0.1965  0.1258 -0.2540
 1880W        W15294   4.143   9.753  13.477 -0.2335 -0.0892  0.1470
 1881W        W15295   7.383  17.518   2.800  0.3903  0.1694  0.0359
 1882W        W15296   7.377   4.319  13.156 -0.0576  0.2611  0.0525
 1883W        W15297  11.769   7.727  15.825 -0.0737  0.2321  0.2984
 1884W        W15298   0.284  15.354  10.321  0.1431 -0.0190  0.1131
 1885W        W15299  17.843  13.117   5.688 -0.3036 -0.1636 -0.1776
 1886W        W15300   7.140  17.678   3.307  0.1372 -0.1281 -0.0610
 1887W        W15301   4.066   0.244   4.666 -0.0321  0.4532 -0.2389
 1888W        W15302  16.231  15.245   4.699 -0.2358 -0.0769  0.0207
 1889W        W15303   6.634   4.279  14.262  0.0204 -0.1302 -0.0425
 1890W        W15304  12.122   0.005  13.094 -0.1546 -0.3430 -0.0171
 1891W        W15305   8.662   1.866   0.366  0.4475  0.0198  0.0790
 1892W        W15306  17.910   4.145   2.443  0.2702  0.4054 -0.0367
 1893W        W15307  12.048   2.409  11.484  0.3611  0.0608  0.1015
 1894W        W15308  15.019   4.588   1.226 -0.3462  0.0956  0.1484
 1895W        W15309  13.688  17.349   2.481  0.0949 -0.2278 -0.0762
 1896W        W15310   6.043   4.861  15.467 -0.1399  0.1438  0.3352
 1897W        W15311  17.610   7.823   2.567  0.1334 -0.1748 -0.0052
 1898W        W15312  16.965  16.628   2.821 -0.0379 -0.1304  0.1748
 1899W        W15313  15.662  17.950  14.321 -0.2400  0.0564  0.2210
 1900W        W15314  16.151   1.792  13.225 -0.1189 -0.1568 -0.3541
 1901W        W15315   9.064  10.470   1.504 -0.0888  0.0535  0.2233
 1902W        W15316   9.062   3.791   0.499  0.0779 -0.1858 -0.2286
 1903W        W15317  12.966  13.381  11.904  0.0032 -0.1510  0.0275
 1904W        W15318   6.070   3.329   1.483 -0.2072  0.0579  0.2376
 1905W        W15319  14.501  14.722  12.040 -0.2349 -0.4530 -0.0245
 1906W        W15320  11.019  16.716   5.633 -0.0359  0.1717 -0.2251
 1907W        W15321   7.926  12.450  14.425 -0.1083 -0.2023 -0.1792
 1908W        W15322   7.361   0.145  14.290 -0.0906  0.1842  0.2352
 1909W        W15323  13.835  11.066  11.081  0.2782 -0.0513 -0.3351
 1910W        W15324   6.699   0.279   4.573 -0.0554 -0.0698 -0.2013
 1911W        W15325   8.538   3.559  11.761 -0.1004  0.3466 -0.1477
 1912W        W15326  15.145  13.006  11.761  0.0577 -0.0664 -0.2801
 1913W        W15327   3.238  10.066  14.852  0.1148 -0.1484 -0.0406
 1914W        W15328   1.684  13.837   0.398 -0.1004  0.1334 -0.0714
 1915W        W15329   7.695   4.287  14.553  0.1403  0.2440  0.1446
 1916W        W15330   5.291   9.801   5.653  0.1460 -0.3138  0.1804
 1917W        W15331   1.197   9.321   1.125  0.3140  0.1701  0.2499
 1918W        W15332   5.244   7.179   0.256  0.1367  0.1198 -0.0521
 1919W        W15333   7.550   7.295   5.493 -0.3435 -0.1526  0.1205
 1920W        W15334   3.365  16.533   2.333 -0.1952  0.1012  0.0787
 1921W        W15335   3.891  13.016   4.036 -0.1203 -0.1942  0.0074
 1922W        W15336   8.297   6.735   4.206 -0.3809 -0.1346 -0.0984
 1923W        W15337  15.465   2.887   1.797  0.0070 -0.0156  0.0692
 1924W        W15338  10.084   9.804   2.583 -0.2628  0.2496  0.0238
 1925W        W15339   9.413   2.228  13.735 -0.0342 -0.3062  0.2961
 1926W        W15340  11.020  14.853   2.503  0.0707 -0.3329  0.0583
 1927W        W15341   2.404   0.482  13.914 -0.4266  0.1200  0.0950
 1928W        W15342   8.433   8.982  14.251  0.2319 -0.1385  0.1045
 1929W        W15343  11.893  16.426  11.799 -0.2069 -0.2222  0.4247
 1930W        W15344   6.377  14.057   3.831 -0.0047  0.0501 -0.0559
 1931W        W15345   0.776   5.902  10.289  0.1372  0.0956 -0.0574
 1932W        W15346   5.870   7.495   2.438 -0.0166  0.0535  0.0220
 1933W        W15347   5.297   1.297   6.860  0.1619 -0.0558  0.0338
 1934W        W15348  17.034   6.289  12.890 -0.2624 -0.3840  0.1256
 1935W        W15349  14.852   4.891  10.186 -0.0424  0.1194  0.0681
 1936W        W15350  10.056   0.551   5.315 -0.1281 -0.0672 -0.1633
 1937W        W15351   3.382   2.474  11.231  0.2169  0.0638  0.2024
 1938W        W15352   5.770   3.749  14.321 -0.0667  0.1141 -0.2131
 1939W        W15353  12.480  12.230   0.218 -0.0337  0.2018 -0.1975
 1940W        W15354  16.539   1.703  15.181 -0.0607  0.1882 -0.1856
 1941W        W15355  14.722   5.863   0.486 -0.1332  0.2980  0.0757
 1942W        W15356   6.580  14.435   0.247 -0.0035  0.1242 -0.0676
 1943W        W15357   7.317  12.944  15.138 -0.0471  0.1106 -0.0716
 1944W        W15358  15.595   8.040   3.164  0.2226  0.2476  0.0936
 1945W        W15359   6.875   4.074  10.200  0.0953  0.3650 -0.0185
 1946W        W15360  11.538   4.695   1.042 -0.0961  0.2397  0.2583
 1947W        W15361  14.965  16.446  11.379  0.3521 -0.0813  0.2583
 1948W        W15362   0.084   8.060  15.733 -0.3331  0.1893 -0.2228
 1949W        W15363  14.750   1.659   3.780  0.0522  0.0320  0.0524
 1950W        W15364   0.235   0.708   2.829 -0.4009  0.0166 -0.0544
 1951W        W15365   4.015   9.219   5.385  0.1210 -0.1416 -0.0665
 1952W        W15366  18.099  14.796   0.383 -0.0172  0.5534  0.1591
 1953W        W15367  17.674  12.413  10.614  0.2283 -0.0701  0.1352
 1954W        W15368   8.715  10.953  16.071 -0.0481  0.0637 -0.0342
 1955W        W15369   8.316   9.405  14.652 -0.1106 -0.3390  0.3059
 1956W        W15370   6.991  14.579  15.521  0.0911 -0.1408 -0.1610
 1957W        W15371   0.234   1.372   1.117  0.1392 -0.2325 -0.1057
 1958W        W15372  14.720  17.879  10.834 -0.0208 -0.0652 -0.3098
 1959W        W15373  11.278  12.084   2.584  0.0526 -0.2117  0.0007
 1960W        W15374  16.364   3.387  15.788  0.3600  0.2368  0.1615
 1961W        W15375  15.710   9.866   3.220 -0.1834 -0.2642  0.2001
 1962W        W15376   3.188   8.945   4.984 -0.0069  0.0487 -0.0084
 1963W        W15377  16.688   9.603  15.687  0.2776 -0.3051 -0.0965
 1964W        W15378   9.837   7.631   1.109  0.1474  0.6898 -0.0749
 1965W        W15379  11.274   8.713  15.141 -0.3145  0.1260  0.4913
 1966W        W15380   8.691  15.403   4.492 -0.0843  0.1529 -0.1039
 1967W        W15381   6.810   8.188  11.622  0.1710  0.2587  0.1516
 1968W        W15382  15.433  14.452  13.099  0.2928  0.0728 -0.1712
 1969W        W15383   1.181  12.103  12.581 -0.2191  0.1610 -0.0673
 1970W        W15384   7.524   2.925   9.868 -0.1455 -0.1004  0.1977
 1971W        W15385  17.261   7.048  12.355  0.0516  0.2211  0.0093
 1972W        W15386  13.543   6.928  14.275  0.2133 -0.1367 -0.0526
 1973W        W15387   8.714   6.525  12.450  0.1652  0.0394  0.0916
 1974W        W15388   5.172  11.541  11.351 -0.1678 -0.3101  0.0010
 1975W        W15389   1.763  12.140  11.350  0.3109 -0.1580 -0.3417
 1976W        W15390  10.076   4.568  11.152  0.1401  0.0084  0.0700
 1977W        W15391  16.111  15.798  14.182 -0.0270  0.0481  0.0265
 1978W        W15392  16.007   8.104   0.339  0.0240 -0.0066  0.3186
 1979W        W15393   1.837  15.016   5.825 -0.1630 -0.1027 -0.1014
 1980W        W15394  15.009   6.370  15.443 -0.1970 -0.2010 -0.0156
 1981W        W15395   9.997  16.486   4.476  0.3298 -0.0442  0.2845
 1982W        W15396  11.700   3.165  13.718 -0.1309  0.2082 -0.1587
 1983W        W15397   7.402   2.638  12.462 -0.0513  0.2265 -0.0660
 1984W        W15398   0.320  15.940  13.914 -0.1530 -0.0490 -0.0025
 1985W        W15399  17.149   2.046   2.888 -0.0837 -0.0643  0.1475
 1986W        W15400   2.474  17.099   2.502  0.0679 -0.0775 -0.3427
 1987W        W15401  17.615  10.833   5.080 -0.0070  0.1094  0.1856
 1988W        W15402  12.687   5.110   3.545 -0.0423  0.2540 -0.1272
 1989W        W15403  14.234  14.275  15.268  0.2546  0.2667 -0.0148
 1990W        W15404   4.102   8.020  15.055  0.2165  0.0614 -0.2846
 1991W        W15405  13.405  16.062   1.939 -0.1528  0.1859 -0.1791
 1992W        W15406   5.622   0.383  10.696  0.3171  0.0798 -0.0261
 1993W        W15407   7.402   4.062  10.951  0.1795  0.1948  0.1011
 1994W        W15408   0.804  17.818   1.039 -0.4312  0.2377 -0.1551
 1995W        W15409   6.314  17.958   3.105 -0.2996  0.1465  0.0031
 1996W        W15410  14.715  14.970  15.112 -0.0235  0.2441  0.1453
 1997W        W15411   4.575   7.520   1.404  0.0107 -0.0083  0.0197
 1998W        W15412  13.771   6.097   3.849  0.0443  0.3177 -0.0224
 1999W        W15413   8.521   4.299  13.035 -0.3080 -0.1067  0.0685
 2000W        W15414  11.898  14.615   1.157 -0.1750  0.1795  0.2402
 2001W        W15415   8.535   3.298  13.362  0.1430  0.1319 -0.1670
 2002W        W15416   0.386   9.490  11.537  0.0027 -0.2171  0.0968
 2003W        W15417  13.423   3.297  10.300 -0.0224 -0.0921  0.2239
 2004W        W15418   3.594  12.513   4.138 -0.1191 -0.0372 -0.1418
 2005W        W15419   5.762   9.588   2.948  0.2137  0.1033  0.0254
 2006W        W15420  16.608   8.305   5.635 -0.2825 -0.1480 -0.0478
 2007W        W15421   8.478  14.586  13.564 -0.1272 -0.1573  0.2064
 2008W        W15422   9.285  14.736   4.481 -0.0838  0.1351 -0.0611
 2009W        W15423  14.141   6.144   2.255 -0.1475  0.2230  0.1173
 2010W        W15424   0.748  13.998  15.646 -0.1071  0.3437 -0.2639
 2011W        W15425  11.537   8.134  14.300 -0.0980 -0.4988  0.0855
 2012W        W15426   1.271  14.667   5.037 -0.0051  0.3160 -0.0002
 2013W        W15427   6.093   5.354   3.377  0.2951  0.1715  0.1156
 2014W        W15428   1.274   8.288  14.401 -0.0734  0.1738  0.3573
 2015W        W15429   1.378   3.760  12.431 -0.1848 -0.0737 -0.0911
 2016W        W15430   9.328   3.288  14.422  0.0958 -0.0770 -0.1490
 2017W        W15431  15.466  16.825  11.344 -0.2705  0.1220  0.1662
 2018W        W15432   6.659   0.752   3.457  0.1278  0.0438  0.0669
 2019W        W15433   9.302   4.498   2.188  0.2945 -0.1962  0.0944
 2020W        W15434   9.705   9.384   1.839 -0.1914  0.0396 -0.0531
 2021W        W15435   2.172  11.150  12.887 -0.0754 -0.1091 -0.3047
 2022W        W15436  11.009  12.520  11.679 -0.0740  0.1491 -0.2415
 2023W        W15437   6.559   8.441  10.678  0.2135 -0.2259  0.0201
 2024W        W15438   8.246   3.568  12.223 -0.1796 -0.1198 -0.0290
 2025W        W15439   9.619   0.868  13.586 -0.1401 -0.0649 -0.0219
 2026W        W15440  11.977  15.626  12.232 -0.0389 -0.1815 -0.0132
 2027W        W15441   0.265   1.815  14.461 -0.2435  0.1962 -0.1224
 2028W        W15442  15.835  17.036  11.756 -0.1585 -0.0979  0.1490
 2029W        W15443   1.156  16.421  11.895 -0.1342 -0.2018 -0.1736
 2030W        W15444   2.850   3.470   3.046  0.1753  0.1497 -0.4314
 2031W        W15445   9.182  10.976   1.373  0.0307 -0.1913 -0.1370
 2032W        W15446  18.375   5.622   0.098  0.5391 -0.0222  0.1379
 2033W        W15447   2.470   7.193   1.019 -0.2861  0.1405  0.0650
 2034W        W15448   5.126  14.540  15.107 -0.0306  0.2406  0.1781
 2035W        W15449   0.644   5.252  12.862 -0.1141 -0.1923  0.4068
 2036W        W15450  11.228   2.990  13.660  0.3991 -0.3263 -0.0556
 2037W        W15451  12.741   0.554  13.411  0.3234 -0.0519 -0.3421
 2038W        W15452  14.168  12.969  16.185  0.2474  0.0425  0.2868
 2039W        W15453   0.702   1.286   0.809  0.0570 -0.0709  0.0853
 2040W        W15454   2.029   8.912  15.232 -0.0354  0.0916  0.1496
 2041W        W15455   0.004   6.764   3.640 -0.2706  0.3981 -0.2352
 2042W        W15456   9.275   9.710   1.903  0.0530  0.1433  0.1590
 2043W        W15457  15.785  12.233   3.450  0.0187 -0.0946  0.2024
 2044W        W15458   6.685   0.431   5.563 -0.4100 -0.0621  0.2026
 2045W        W15459   5.231  13.426  11.897 -0.0606  0.0983 -0.2237
 2046W        W15460   6.621  12.349   2.961  0.0154  0.2411  0.0315
 2047W        W15461  17.449  15.460  14.524  0.0186  0.1897 -0.2189
 2048W        W15462   8.645   1.903  11.333 -0.0106  0.3360 -0.3315
 2049W        W15463  11.804   5.493   5.180 -0.1375 -0.1329  0.0187
 2050W        W15464  10.394  18.254   3.301 -0.3051 -0.2796  0.1683
 2051W        W15465   8.151   7.295   0.861 -0.1285 -0.2446 -0.0016
 2052W        W15466  17.351   6.508   2.888  0.0824 -0.0547 -0.2215
 2053W        W15467  13.599  12.551   3.594  0.1254  0.1250 -0.2248
 2054W        W15468  17.849   3.109  14.736 -0.0858 -0.2547  0.1244
 2055W        W15469   7.863   1.297   5.108 -0.0254  0.0110 -0.0582
 2056W        W15470  17.121  11.607   3.407 -0.0763 -0.0844 -0.0171
 2057W        W15471  11.907  15.819   2.468  0.1494 -0.2652 -0.2411
 2058W        W15472  10.878   9.547   1.952 -0.0900  0.0349  0.1576
 2059W        W15473   4.002  17.460  11.860 -0.1798 -0.0451 -0.0286
 2060W        W15474  11.794   6.732  14.663  0.0124 -0.1416 -0.0283
 2061W        W15475   5.413   8.115   1.910 -0.0286 -0.1064  0.1667
 2062W        W15476  13.065  11.235  11.132 -0.2818 -0.0280  0.0352
 2063W        W15477   3.879   1.854  11.512  0.2361  0.2019 -0.0917
 2064W        W15478   3.669   2.047   3.825 -0.2313  0.1901  0.1858
 2065W        W15479  14.781  18.434   2.494  0.0992  0.2693  0.1425
 2066W        W15480  15.865   3.752  10.850 -0.0609  0.1077 -0.2685
 2067W        W15481  10.833  12.405  13.411  0.2550  0.0402  0.1720
 2068W        W15482   7.248  13.776  16.118  0.0076  0.0833  0.1268
 2069W        W15483  13.599  11.700  14.753 -0.2797  0.2859 -0.0215
 2070W        W15484   3.222  15.696   6.208 -0.0406 -0.0604  0.0341
 2071W        W15485  16.317   3.810  10.665 -0.0974  0.0658 -0.1658
 2072W        W15486   6.846  11.198   2.749  0.0862  0.1856  0.1362
 2073W        W15487   5.918   4.351   4.520 -0.0978  0.0451 -0.2877
 2074W        W15488   8.833  12.347  14.310  0.2624  0.1823  0.0285
 2075W        W15489   8.164  17.557  14.605 -0.0931  0.1342  0.0301
 2076W        W15490   0.169   7.444  11.667  0.0236  0.1259  0.0403
 2077W        W15491  15.709  18.445  11.823 -0.2041  0.1446 -0.0378
 2078W        W15492  15.476  14.658  11.574 -0.3693 -0.0721  0.4921
 2079W        W15493   1.576  15.797   4.337  0.2388  0.0960 -0.1765
 2080W        W15494   7.815  17.493   1.066 -0.1409  0.0148 -0.0273
 2081W        W15495   0.491   0.850   0.569 -0.1196  0.0955  0.0139
 2082W        W15496   3.500   9.868   1.964  0.1055  0.0901 -0.1801
 2083W        W15497   0.580   6.068   1.284  0.0738  0.2222 -0.0806
 2084W        W15498  13.322   8.937   4.679  0.1985 -0.0831  0.3079
 2085W        W15499  14.206   3.827  11.753  0.0023  0.0615  0.0894
 2086W        W15500   8.200   2.945  13.561 -0.1610  0.1131  0.1755
 2087W        W15501   9.162  12.321  13.076 -0.1757 -0.1347  0.0704
 2088W        W15502   1.237  14.469  14.825 -0.0950  0.1625 -0.0549
 2089W        W15503  16.538   0.826   2.510 -0.1860  0.3020  0.4661
 2090W        W15504   1.922  18.348   0.134 -0.1450 -0.3726 -0.2300
 2091W        W15505  10.541   8.353  15.576 -0.0940 -0.1569  0.0627
 2092W        W15506   2.798   7.945  15.344  0.0841 -0.2080 -0.0271
 2093W        W15507   8.086  16.266   0.490 -0.2292  0.1461 -0.1266
 2094W        W15508  10.187  12.523   2.083  0.0762 -0.1010  0.2592
 2095W        W15509  10.051   5.169   3.799  0.0019 -0.2000  0.1027
 2096W        W15510   8.908  13.170   2.998  0.2762 -0.0682 -0.0947
 2097W        W15511   8.125   9.883   4.367  0.0421  0.1429 -0.2595
 2098W        W15512  11.220   4.263   0.770  0.0751 -0.0257  0.0059
 2099W        W15513  13.998  16.686  13.570 -0.0074 -0.1272 -0.0778
 2100W        W15514   0.328  14.054  13.484  0.1535  0.3603 -0.1826
 2101W        W15515   0.758  13.183  12.716  0.0276  0.0144 -0.1321
 2102W        W15516   0.612  12.399   5.193  0.0794 -0.1552  0.0416
 2103W        W15517   0.357   7.774  13.064  0.1116  0.2850  0.0101
 2104W        W15518   4.901  17.534  11.461 -0.2098  0.1341  0.0651
 2105W        W15519   8.170  18.301  15.221  0.0860  0.2936  0.3013
 2106W        W15520  12.851   4.635   0.144  0.1679  0.1448 -0.0702
 2107W        W15521  15.714  15.848  10.620 -0.3877 -0.1998  0.2075
 2108W        W15522   2.678   9.337  16.170 -0.0302 -0.3326 -0.0210
 2109W        W15523   7.910  11.650  13.518 -0.1471 -0.1203  0.0100
 2110W        W15524  12.452  13.495  13.827 -0.0541  0.0024 -0.2140
 2111W        W15525   9.548   3.363  12.355  0.1377  0.1420 -0.3498
 2112W        W15526   6.050   5.528  12.688 -0.0621 -0.1684  0.1868
 2113W        W15527  18.288  12.291  11.402 -0.1862  0.0335  0.0048
 2114W        W15528   9.967  12.261  13.131  0.2672  0.0092  0.0375
 2115W        W15529   4.220   4.164  14.005 -0.1226 -0.1066  0.2195
 2116W        W15530   7.724  13.100   5.041 -0.1044  0.1587  0.1401
 2117W        W15531  15.851   1.220   1.508 -0.0441  0.1181 -0.3448
 2118W        W15532  15.028  12.517   2.243  0.3599 -0.1717 -0.1560
 2119W        W15533  17.005  11.830   4.487  0.2035 -0.0958  0.1581
 2120W        W15534  16.355   6.736  12.369 -0.1828  0.0585  0.1046
 2121W        W15535  11.139   4.107  15.762 -0.1633 -0.0436 -0.3495
 2122W        W15536   1.555   9.206  13.140 -0.2356 -0.0371 -0.3552
 2123W        W15537  15.209   0.695  12.774  0.1075  0.4087 -0.1691
 2124W        W15538  13.688  15.852   2.894 -0.2660  0.0028  0.0520
 2125W        W15539   5.931   7.488  15.036 -0.2458  0.1575  0.0782
 2126W        W15540   1.655   3.494  12.069  0.0897 -0.3656 -0.1199
 2127W        W15541   5.364   0.851  10.506 -0.0182  0.0892  0.3632
 2128W        W15542  13.415   6.776   1.926 -0.4442 -0.1858  0.3275
 2129W        W15543  11.373  11.393   4.825  0.0025 -0.0302  0.1001
 2130W        W15544   3.621   0.372   2.045 -0.3708 -0.1812 -0.0799
 2131W        W15545   0.792   2.953   1.957 -0.3658  0.0555  0.2681
 2132W        W15546   6.197   4.660  11.234  0.1701  0.0871 -0.2945
 2133W        W15547  16.493   5.332  12.041  0.1157  0.2204  0.1803
 2134W        W15548  16.985   3.276  14.639 -0.3036 -0.1962  0.1540
 2135W        W15549  15.676  12.650  13.096 -0.0446  0.0250  0.3676
 2136W        W15550  16.269   2.467  10.808  0.1508  0.6644  0.0568
 2137W        W15551   4.017  13.803  12.660  0.1679  0.0131  0.1106
 2138W        W15552  12.740  14.941   1.623 -0.0406  0.0598  0.0227
 2139W        W15553   9.101   5.393  10.904 -0.0103 -0.0256  0.0462
 2140W        W15554   7.160  11.520   4.072  0.1266  0.0206  0.1215
 2141W        W15555   5.861   7.951  13.175  0.0202 -0.1984  0.2334
 2142W        W15556  14.664   9.508   1.100  0.0066 -0.1252 -0.1248
 2143W        W15557  10.872  11.563   5.636 -0.2237 -0.1592 -0.3227
 2144W        W15558   5.197   0.205   5.447 -0.2888 -0.0938  0.4900
 2145W        W15559   1.496  17.183   0.893 -0.0674 -0.1013 -0.0480
 2146W        W15560  12.689  17.396  15.220 -0.2732  0.1513 -0.3218
 2147W        W15561   8.275  17.460  10.153 -0.0166 -0.0701 -0.1279
 2148W        W15562   4.795  13.359   1.655 -0.0137  0.1156  0.1546
 2149W        W15563  15.043   9.846  13.791  0.3779  0.0402 -0.2672
 2150W        W15564  11.033   0.658  10.393  0.0146 -0.1888 -0.1561
 2151W        W15565   2.062  12.125  14.750  0.0246 -0.0756  0.1516
 2152W        W15566   5.955  15.893  10.970  0.0905  0.2034  0.1014
 2153W        W15567   0.548  13.127   1.555  0.0448  0.0311 -0.2243
 2154W        W15568   5.175  18.317  11.059  0.0491  0.1562  0.2456
 2155W        W15569   5.653   2.825   2.197 -0.1998 -0.0275  0.1965
 2156W        W15570   1.953  14.215   4.122  0.1487 -0.0922  0.0286
 2157W        W15571   6.574   7.171   0.974 -0.0453  0.0836  0.2044
 2158W        W15572  12.464   8.983   3.436 -0.0702 -0.1524 -0.1954
 2159W        W15573   6.286  14.079  14.028 -0.0276 -0.2984  0.1392
 2160W        W15574   1.633   2.994  12.210  0.0379  0.1077 -0.3082
 2161W        W15575   7.347  14.915  14.253 -0.1829  0.1242  0.0098
 2162W        W15576   2.042   6.055  15.387 -0.3339  0.1985  0.1115
 2163W        W15577  11.912  16.662  15.314 -0.0460 -0.0186 -0.1103
 2164W        W15578   5.809   3.510  12.521  0.4075  0.3958 -0.0109
 2165W        W15579  12.976  16.872   1.836 -0.0690  0.0934 -0.0121
 2166W        W15580   2.729  15.139   4.979 -0.2935 -0.0272  0.0491
 2167W        W15581  13.144   7.674  11.652  0.0793  0.3009 -0.0897
 2168W        W15582  11.299  15.830  15.044 -0.0607 -0.1139 -0.0562
 2169W        W15583  11.291  16.454  14.832 -0.4986  0.1361  0.1250
 2170W        W15584  12.949   0.719   3.417 -0.0383  0.0837  0.0025
 2171W        W15585  15.744   6.509  10.800 -0.0122  0.3491 -0.0546
 2172W        W15586   5.159  17.824   4.534  0.0522 -0.1135 -0.1427
 2173W        W15587   4.926   4.616   3.879 -0.1976  0.0696 -0.0568
 2174W        W15588  13.104   2.977  12.651 -0.0836  0.0968 -0.1397
 2175W        W15589  17.450  18.046   4.796  0.0748 -0.0867  0.0557
 2176W        W15590   5.745   0.481   0.591  0.0081  0.3067  0.0861
 2177W        W15591   9.022  11.554   3.185 -0.6176  0.2154 -0.1611
 2178W        W15592   1.314  13.009  13.388  0.2954  0.0472 -0.2430
 2179W        W15593   8.304  14.665  15.297 -0.0573 -0.0238  0.0561
 2180W        W15594  11.284   2.881  11.391  0.4424  0.2709  0.1485
 2181W        W15595  12.740  17.395   0.818 -0.2396  0.0238  0.3638
 2182W        W15596  11.416   4.195  12.416  0.2086 -0.1056 -0.3272
 2183W        W15597   1.343   5.672  15.375 -0.1520 -0.1625 -0.0184
 2184W        W15598  14.016   7.298  13.603  0.4416  0.1805 -0.2122
 2185W        W15599  11.814   1.396   0.069 -0.0462  0.0841 -0.0723
 2186W        W15600  17.028   2.210   4.257 -0.0701 -0.3081 -0.2158
 2187W        W15601   0.723   3.982   3.371  0.0378  0.1245  0.4085
 2188W        W15602  12.898  12.979  10.665  0.0583  0.2501  0.3979
 2189W        W15603  14.985  18.360   0.401  0.1315 -0.2812  0.0630
 2190W        W15604  15.505   9.607   6.043  0.0326 -0.0105 -0.0643
 2191W        W15605   8.585  13.908   4.368 -0.0267  0.1118  0.1590
 2192W        W15606  10.230   8.684  15.853  0.1935 -0.3233 -0.0315
 2193W        W15607   7.837   0.313  13.496 -0.0098 -0.3192 -0.1226
 2194W        W15608   6.892   1.759  12.920 -0.0592 -0.0549  0.0242
 2195W        W15609   9.552  12.116  15.692  0.0744 -0.1855  0.2536
 2196W        W15610  14.090   5.294   5.039 -0.1766  0.2953 -0.0367
 2197W        W15611  16.884  11.775   0.689  0.0633 -0.1138  0.3215
 2198W        W15612   1.848  15.813   2.270 -0.3524  0.2235  0.0085
 2199W        W15613  17.088   2.795  12.620 -0.1716 -0.2328 -0.0095
 2200W        W15614   3.209   4.215  13.852 -0.0539  0.3032  0.0966
 2201W        W15615  13.629   9.036   0.784 -0.1012  0.0918  0.4502
 2202W        W15616   1.542   7.367   5.649  0.0164 -0.2181 -0.2647
 2203W        W15617   3.842  14.481   3.548  0.0537 -0.1883 -0.1943
 2204W        W15618   2.697   9.187   6.012 -0.1103 -0.2408  0.2821
 2205W        W15619  18.073  17.289   1.052 -0.2144 -0.0570 -0.0584
 2206W        W15620   9.536  16.102  15.370 -0.0233  0.3392  0.1402
 2207W        W15621   2.840  14.155  11.474  0.5040 -0.0812  0.1664
 2208W        W15622   3.244   2.786   3.941  0.0911 -0.0297 -0.1510
 2209W        W15623   8.488   8.854  13.119 -0.2595  0.2417  0.0065
 2210W        W15624   1.411  11.056   0.699 -0.1513 -0.0537 -0.0812
 2211W        W15625  15.210   3.723   2.402 -0.1183  0.0286  0.4018
 2212W        W15626   2.893   6.732  13.485 -0.2518 -0.2464  0.0159
 2213W        W15627  11.193   1.619  14.260  0.1152 -0.3132 -0.1279
 2214W        W15628  13.015  10.945  11.897  0.0813 -0.0440  0.3728
 2215W        W15629   6.595   9.886  13.263  0.0403  0.0037  0.0108
 2216W        W15630   9.389   0.254   0.666 -0.0008  0.0925  0.1665
 2217W        W15631   1.369   8.544   4.972 -0.2955  0.2693 -0.0453
 2218W        W15632   6.446   4.586   1.132 -0.1433  0.2590  0.0973
 2219W        W15633   1.149  10.453   5.931 -0.0419 -0.0321 -0.1409
 2220W        W15634  11.375   0.081   3.304  0.2286 -0.0042  0.2144
 2221W        W15635   6.950   2.228   9.856  0.1511  0.0620 -0.0031
 2222W        W15636  10.803   1.195  13.847  0.0600  0.2016  0.0563
 2223W        W15637   1.912   5.570   0.278 -0.0095  0.0529 -0.0515
 2224W        W15638  11.018  15.579   1.937  0.0249  0.1876  0.1192
 2225W        W15639  15.891  15.356   1.517  0.0532 -0.2803  0.0497
 2226W        W15640   0.881  16.345   3.044  0.0951  0.2064 -0.0707
 2227W        W15641  12.435   3.447   2.942 -0.0608  0.0749 -0.2036
 2228W        W15642   1.097   6.897  15.395  0.0974 -0.0283  0.2994
 2229W        W15643  15.234  17.735  14.200  0.1565 -0.2383 -0.1423
 2230W        W15644  12.112   4.682   4.950  0.2052 -0.0492  0.1544
 2231W        W15645   3.716   3.792   1.398  0.0452 -0.0196  0.1567
 2232W        W15646  11.837  16.175   2.175  0.0082  0.3215 -0.0759
 2233W        W15647  15.126   5.255  11.890 -0.2882 -0.1385  0.2032
 2234W        W15648   7.195   0.394   4.433  0.0424 -0.2377  0.1705
 2235W        W15649   9.888  15.871   1.313 -0.0305 -0.1169 -0.0054
 2236W        W15650   2.074   1.804  12.513  0.2229 -0.0943  0.0766
 2237W        W15651  12.953   5.188   1.995  0.4287 -0.0493  0.1106
 2238W        W15652  14.395  17.611  15.425 -0.2118 -0.1807  0.0596
 2239W        W15653   3.911  15.748  12.509  0.1797 -0.1056  0.0233
 2240W        W15654   1.098   0.136  14.945  0.0499 -0.0101 -0.0483
 2241W        W15655   5.561   6.036  15.774 -0.2458  0.4819  0.2555
 2242W        W15656   7.390   3.221   4.100 -0.0605 -0.2689 -0.0520
 2243W        W15657   8.981   6.596   2.990  0.3397  0.2361  0.0153
 2244W        W15658   2.605  13.484   4.413  0.0085 -0.0259 -0.0490
 2245W        W15659  17.277  10.172   0.760  0.0588 -0.0104 -0.2077
 2246W        W15660   5.294   6.684   2.993  0.0093 -0.1298 -0.0116
 2247W        W15661  17.210   0.199  11.088 -0.4223  0.0877 -0.0097
 2248W        W15662   0.870   1.579   6.676 -0.2361 -0.0312  0.0392
 2249W        W15663   3.185  13.460   2.280  0.0014  0.3329  0.1671
 2250W        W15664  15.661  13.676   3.672  0.3027 -0.0837 -0.1718
 2251W        W15665  14.450  18.299  13.018  0.0417 -0.1482 -0.0402
 2252W        W15666  10.990   0.715   2.276  0.4722 -0.1220  0.1124
 2253W        W15667   1.421   6.279   0.378 -0.1727 -0.0986  0.1662
 2254W        W15668   6.443  16.462  11.239 -0.2356  0.3077  0.0502
 2255W        W15669   1.346  17.014  12.605 -0.1910 -0.2241  0.1336
 2256W        W15670   5.463  13.827  14.272  0.1532 -0.0338  0.1377
 2257W        W15671   1.571   1.019   1.929 -0.0390  0.0464 -0.2683
 2258W        W15672   7.649   7.654   1.697  0.1148 -0.2012 -0.0739
 2259W        W15673   9.446   1.013   2.967 -0.1759 -0.0375 -0.0176
 2260W        W15674  18.323  11.505   1.871 -0.2497 -0.0041 -0.2720
 2261W        W15675   5.961  14.783   1.136  0.0705  0.1284  0.3607
 2262W        W15676  12.495   0.185  15.852  0.1533 -0.0035 -0.0964
 2263W        W15677   7.279  15.760   2.030  0.1010  0.3957  0.0948
 2264W        W15678  17.165   6.662   5.664 -0.0344  0.0154  0.2377
 2265W        W15679   2.465   7.673  10.457  0.4316  0.0158 -0.1575
 2266W        W15680  13.135   2.790   3.893  0.3107  0.6054 -0.1104
 2267W        W15681   0.267   6.128  12.941 -0.4359 -0.0778 -0.1473
 2268W        W15682   7.761   8.419   6.321  0.0375  0.0635  0.0505
 2269W        W15683  17.918  14.933   1.125 -0.1246  0.2223 -0.1084
 2270W        W15684   9.352  15.351  13.613  0.0856 -0.1128 -0.1204
 2271W        W15685  13.728  14.007  13.681 -0.1613 -0.1088  0.2488
 2272W        W15686   2.724  16.147   2.360 -0.0016  0.0434  0.5420
 2273W        W15687   0.029  12.726  15.925 -0.2172  0.1748  0.0140
 2274W        W15688  15.301   2.324  13.319  0.2150 -0.4838  0.0896
 2275W        W15689  17.249  10.517   1.887 -0.1049  0.1933  0.5292
 2276W        W15690  16.543   1.652  14.045 -0.6805 -0.1492  0.1598
 2277W        W15691   6.837   9.920   2.058  0.0215 -0.1555 -0.0889
 2278W        W15692  17.694  10.811  10.008  0.1180 -0.1893  0.0579
 2279W        W15693  17.262  16.249   3.096  0.0963  0.0636  0.2533
 2280W        W15694  11.795  18.344   1.358 -0.0274 -0.0170  0.0878
 2281W        W15695  15.347   8.373   4.283 -0.1754 -0.0260 -0.1934
 2282W        W15696   3.091  10.319  15.274 -0.0888 -0.3472 -0.2614
 2283W        W15697   3.613   3.553   2.671 -0.0632  0.1433 -0.2004
 2284W        W15698   1.077   1.946  11.944 -0.2225 -0.2031  0.1266
 2285W        W15699   3.257   2.503   5.320  0.0102 -0.2021  0.1475
 2286W        W15700  12.628   5.214   5.449 -0.1606 -0.1916 -0.3944
 2287W        W15701  16.447  11.528   0.753  0.3069 -0.0160  0.1687
 2288W        W15702  15.887   8.572  13.678  0.2990 -0.0028  0.0044
 2289W        W15703   6.352   7.909  13.226 -0.1216  0.1118 -0.2722
 2290W        W15704   3.146   3.531   0.779 -0.1178 -0.3839 -0.0334
 2291W        W15705   2.838   9.948  14.428 -0.2968 -0.2132 -0.2094
 2292W        W15706   5.702  17.986  11.235  0.1839 -0.1546  0.0968
 2293W        W15707   3.018   8.991  15.543 -0.0849 -0.1993  0.0384
 2294W        W15708   8.213   1.101  16.043 -0.2750 -0.2356 -0.1182
 2295W        W15709  14.452   4.268  11.915  0.0031  0.0667 -0.2560
 2296W        W15710   5.512  15.591  13.330 -0.1164 -0.1488 -0.0330
 2297W        W15711  14.146  12.085   0.618  0.0658 -0.1072  0.2560
 2298W        W15712  10.868   6.892  12.924 -0.1536 -0.0870  0.0987
 2299W        W15713  11.597   5.429  11.307 -0.1442  0.1259  0.1191
 2300W        W15714   8.597   5.178   0.301  0.0985 -0.0397 -0.3015
 2301W        W15715   7.396   9.377   3.816  0.1417 -0.0828 -0.0027
 2302W        W15716  10.856  13.783   1.668 -0.0463  0.0993 -0.2606
 2303W        W15717   0.408  17.343   2.287 -0.0997  0.2339  0.1719
 2304W        W15718   1.316   8.320  11.994 -0.3806 -0.0584  0.0211
 2305W        W15719   5.608  16.118   0.594  0.0500 -0.0225  0.0236
 2306W        W15720  18.293  13.964  14.790 -0.0892  0.0301 -0.2694
 2307W        W15721  13.120   7.339   3.855  0.3481  0.0299 -0.2422
 2308W        W15722   2.294  14.008  11.578 -0.2372  0.1444  0.1192
 2309W        W15723  12.987   9.401  16.013 -0.1249 -0.2494  0.2611
 2310W        W15724   5.136   7.600   4.842  0.1798 -0.0925 -0.0581
 2311W        W15725   1.786  10.023   0.687  0.2424  0.2916  0.2991
 2312W        W15726  12.009  10.936  14.028  0.0002 -0.0555  0.0574
 2313W        W15727  16.476  15.676  15.937 -0.1695 -0.1692  0.2480
 2314W        W15728   0.813   8.274   3.935 -0.0162 -0.0650  0.1500
 2315W        W15729  12.668  14.994   9.696  0.0453  0.2703  0.0795
 2316W        W15730  17.524   9.005   2.589 -0.1074  0.0987  0.1914
 2317W        W15731   5.832  16.228   3.394 -0.0748 -0.0075  0.0552
 2318W        W15732   5.577  18.069  12.270 -0.2063  0.0775  0.0040
 2319W        W15733   0.777  17.814   5.291  0.0035  0.0837 -0.2307
 2320W        W15734  14.622  12.562   1.493  0.1375  0.1806  0.0912
 2321W        W15735  11.542  10.625   2.289  0.1382 -0.3179 -0.3333
 2322W        W15736   4.090   8.794   0.069  0.0504 -0.0584 -0.0764
 2323W        W15737  12.532   5.170  14.253 -0.1844 -0.5242 -0.1577
 2324W        W15738  12.339  16.398  12.204  0.1575 -0.0639  0.1391
 2325W        W15739   1.124   1.698  15.691 -0.0651 -0.0386 -0.0561
 2326W        W15740  16.798  13.272  13.023  0.1417  0.5740  0.0088
 2327W        W15741   9.403  15.914  13.512  0.3277  0.3813  0.0569
 2328W        W15742   8.854  11.198   5.238 -0.3314 -0.2460 -0.0552
 2329W        W15743  12.723  17.033  14.324  0.4579  0.0101  0.0860
 2330W        W15744  14.330   8.614   2.883 -0.1668  0.1913 -0.2202
 2331W        W15745   6.813   4.424  14.823 -0.0449 -0.0540  0.4051
 2332W        W15746   1.000   7.397  13.045  0.0229  0.0875 -0.2800
 2333W        W15747   2.209   7.746   5.995  0.0625  0.1188 -0.1019
 2334W        W15748  11.401   1.009  16.253 -0.0794 -0.0981  0.0901
 2335W        W15749   4.990   0.654  13.336 -0.0534 -0.0029  0.0086
 2336W        W15750  15.475   3.042  15.455  0.0655  0.0741  0.0214
 2337W        W15751  12.270   1.330  16.070  0.0075 -0.2665  0.3248
 2338W        W15752   4.149  15.480   3.210 -0.3057  0.4023  0.0145
 2339W        W15753   2.008  11.870   2.120 -0.1873 -0.0041  0.3724
 2340W        W15754   2.558  14.220   3.477  0.0855  0.2126 -0.0388
 2341W        W15755  11.841  12.922   3.835  0.1735 -0.0313  0.2768
 2342W        W15756  18.140   1.191  13.544  0.2850  0.2974  0.0568
 2343W        W15757  15.441   5.578   2.121 -0.0931  0.0089 -0.0469
 2344W        W15758   2.201  16.188   1.607 -0.0862  0.2478 -0.0334
 2345W        W15759   5.191   2.002  13.161  0.1618 -0.0764  0.2506
 2346W        W15760  11.859  12.009   2.736 -0.0845  0.1734 -0.3442
 2347W        W15761  16.419   8.916   3.362  0.2507  0.2175 -0.2759
 2348W        W15762   2.686   1.565   5.722  0.1975 -0.2861 -0.0761
 2349W        W15763   6.882  14.490  12.849 -0.0875 -0.0418 -0.0863
 2350W        W15764  15.984   9.559   1.435 -0.0145 -0.2446  0.0709
 2351W        W15765  16.087   9.685  15.109 -0.0406 -0.0420 -0.2696
 2352W        W15766   9.149  15.750   1.842 -0.0999  0.0146  0.0047
 2353W        W15767   2.927   5.434   2.762  0.1237 -0.2775 -0.0489
 2354W        W15768   9.767   1.730  11.041 -0.2347  0.2127 -0.1334
 2355W        W15769   5.156   1.882   4.036  0.1898 -0.1335 -0.2429
 2356W        W15770  15.812  17.793  14.794 -0.0884 -0.0387 -0.0015
 2357W        W15771  13.034  16.756  13.222  0.1086 -0.1027 -0.0066
 2358W        W15772   2.431  18.272   0.333  0.1648 -0.0323  0.1626
 2359W        W15773   3.475   2.415  10.330  0.1827 -0.0293  0.0222
 2360W        W15774  15.194   9.385  15.336  0.0621 -0.2398 -0.2103
 2361W        W15775  14.458   3.412  13.884 -0.1203 -0.1792 -0.2704
 2362W        W15776  15.337  11.075  14.062 -0.1984 -0.2126 -0.0512
 2363W        W15777  13.416   4.577   9.954  0.0081 -0.0361  0.1313
 2364W        W15778   3.103   0.151   0.213 -0.1068 -0.1215 -0.1801
 2365W        W15779  11.078  16.157   0.395 -0.0853  0.2459 -0.2045
 2366W        W15780   4.737  13.996  15.923  0.2473 -0.1180 -0.2414
 2367W        W15781   5.003  11.903   3.606  0.0540  0.1982 -0.0227
 2368W        W15782  10.590   1.519  14.723 -0.0072 -0.2525 -0.2351
 2369W        W15783   6.302  14.798  13.026  0.0499 -0.1617 -0.1176
 2370W        W15784   8.273   4.482   3.605  0.0757  0.1641 -0.1414
 2371W        W15785   6.022  10.398  10.792  0.0727 -0.1309  0.1570
 2372W        W15786   5.917   5.057   3.846  0.0069 -0.1791  0.1116
 2373W        W15787   1.114   1.877   4.681  0.0228 -0.1963  0.1719
 2374W        W15788   6.258  15.231  12.668 -0.1624 -0.2106 -0.0273
 2375W        W15789   4.579  10.584   2.119 -0.0378  0.2349  0.1355
 2376W        W15790  12.937   7.266   3.363 -0.2047 -0.1446 -0.1974
 2377W        W15791  13.668   8.384  13.701 -0.1706 -0.0015 -0.2632
 2378W        W15792   4.760  17.284   2.111 -0.0333 -0.2053 -0.2212
 2379W        W15793   9.574  17.085   0.646  0.2741 -0.1524 -0.1814
 2380W        W15794   2.332  14.690   2.684 -0.4933 -0.1973  0.1128
 2381W        W15795  12.932   1.857   1.562  0.3318 -0.1295  0.1650
 2382W        W15796  13.695   5.171   5.319  0.0606 -0.1743 -0.2304
 2383W        W15797   9.506   8.299   4.111 -0.4175  0.0362  0.3389
 2384W        W15798  11.609   5.949   3.389  0.3100  0.1000  0.0188
 2385W        W15799  16.072   1.541  16.103 -0.1325  0.1239  0.0607
 2386W        W15800  15.633   0.707  14.296 -0.3908 -0.2398 -0.0735
 2387W        W15801   7.151   2.086  15.678  0.0341 -0.2389  0.2072
 2388W        W15802  15.558  15.834  13.036 -0.1674  0.0960 -0.0012
 2389W        W15803  16.714  13.869   1.065  0.0891 -0.0916  0.0324
 2390W        W15804  16.902   1.709   0.923  0.0036  0.2813  0.0390
 2391W        W15805   8.982   0.993   3.184  0.0662  0.0820  0.0946
 2392W        W15806  18.297   2.716   0.538  0.0552 -0.0246  0.0552
 2393W        W15807  16.799   8.129   5.177  0.2314 -0.0471  0.2127
 2394W        W15808  13.475  16.477  14.537 -0.1355  0.2634 -0.0402
 2395W        W15809   6.297   8.407   5.528 -0.1079 -0.0152  0.1520
 2396W        W15810   9.887  12.048  10.433  0.0772  0.5675  0.0061
 2397W        W15811   4.947  18.254   5.909  0.0409 -0.2312  0.2865
 2398W        W15812  15.241  15.595  14.473  0.5269  0.2991 -0.1633
 2399W        W15813   3.293   8.062   1.932  0.0432 -0.2729  0.0769
 2400W        W15814  13.031  10.248   4.836 -0.0600 -0.1421  0.0688
 2401W        W15815  14.899   3.236   5.185  0.1822 -0.0656  0.0358
 2402W        W15816  12.514   5.149   1.663  0.1907 -0.1629 -0.1673
 2403W        W15817   8.760   2.348  15.282 -0.0149 -0.2276 -0.1072
 2404W        W15818  17.000   8.990  10.391  0.2335  0.0151  0.2920
 2405W        W15819   3.640  18.153   5.043 -0.0192  0.1938  0.0109
 2406W        W15820   6.530   9.403  13.356  0.1778 -0.0867  0.0026
 2407W        W15821  14.576   3.119  15.200  0.1702  0.3558 -0.5308
 2408W        W15822   9.911   3.139  15.174  0.1629  0.0605 -0.1304
 2409W        W15823   5.475  17.223  14.467 -0.1483  0.1255  0.0593
 2410W        W15824   5.234   1.343  13.955  0.4431  0.2681 -0.2304
 2411W        W15825  12.648   4.210  14.615 -0.1393 -0.2098  0.2139
 2412W        W15826   0.247   5.055  13.980  0.0270 -0.0427  0.0236
 2413W        W15827  16.979  15.502  11.280 -0.0961  0.4634  0.1317
 2414W        W15828  11.002  13.960   0.777 -0.0463 -0.1786 -0.0514
 2415W        W15829   9.038  13.741   2.450 -0.2132 -0.3216  0.1419
 2416W        W15830   9.446   2.128  16.101 -0.0240 -0.0744  0.0862
 2417W        W15831   0.080   0.212  12.031  0.0347  0.0216  0.1499
 2418W        W15832   0.696   7.588  13.381  0.0497 -0.1735 -0.0519
 2419W        W15833  10.627  17.048   1.501  0.0607  0.0365 -0.0706
 2420W        W15834  14.935  13.765   0.500 -0.1477 -0.1101  0.0863
 2421W        W15835  11.109  12.364   1.620  0.1802  0.2257  0.0128
 2422W        W15836  14.456   5.713   2.378 -0.3054 -0.2037  0.0128
 2423W        W15837  14.805   6.667  14.565  0.2967  0.1712  0.2629
 2424W        W15838  11.081   7.863  12.689  0.3969 -0.1407  0.1357
 2425W        W15839   6.836   9.231   3.896  0.1636 -0.1283 -0.0521
 2426W        W15840  16.968  16.083  11.467  0.1123  0.1807  0.1006
 2427W        W15841  16.737  16.625  15.766  0.0720 -0.0848 -0.2460
 2428W        W15842  10.781  10.936  11.352 -0.0298 -0.1944  0.0220
 2429W        W15843   4.750  10.462   9.625 -0.0954  0.0248 -0.0813
 2430W        W15844   6.997   7.276  13.170  0.1027 -0.1193 -0.2865
 2431W        W15845   9.681  10.997  10.650  0.3319 -0.2121  0.3657
 2432W        W15846  17.381  11.215   1.970 -0.0422 -0.0884 -0.2209
 2433W        W15847   9.025   5.371  11.398 -0.1203 -0.3948 -0.3367
 2434W        W15848  10.388  17.307  11.583 -0.0451  0.1810  0.0937
 2435W        W15849  16.157   0.322   4.876 -0.1035 -0.2048  0.1047
 2436W        W15850   3.055   5.199  14.319 -0.2756 -0.4870 -0.0363
 2437W        W15851  11.286   6.253  16.188  0.0074  0.0408 -0.2171
 2438W        W15852  14.216  15.023   0.979 -0.0827  0.0291  0.2295
 2439W        W15853   3.337   2.629  10.739  0.0598  0.1701 -0.2113
 2440W        W15854   5.758   9.123  12.648  0.3006 -0.1352 -0.2284
 2441W        W15855   4.260   1.046   0.878 -0.0167  0.2841 -0.1704
 2442W        W15856  16.505   3.919   4.268 -0.1158  0.2430  0.1713
 2443W        W15857  18.207   1.747   4.638  0.1755 -0.2214 -0.1825
 2444W        W15858  14.929  16.607   2.446  0.1712  0.0665 -0.0327
 2445W        W15859  11.101  10.932   4.341 -0.2461  0.3173  0.2953
 2446W        W15860   3.015   7.710  11.627  0.6683  0.2484  0.1025
 2447W        W15861   4.284   3.778   1.909 -0.0256  0.0187  0.2583
 2448W        W15862  11.131  17.535  10.778  0.0788  0.0611  0.0096
 2449W        W15863   2.104  10.432  13.553 -0.0822  0.1896  0.0881
 2450W        W15864  11.977  17.356   4.203  0.2829 -0.1918 -0.1001
 2451W        W15865   6.080   9.789  14.628 -0.0500  0.0300 -0.0431
 2452W        W15866   5.723  13.338  15.842  0.0682  0.0117 -0.1536
 2453W        W15867   1.041  15.620  12.527 -0.2886  0.0129  0.3042
 2454W        W15868   3.097  14.046   1.732  0.0751 -0.0338  0.1425
 2455W        W15869   5.189  12.361  10.708  0.0450 -0.0092  0.1463
 2456W        W15870   1.339  17.869   5.653  0.1046  0.4903 -0.1444
 2457W        W15871   3.783   7.110   0.842  0.1282  0.0848  0.0245
 2458W        W15872   8.343   7.991   5.348  0.0873 -0.0827  0.2269
 2459W        W15873  14.076  10.650  10.985  0.0727  0.3656  0.0440
 2460W        W15874  11.817  18.247   5.059 -0.0158 -0.1179 -0.0015
 2461W        W15875   6.331  13.730   1.782 -0.1469  0.2253 -0.1728
 2462W        W15876   6.742  14.016   4.996 -0.0333 -0.0904  0.0262
 2463W        W15877   6.170  17.446   5.273 -0.3205 -0.0773  0.2559
 2464W        W15878   7.446  14.034  11.291 -0.2735 -0.1939  0.1719
 2465W        W15879  15.208   1.135  10.755 -0.1477 -0.1406  0.0888
 2466W        W15880  18.369  12.556  13.670 -0.0114  0.0543  0.2561
 2467W        W15881  13.697  10.739   0.592 -0.2631 -0.1433  0.3007
 2468W        W15882  14.428   5.312  12.102 -0.1677 -0.4403  0.0689
 2469W        W15883   1.561  17.487  13.507 -0.1777  0.0728 -0.0265
 2470W        W15884   5.623   6.216   3.348 -0.1291 -0.0942  0.1875
 2471W        W15885  13.985  15.379   2.728 -0.0476  0.3354  0.0244
 2472W        W15886   6.863   1.060  13.705 -0.2780  0.0664  0.1405
 2473W        W15887   5.145   1.724   1.310  0.1719  0.1150 -0.1285
 2474W        W15888  15.015  12.153   2.603  0.0127  0.2272  0.1035
 2475W        W15889   3.964   1.649  12.535  0.1711 -0.0749  0.0405
 2476W        W15890  13.720   8.993   5.923  0.1255 -0.0736  0.3105
 2477W        W15891   1.210  13.985  15.964 -0.1438  0.0136  0.1422
 2478W        W15892   5.397  17.694  14.266  0.0665  0.3177 -0.1400
 2479W        W15893   5.688  18.402   3.811 -0.0900  0.2157  0.0525
 2480W        W15894   1.097   6.002   5.716 -0.0966 -0.1161  0.1600
 2481W        W15895   9.011  13.525  12.950 -0.0017 -0.0617 -0.1077
 2482W        W15896   6.226  12.520   4.160 -0.1573 -0.3031  0.1474
 2483W        W15897   8.112   7.895  15.311  0.3018 -0.0338  0.0857
 2484W        W15898  18.021   7.313   1.524  0.2522  0.0050 -0.0163
 2485W        W15899  12.475   0.586   3.430 -0.2165 -0.1423 -0.0507
 2486W        W15900   0.709   7.083  15.766  0.0114 -0.2483  0.0726
 2487W        W15901  13.485  14.460   1.387 -0.0168 -0.0686 -0.0969
 2488W        W15902  16.425   3.122  12.906 -0.1124  0.1747  0.0087
 2489W        W15903   1.859   1.992  11.165  0.1106  0.0211 -0.1842
 2490W        W15904  12.165   8.847  15.757 -0.0565  0.0171  0.0767
 2491W        W15905   0.180   9.525   5.618  0.1790 -0.1319  0.0324
 2492W        W15906   6.728   9.120  12.588 -0.0559  0.0905 -0.2134
 2493W        W15907   6.437   0.098  13.726 -0.0074  0.3138 -0.3597
 2494W        W15908   8.931  15.678   5.839  0.1179 -0.1147  0.2897
 2495W        W15909  10.283   8.847  12.994  0.0776 -0.0567 -0.1587
 2496W        W15910   1.472  12.507  15.596  0.0266 -0.1091  0.2195
 2497W        W15911   1.753   1.561  13.891 -0.0048  0.1022 -0.1433
 2498W        W15912   5.895   0.893  12.792  0.0933  0.0379  0.1473
 2499W        W15913  11.913  17.177   2.202 -0.0398  0.4981 -0.2478
 2500W        W15914   4.573   4.034   5.094  0.0616 -0.1737  0.1125
 2501W        W15915   6.015   1.226   4.004  0.0337  0.1987 -0.3369
 2502W        W15916   2.475  12.382   2.810  0.2036  0.0498 -0.3557
 2503W        W15917   1.611   4.175   0.295 -0.1472  0.1440 -0.1764
 2504W        W15918  16.999  12.455  12.676  0.0508 -0.0512 -0.1270
 2505W        W15919   0.819   5.946  16.065  0.0832  0.0620  0.1898
 2506W        W15920  13.042  14.387   3.762 -0.1888  0.2488 -0.1110
 2507W        W15921   7.853  17.128   4.686  0.0888  0.4491  0.0040
 2508W        W15922  14.414  11.361   5.080  0.0975 -0.1269  0.1591
 2509W        W15923   4.449  15.709   4.891  0.3490  0.0124  0.1920
 2510W        W15924   3.903   2.921  12.568  0.1803  0.2424  0.0844
 2511W        W15925  11.478   6.754  14.224  0.1291  0.0121  0.0617
 2512W        W15926  18.297  13.479   5.111  0.2263  0.0695  0.0046
 2513W        W15927  13.579   0.270   1.826  0.1527  0.0333 -0.1423
 2514W        W15928  14.139  11.074  14.374 -0.2355 -0.0536 -0.1341
 2515W        W15929   9.687   5.065   5.240  0.2813  0.1129 -0.2184
 2516W        W15930  10.649  11.029  15.226 -0.2322  0.0083 -0.0035
 2517W        W15931  10.558   5.641   3.154  0.2047  0.0772 -0.0799
 2518W        W15932   8.706   7.791   4.132  0.1631 -0.3090 -0.1653
 2519W        W15933  13.267   3.717  16.205 -0.1101 -0.0031  0.0132
 2520W        W15934  12.210  16.719   0.223  0.1804 -0.4288 -0.0864
 2521W        W15935   2.053  16.624  12.033 -0.0853  0.0278  0.2244
 2522W        W15936   8.278   1.708   5.002 -0.4468  0.2199 -0.1698
 2523W        W15937  15.587  17.269   4.871 -0.1898  0.2780 -0.2601
 2524W        W15938  18.050   8.917  12.417  0.2151 -0.2346 -0.1170
 2525W        W15939   0.201   5.106   6.950 -0.1558 -0.0250 -0.0250
 2526W        W15940  12.797   3.683  16.010  0.2344 -0.3365  0.3532
 2527W        W15941  14.273  14.596  12.505  0.1988 -0.0241 -0.1860
 2528W        W15942   4.387  14.113   0.007  0.0809 -0.0877 -0.1461
 2529W        W15943  14.380  14.760   3.961  0.2739  0.2476 -0.2965
 2530W        W15944   9.375   5.999   2.266 -0.3133  0.1379  0.0615
 2531W        W15945  12.937  13.362  12.923  0.1894 -0.2341  0.0251
 2532W        W15946   7.158  11.752  13.614  0.1712  0.0132 -0.1320
 2533W        W15947  12.753  13.291   2.472 -0.0223 -0.0751  0.2766
 2534W        W15948   8.538  11.778  13.400 -0.0776 -0.1785  0.3626
 2535W        W15949   8.341   0.954   3.956  0.1320  0.2548 -0.3255
 2536W        W15950   6.364  12.186   1.238 -0.3003  0.2403  0.0139
 2537W        W15951  13.005  13.469   4.795 -0.2261  0.3028  0.0985
 2538W        W15952  15.119   6.241  12.022 -0.1252 -0.3319 -0.1395
 2539W        W15953  17.822  15.337  11.952 -0.1634  0.0336  0.1741
 2540W        W15954   5.349   6.638  12.600 -0.1459 -0.1379 -0.0353
 2541W        W15955   0.754  13.141  11.487 -0.1095 -0.0823  0.0990
 2542W        W15956   1.774   0.729  13.712  0.1890 -0.0816 -0.0883
 2543W        W15957  12.561   6.434  15.441 -0.1033  0.0912 -0.1980
 2544W        W15958   5.366   4.706  11.853 -0.1612  0.2595 -0.0346
 2545W        W15959  15.960   9.440   6.036 -0.4877  0.0568 -0.1305
 2546W        W15960   7.834  10.972  15.145 -0.1924  0.1161 -0.1574
 2547W        W15961   7.094  18.290  16.147 -0.1166 -0.0951 -0.0342
 2548W        W15962   0.815   6.440  15.847 -0.0397 -0.0433 -0.1036
 2549W        W15963   5.520   4.138   1.959 -0.0195 -0.0777  0.1306
 2550W        W15964  14.933   4.059  12.876 -0.1001 -0.1514  0.0821
 2551W        W15965  13.418   0.673   4.655  0.1648  0.0255  0.1745
 2552W        W15966   1.321  12.412   9.961  0.1479  0.1266 -0.0498
 2553W        W15967   2.369   8.440   3.941  0.2531 -0.0332 -0.0759
 2554W        W15968   3.223   2.930   3.489  0.2122  0.0866 -0.0344
 2555W        W15969  15.879   9.509   5.078 -0.0624 -0.5051  0.2107
 2556W        W15970   5.604  12.442  16.116 -0.2307  0.2140 -0.3133
 2557W        W15971  18.282   6.511  14.793  0.3667  0.1946  0.0478
 2558W        W15972  18.216  13.316  12.607 -0.2450  0.3059 -0.1062
 2559W        W15973   3.837  16.542   5.774 -0.1274 -0.1510 -0.0022
 2560W        W15974   2.990  17.536  13.515 -0.2299  0.1693  0.1990
 2561W        W15975  14.063   9.859   2.703 -0.0596  0.1853  0.1428
 2562W        W15976  13.272   9.553   1.190  0.0429  0.1315  0.0293
 2563W        W15977   5.466  10.274   3.698 -0.1215  0.2069  0.1321
 2564W        W15978   2.504  16.807   4.110  0.0165  0.2985 -0.0001
 2565W        W15979   1.470   8.562   2.438  0.1842  0.1896  0.2593
 2566W        W15980  17.804   0.966  11.732 -0.0921  0.1945  0.3139
 2567W        W15981  11.135   5.865   3.217  0.1382 -0.1719 -0.0628
 2568W        W15982   6.776   4.386   9.860  0.0412 -0.0247 -0.3153
 2569W        W15983  17.704   5.848   4.959 -0.0263 -0.1506 -0.2518
 2570W        W15984  10.470  10.682  13.987 -0.4450 -0.1997  0.0031
 2571W        W15985   4.359  18.314  12.766 -0.4392 -0.0389 -0.0263
 2572W        W15986   7.842   0.650  15.127  0.0572  0.1860  0.1648
 2573W        W15987   9.907  18.321   3.417 -0.0090 -0.0567  0.1665
 2574W        W15988   9.867   2.908   0.084  0.1908  0.0074 -0.1288
 2575W        W15989   9.147  11.486   1.368 -0.1679 -0.3688  0.1136
 2576W        W15990  15.185  13.562   3.677 -0.1505  0.0278  0.1660
 2577W        W15991   6.150  14.325  10.304 -0.2108 -0.2888  0.0798
 2578W        W15992   6.975   1.565  10.211  0.1862 -0.1680  0.2128
 2579W        W15993  12.427   8.936   2.813 -0.0666 -0.0959  0.0963
 2580W        W15994   5.924  12.641   3.403 -0.0361 -0.1590 -0.0187
 2581W        W15995   7.264   8.726  10.359 -0.0904 -0.4077 -0.0484
 2582W        W15996   5.169  13.947   5.726 -0.1975  0.0739 -0.0775
 2583W        W15997  13.341  12.383  11.263  0.0818  0.0401  0.0446
 2584W        W15998   1.353   6.544  11.042 -0.3199  0.0919 -0.2223
 2585W        W15999   1.889   2.182   3.677  0.2794  0.1702  0.2092
 2586W        W16000  13.937   6.242   0.814  0.2628  0.2584 -0.0013
 2587W        W16001  14.481   2.834   2.196  0.1748  0.3214  0.1823
 2588W        W16002   8.385  16.106   5.811  0.0961  0.0375  0.0198
 2589W        W16003   7.927  15.872  12.384 -0.0225  0.3265 -0.0935
 2590W        W16004   2.716  15.610  14.558  0.1690 -0.1716 -0.4953
 2591W        W16005   0.926   1.353   0.041 -0.0263 -0.1690 -0.2508
 2592W        W16006  10.830   6.803  15.720  0.0191 -0.1325  0.0823
 2593W        W16007   1.911   3.604  14.165 -0.2796 -0.6108  0.1459
 2594W        W16008  18.340  13.823   3.743  0.1040 -0.1575 -0.1445
 2595W        W16009  18.165   5.586  15.937  0.2039 -0.2541 -0.2243
 2596W        W16010  10.349  17.791   3.091 -0.0902 -0.1362 -0.2776
 2597W        W16011   6.239  17.892   2.296 -0.1342  0.2152  0.1754
 2598W        W16012  15.944  13.495  10.088  0.0917  0.2247 -0.0227
 2599W        W16013   0.532   3.736   1.977  0.6429 -0.1986 -0.3735
 2600W        W16014  15.137   8.172   3.331  0.2245 -0.3603 -0.0049
 2601W        W16015  18.254  16.489  12.392  0.0090 -0.2430  0.0527
 2602W        W16016  10.711  12.219  15.109 -0.0719 -0.3323  0.1082
 2603W        W16017   1.362   0.584   2.092 -0.1605 -0.4255 -0.0502
 2604W        W16018  17.078  13.922   0.446  0.2687 -0.1746  0.2311
 2605W        W16019   6.127   0.112   4.751  0.0848 -0.0699  0.0133
 2606W        W16020   6.631   6.551   4.471  0.2175  0.3501  0.0248
 2607W        W16021  12.323   3.878   1.079  0.1634 -0.0367 -0.1081
 2608W        W16022  12.208   8.469  11.679  0.1695 -0.1371 -0.1794
 2609W        W16023  11.808   9.536  15.444 -0.0216  0.1545 -0.0638
 2610W        W16024  10.665   5.143  14.509 -0.1235 -0.1574  0.1558
 2611W        W16025  11.520   0.514   3.418 -0.0051  0.2457  0.0187
 2612W        W16026  11.490  16.897   1.563  0.3448  0.0569  0.0759
 2613W        W16027  10.962  12.739  11.164 -0.2814 -0.0453  0.1091
 2614W        W16028  14.640  12.142   0.329 -0.0255  0.1516 -0.1041
 2615W        W16029  11.585  12.823   4.659 -0.0633 -0.1081  0.0723
 2616W        W16030   1.690   6.527  10.208  0.3185  0.2755 -0.1059
 2617W        W16031   3.915   0.084   5.171 -0.1738 -0.3349  0.1632
 2618W        W16032  11.830   1.369  10.176 -0.1844 -0.0619  0.2730
 2619W        W16033   9.973  14.106   2.456 -0.3452 -0.0192 -0.0006
 2620W        W16034   8.895   2.074  10.779 -0.4479  0.2001 -0.1864
 2621W        W16035   4.494   0.614   3.908 -0.1099 -0.1464 -0.3439
 2622W        W16036   7.990   8.920   6.187 -0.1030 -0.2956  0.1654
 2623W        W16037  16.533   1.106   3.896 -0.0747  0.3782 -0.0447
 2624W        W16038   0.303   6.797  13.295 -0.0097 -0.1689  0.1908
 2625W        W16039   9.082   5.473   3.940  0.3582  0.4653 -0.0591
 2626W        W16040  16.017  15.174  14.791  0.1879  0.0995 -0.1174
 2627W        W16041   9.133   6.497   0.715  0.1322  0.0502 -0.1496
 2628W        W16042   7.860   1.458  13.485  0.0315  0.1353 -0.0625
 2629W        W16043  15.864   9.914  11.313 -0.0210 -0.0938  0.0189
 2630W        W16044   7.050  15.052  15.278 -0.1782 -0.1311  0.3525
 2631W        W16045   0.390   2.901  11.066  0.0871 -0.0381  0.4088
 2632W        W16046   2.706  11.854   1.358 -0.1124 -0.0524  0.0290
 2633W        W16047   6.487  10.884   5.116 -0.1232  0.1401  0.1521
 2634W        W16048   3.607  14.868   5.549  0.3143 -0.0192 -0.0368
 2635W        W16049  18.419   3.393   5.765 -0.2105  0.2835  0.1802
 2636W        W16050  13.937   4.328   5.034  0.3309  0.3707 -0.0379
 2637W        W16051  17.167  10.758  14.011  0.0380 -0.4930  0.1210
 2638W        W16052  13.017  15.865  15.321 -0.0839  0.3441  0.0399
 2639W        W16053  10.225   0.744   2.065  0.3294 -0.1233 -0.1063
 2640W        W16054  16.725   8.575   2.433  0.0195 -0.0436  0.0286
 2641W        W16055   4.359   8.998  12.402 -0.0099  0.1592  0.2978
 2642W        W16056   5.455   7.536  10.284  0.4234  0.0878 -0.0352
 2643W        W16057  14.295   6.912   1.583 -0.0557  0.1513 -0.1829
 2644W        W16058  16.781  16.573   0.063  0.1361 -0.2563  0.1397
 2645W        W16059  10.862  10.811   4.799  0.0982 -0.0140 -0.0247
 2646W        W16060  14.638   2.910   4.815  0.0568 -0.1521  0.2170
 2647W        W16061  15.985   5.169   0.551  0.1206  0.0443 -0.1878
 2648W        W16062   1.814  17.520  14.088  0.0437 -0.0211 -0.0287
 2649W        W16063  14.738  15.177  11.928 -0.1233 -0.1055  0.1830
 2650W        W16064   9.530  14.319  13.518  0.0344  0.0820 -0.0563
 2651W        W16065  12.322  10.584   2.761  0.2299 -0.0576  0.0073
 2652W        W16066   6.787  15.657  14.668  0.1001  0.1576 -0.0301
 2653W        W16067   3.983  13.274  12.697  0.1034 -0.2363  0.1853
 2654W        W16068   6.728   8.476   1.226 -0.2109  0.1064 -0.0562
 2655W        W16069   7.460  17.334   5.495  0.0693  0.0533  0.0437
 2656W        W16070   6.366  16.296   2.522  0.0026 -0.0508  0.0092
 2657W        W16071   2.546   4.008   1.451  0.0402 -0.0315 -0.1553
 2658W        W16072   4.806   0.386   0.984  0.0860  0.2818  0.1410
 2659W        W16073  13.367  17.359   3.312  0.0278  0.1490  0.0365
 2660W        W16074  12.562   5.073   0.284  0.0086 -0.2515  0.0107
 2661W        W16075  13.925  10.031   0.592 -0.0456 -0.1145  0.4772
 2662W        W16076  16.636   5.848   0.742 -0.0488 -0.0203 -0.0654
 2663W        W16077  13.431  16.788   3.292  0.0186 -0.0540 -0.0765
 2664W        W16078   0.333  12.741   2.541 -0.0523  0.0587  0.1103
 2665W        W16079   8.822  11.661   4.478 -0.1046  0.1531  0.2478
 2666W        W16080   9.092   5.923   0.758 -0.1789  0.1056  0.0007
 2667W        W16081   8.473   8.198   1.320  0.0705 -0.2124 -0.0293
 2668W        W16082  17.944   4.747  11.652  0.2464 -0.2428  0.0232
 2669W        W16083  16.261   7.636   1.515  0.0162 -0.2842  0.0103
 2670W        W16084   6.602   4.011   1.949  0.2949  0.2207 -0.1481
 2671W        W16085   3.833   1.404   2.062  0.2452 -0.0104 -0.0552
 2672W        W16086   6.642   2.785   5.939  0.3099  0.0978 -0.0548
 2673W        W16087   3.389   8.017  16.003  0.2190  0.0933  0.0090
 2674W        W16088  11.709  10.527   4.707 -0.2260 -0.1060  0.0982
 2675W        W16089   2.809   5.374  12.550  0.0210 -0.0698 -0.1019
 2676W        W16090  12.885   8.734   0.340 -0.1660 -0.1452 -0.1542
 2677W        W16091   6.203  18.433   3.895 -0.3331  0.2046 -0.0869
 2678W        W16092  14.804  10.484  13.376 -0.2073 -0.1403 -0.0834
 2679W        W16093   0.546   0.001  15.105 -0.0877 -0.1510  0.0111
 2680W        W16094  17.982  18.394  12.842  0.2649 -0.1312 -0.0380
 2681W        W16095   7.588  14.138   0.659  0.2147  0.2334 -0.2750
 2682W        W16096   8.165  12.967   5.258 -0.0376  0.2171 -0.0843
 2683W        W16097  10.845  13.183   5.365 -0.1651  0.0420 -0.3026
 2684W        W16098   3.859   3.801   0.382  0.0324  0.1482 -0.0530
 2685W        W16099   9.083   4.642  15.312 -0.0771  0.2384 -0.0223
 2686W        W16100  10.034  16.768  10.382 -0.0346  0.1058 -0.0120
 2687W        W16101   5.637   1.416   3.495 -0.1122  0.0418  0.0786
 2688W        W16102   8.165   0.571  15.914 -0.1703  0.3148 -0.0942
 2689W        W16103   4.318  15.716   4.249  0.2576  0.1346 -0.0489
 2690W        W16104  12.076   8.226   2.038 -0.0281  0.0439  0.0663
 2691W        W16105   3.681  16.887  15.497  0.0085  0.0626 -0.1215
 2692W        W16106   0.445  12.914   4.501 -0.0425  0.1468 -0.1304
 2693W        W16107   2.957  18.136   3.037 -0.0564  0.0121 -0.0256
 2694W        W16108  16.966   7.476   5.105 -0.0551  0.1720  0.3174
 2695W        W16109   1.726   3.492  14.600  0.1183 -0.0274 -0.1322
 2696W        W16110   3.376   7.655  13.942  0.0070  0.2454  0.0099
 2697W        W16111  14.545   8.895  12.312 -0.1628  0.0432 -0.0876
 2698W        W16112   4.736   0.198   2.063  0.0648  0.0111 -0.1244
 2699W        W16113   5.066  11.405   0.168  0.0404  0.0119  0.1564
 2700W        W16114   1.947   8.584  10.711  0.1313  0.0210 -0.0502
 2701W        W16115   6.597  16.290   2.084 -0.0134 -0.1247  0.1411
 2702W        W16116   2.200   3.471   5.197 -0.1469  0.0948 -0.0940
 2703W        W16117   2.961   4.128  10.473  0.1559 -0.1740  0.2734
 2704W        W16118   2.059   9.211  15.665 -0.1635 -0.0479  0.1380
 2705W        W16119   2.552  17.676  12.793 -0.2067 -0.0421 -0.3317
 2706W        W16120  10.197   7.173   1.405  0.1807  0.2409 -0.1602
 2707W        W16121   3.189  13.886  11.841  0.3749  0.0389  0.1863
 2708W        W16122  10.121   3.109   0.452  0.0327  0.2869 -0.2226
 2709W        W16123   8.078   6.439  11.429  0.0630  0.2383 -0.1558
 2710W        W16124  12.218  14.762   3.371 -0.0453  0.1140  0.1457
 2711W        W16125  11.258  17.731   1.519 -0.0032 -0.3201  0.0609
 2712W        W16126  14.757   2.556   3.294 -0.0318 -0.1680 -0.2240
 2713W        W16127  15.283  16.210  13.226  0.1715  0.0067  0.2587
 2714W        W16128   9.839  11.334   2.161  0.5474 -0.5130  0.3999
 2715W        W16129  11.020   7.188   4.650 -0.1764 -0.0486  0.2223
 2716W        W16130  18.191  17.401  15.865 -0.0801  0.0140  0.2577
 2717W        W16131  11.286   5.842   1.374 -0.1959  0.1380 -0.1905
 2718W        W16132   5.790  15.308  12.417  0.1023 -0.1280 -0.2751
 2719W        W16133  17.710   2.585   4.960  0.1200  0.1494  0.0908
 2720W        W16134  10.865   7.349  11.164 -0.0644  0.1075  0.0766
 2721W        W16135  13.971   1.184  12.962 -0.0358 -0.0689 -0.0762
 2722W        W16136  12.721   5.036  13.456 -0.0329 -0.0414 -0.0227
 2723W        W16137  17.662   7.800   0.828 -0.0282 -0.0504 -0.2460
 2724W        W16138   9.095  14.767  15.914  0.1447 -0.1532  0.0728
 2725W        W16139   6.256  16.589   0.895  0.0480  0.1984  0.1880
 2726W        W16140   0.614  13.449   5.535  0.2436 -0.1677  0.0526
 2727W        W16141   7.241   4.762  11.544  0.0782  0.2681 -0.0793
 2728W        W16142   9.012  16.173  13.709 -0.0707  0.1822 -0.0136
 2729W        W16143  12.883  15.066  10.260  0.0351 -0.4153  0.0619
 2730W        W16144   1.640   1.378   1.082  0.1956  0.1514 -0.0809
 2731W        W16145   0.881  15.874  10.701 -0.1546 -0.1612  0.0044
 2732W        W16146   9.625  10.166  13.393 -0.0221 -0.3710 -0.2996
 2733W        W16147   5.039  16.139   2.979 -0.1169  0.3785 -0.3153
 2734W        W16148   7.471   9.073   4.169 -0.1588 -0.1449  0.0973
 2735W        W16149   2.809   7.170   4.285  0.0076 -0.0546  0.0152
 2736W        W16150  18.296  14.221  12.233 -0.1492 -0.0069  0.3774
 2737W        W16151  13.124   5.996   5.605 -0.2185  0.0019  0.3182
 2738W        W16152   1.772   8.969   4.588 -0.1224 -0.1279  0.0126
 2739W        W16153  13.019  18.390  11.778  0.0010  0.2417 -0.2705
 2740W        W16154   6.299   1.381  14.450 -0.0040  0.0101  0.2793
 2741W        W16155   5.719   0.048   6.213 -0.0295 -0.1334 -0.1824
 2742W        W16156   9.027   0.578   2.950 -0.1322 -0.0131 -0.2106
 2743W        W16157   7.585  12.871   4.180 -0.0429 -0.0152  0.0074
 2744W        W16158  12.439   9.629  11.448  0.2703 -0.2507 -0.1403
 2745W        W16159   2.916  11.229  12.820 -0.0512 -0.0148 -0.1924
 2746W        W16160   5.836  16.773  13.612  0.1325  0.1287 -0.0466
 2747W        W16161  16.523  18.211  12.737  0.2302  0.0025 -0.1975
 2748W        W16162  11.425   8.512  11.829 -0.0127 -0.3746  0.0110
 2749W        W16163  10.190  17.199  10.421 -0.0274 -0.0883 -0.2776
 2750W        W16164  13.079   3.359   2.993 -0.1722  0.0218  0.3466
 2751W        W16165  16.348   7.801  15.684 -0.0016  0.1625  0.0732
 2752W        W16166  14.311  10.005   4.795  0.2172 -0.2725  0.0615
 2753W        W16167  13.980  17.040   3.941  0.1481 -0.1532  0.2663
 2754W        W16168   2.570  15.146  10.430 -0.0129  0.0593  0.1481
 2755W        W16169  16.573  15.347  13.368  0.1031  0.0093 -0.2232
 2756W        W16170   7.776   4.303   2.634  0.1922 -0.1600 -0.2326
 2757W        W16171  12.340  15.085  10.452  0.0364  0.0134 -0.1384
 2758W        W16172  13.367  10.775  11.215 -0.1349  0.2655 -0.2444
 2759W        W16173  16.035   6.657  14.105 -0.1448  0.0502  0.0889
 2760W        W16174   5.515  15.425   1.798 -0.2450 -0.1083 -0.1074
 2761W        W16175   6.274  15.202  12.189 -0.3266  0.0756  0.1749
 2762W        W16176   4.844   8.232   2.430  0.0736 -0.1608  0.0433
 2763W        W16177  14.770  12.734   4.438  0.1891  0.1842 -0.2329
 2764W        W16178  12.245  18.402   4.818  0.1421  0.0111 -0.2575
 2765W        W16179  18.399  11.279   4.202 -0.2596  0.3088 -0.1278
 2766W        W16180   2.211   4.238   4.833  0.1911 -0.0345 -0.3130
 2767W        W16181  13.855   6.107  12.679 -0.0561 -0.0954  0.1414
 2768W        W16182  12.131  13.355  13.321 -0.0017 -0.1269  0.3858
 2769W        W16183   4.023  11.568   5.739 -0.4828 -0.1005  0.0030
 2770W        W16184   4.594  15.450   6.171 -0.0971  0.3055 -0.1624
 2771W        W16185   5.647   1.291  13.199  0.1159 -0.0658  0.0534
 2772W        W16186   0.666  13.584  11.248 -0.2385  0.1296  0.2843
 2773W        W16187  12.984  16.707  14.592  0.2224  0.1281  0.0301
 2774W        W16188   6.471   1.034   4.789  0.1461  0.2304  0.2756
 2775W        W16189   2.629   7.905   5.785 -0.1269  0.4004 -0.3999
 2776W        W16190   9.369   1.253  15.580 -0.2960 -0.0615  0.1668
 2777W        W16191   1.815   9.776  14.867  0.2070 -0.2026  0.1184
 2778W        W16192  16.666   5.878  10.572  0.1144  0.1966 -0.3341
 2779W        W16193  11.186   0.276  15.753 -0.2423  0.0339 -0.0299
 2780W        W16194  12.127   8.659  14.023  0.0082  0.0147  0.0753
 2781W        W16195  17.475  10.102   0.267  0.3260 -0.2711  0.1217
 2782W        W16196  13.124   3.225  14.733 -0.1212 -0.2585  0.1556
 2783W        W16197   4.697  16.668  10.989 -0.0548 -0.1554 -0.1340
 2784W        W16198   2.749   8.615  11.928  0.0816  0.0098  0.1228
 2785W        W16199  17.878  17.793   2.993 -0.1652  0.0738 -0.0362
 2786W        W16200  14.247   9.757  14.289 -0.2609 -0.1634 -0.0698
 2787W        W16201  18.124   4.015  14.253  0.0459 -0.0214  0.0077
 2788W        W16202  14.478  13.420  10.889 -0.0937  0.1875  0.2553
 2789W        W16203  16.699   4.247   2.455 -0.0211  0.5498  0.0231
 2790W        W16204  14.847   8.329   5.106  0.1385 -0.0994  0.2589
 2791W        W16205  11.502  13.506   0.144 -0.0653  0.0791  0.0507
 2792W        W16206   5.510   2.916  16.203  0.1397  0.1287 -0.0278
 2793W        W16207  10.151  15.574  16.055  0.0215  0.1452  0.1180
 2794W        W16208   2.131   1.974  13.183 -0.1493 -0.1318 -0.1292
 2795W        W16209  10.413   9.727  16.054  0.2518 -0.0664 -0.2305
 2796W        W16210  17.033  12.973  11.750  0.3160 -0.0028 -0.4493
 2797W        W16211   1.613   6.856   0.486 -0.1658  0.4001  0.0546
 2798W        W16212   9.029  17.820   3.885 -0.2010 -0.0284  0.0566
 2799W        W16213  16.341   3.859  15.946  0.0781 -0.1443  0.2945
 2800W        W16214  17.387  14.432  12.792  0.1332 -0.0268 -0.3208
 2801W        W16215   9.153   0.036  15.788 -0.0072  0.1352  0.2118
 2802W        W16216   4.830  11.437   3.352 -0.1760 -0.0566 -0.4387
 2803W        W16217   3.665   6.013  12.430  0.0059 -0.1600  0.3945
 2804W        W16218  15.593  15.630  12.450 -0.1484  0.1091  0.1492
 2805W        W16219  14.284   2.684  15.031 -0.2609  0.0341 -0.1523
 2806W        W16220   8.169   3.797   5.165  0.4385  0.0886  0.0425
 2807W        W16221   9.154   0.217  14.712 -0.1634  0.3487 -0.0117
 2808W        W16222   5.085   0.817   6.751 -0.3521 -0.0193 -0.1155
 2809W        W16223   0.090  17.245   1.922 -0.1007  0.2694 -0.0232
 2810W        W16224   0.488   4.666   3.928  0.0362  0.1960  0.0299
 2811W        W16225   4.972   7.695  11.632  0.0345 -0.0411  0.2356
 2812W        W16226   5.629  14.687   2.923 -0.0649 -0.0612  0.1566
 2813W        W16227  14.517   9.466   4.972  0.2638 -0.3929 -0.0658
 2814W        W16228   0.663   3.549   1.346  0.0248 -0.2292 -0.0789
 2815W        W16229   2.968   4.033  14.870 -0.2371  0.0694  0.1778
 2816W        W16230   3.329  17.673   3.644  0.0905  0.2248 -0.0470
 2817W        W16231  13.240   9.619  12.067  0.0834  0.1428  0.1147
 2818W        W16232  17.739  18.269  12.446  0.0865  0.1191 -0.2485
 2819W        W16233  10.017  14.012   1.380 -0.1410 -0.7891 -0.2144
 2820W        W16234   1.062  17.313  12.907  0.0156 -0.0304  0.1348
 2821W        W16235  13.499   0.889  11.662  0.0157  0.2541  0.1887
 2822W        W16236  13.587   9.699  10.780 -0.0547  0.3542 -0.3238
 2823W        W16237   3.948   9.986  11.334 -0.3590 -0.0661 -0.0324
 2824W        W16238   6.721  16.319  15.350 -0.0347 -0.0819  0.0656
 2825W        W16239   0.941  11.819   0.255 -0.2879  0.0235  0.0648
 2826W        W16240   7.469   1.875   4.601 -0.4395  0.0839  0.1698
 2827W        W16241  11.837   2.714  15.968 -0.0305  0.2234 -0.1157
 2828W        W16242   5.812   3.638  15.184  0.2397  0.4384  0.0285
 2829W        W16243  10.490  16.703  13.928  0.1921  0.3803  0.0227
 2830W        W16244  15.801   2.640  10.633  0.2077  0.3407 -0.0295
 2831W        W16245  12.251  18.274  15.031  0.2678 -0.2920  0.0059
 2832W        W16246   0.939   2.060  11.431 -0.0206 -0.3045  0.0107
 2833W        W16247   6.434  18.182   1.026 -0.1123  0.2042 -0.2440
 2834W        W16248   7.228   6.616  11.890 -0.0896  0.2182  0.3021
 2835W        W16249   7.719  18.283  11.407 -0.1324  0.1670 -0.2892
 2836W        W16250   8.182  13.677  12.187 -0.1006 -0.0614 -0.4094
 2837W        W16251   9.685   6.532   4.685 -0.0653 -0.1241 -0.1242
 2838W        W16252  12.942   4.404   0.544 -0.0545 -0.0233 -0.0028
 2839W        W16253   0.314  17.388  16.024 -0.0316 -0.0869  0.0991
 2840W        W16254   1.971  13.664   4.122 -0.3306  0.3319 -0.2839
 2841W        W16255   3.134  16.044   3.791  0.1470 -0.1919  0.0436
 2842W        W16256  10.715   0.771  11.154 -0.0011  0.3095 -0.1403
 2843W        W16257   3.337   2.597  15.467 -0.0509 -0.0376 -0.0740
 2844W        W16258  17.501   9.855  13.128 -0.2334  0.3932  0.2849
 2845W        W16259  17.836   6.370   3.018  0.1687  0.1378 -0.1272
 2846W        W16260   5.665   8.823  14.891  0.1991 -0.1998  0.0066
 2847W        W16261  17.255   0.474  12.495  0.1095 -0.0196  0.0913
 2848W        W16262   4.102  13.531  14.481  0.1425 -0.0270  0.0578
 2849W        W16263  13.594   1.696  15.807 -0.0728 -0.3714 -0.1218
 2850W        W16264  10.273  14.657  13.030 -0.0000  0.1852  0.0803
 2851W        W16265   9.831   2.460  15.432 -0.0617  0.2297  0.0774
 2852W        W16266  12.329  18.417   2.161  0.0255 -0.0595  0.0191
 2853W        W16267  15.107   8.395   3.824 -0.0711  0.1990  0.2633
 2854W        W16268   5.497   7.424  11.694  0.0107 -0.3676  0.0303
 2855W        W16269   3.451   1.177  14.359 -0.1133 -0.0474 -0.2544
 2856W        W16270   6.666   2.954  11.025 -0.1640  0.2475 -0.1245
 2857W        W16271   0.879  15.605   4.122 -0.3725 -0.2362  0.2020
 2858W        W16272   5.122   9.828  10.855  0.2604  0.0319 -0.0153
 2859W        W16273  13.694  18.009  16.123 -0.1639 -0.0549  0.0286
 2860W        W16274   5.858  13.530   1.653 -0.0467 -0.0021 -0.1128
 2861W        W16275   4.981   5.644   5.903 -0.2478 -0.1802  0.2080
 2862W        W16276   7.583   3.213  15.293  0.2104  0.2100  0.0342
 2863W        W16277   4.292  10.720  10.712  0.3583  0.0888 -0.2876
 2864W        W16278   7.907  16.177  12.810  0.0994 -0.0230 -0.2854
 2865W        W16279  12.056  10.294  10.910  0.0482  0.1562 -0.0180
 2866W        W16280   0.451   9.137   5.806 -0.0471  0.0088  0.0358
 2867W        W16281   4.918  14.622  11.080  0.0926 -0.2335  0.0187
 2868W        W16282  18.256   9.332  12.402 -0.1264 -0.1556 -0.0315
 2869W        W16283  11.122  11.340   6.543 -0.1530 -0.0944  0.2052
 2870W        W16284   8.094  12.406   5.467  0.1432  0.1033  0.0495
 2871W        W16285   3.776  16.618  14.706  0.0194 -0.1646  0.3799
 2872W        W16286   4.647  15.657  14.359  0.0729 -0.0041  0.0574
 2873W        W16287   9.330   0.312  15.169 -0.1188 -0.0434 -0.4523
 2874W        W16288   0.600   5.328   1.503  0.0731 -0.1339  0.0626
 2875W        W16289  14.244  12.496  14.768  0.0197 -0.1567 -0.1583
 2876W        W16290  17.454  11.539   1.558  0.0062  0.2710 -0.2660
 2877W        W16291  11.767   2.848  15.499  0.0877 -0.2462  0.1408
 2878W        W16292   0.549   3.391  13.552 -0.0135 -0.0326 -0.3215
 2879W        W16293   3.099   4.460  14.654 -0.0802  0.1152 -0.0405
 2880W        W16294   4.180  16.839   5.506  0.1097  0.0676 -0.0539
 2881W        W16295   1.874  11.631   1.693  0.0317 -0.0463 -0.1191
 2882W        W16296   7.095   9.951   1.609  0.0381 -0.0658  0.3227
 2883W        W16297  16.070   3.677   2.894  0.2024  0.0989  0.0236
 2884W        W16298  15.141  16.263   1.682  0.0862  0.1748  0.3710
 2885W        W16299   6.671   7.711   3.095 -0.4244  0.0750  0.1794
 2886W        W16300   6.369   2.970   3.332 -0.1825  0.0881 -0.0399
 2887W        W16301  12.883  12.539   0.178 -0.1065  0.1785 -0.0268
 2888W        W16302   3.427  11.699   3.344 -0.1613 -0.1195  0.0702
 2889W        W16303  14.521  10.794  14.374  0.1435  0.0476  0.0176
 2890W        W16304  11.092  14.562   5.453  0.0863  0.0032  0.2996
 2891W        W16305   4.713   0.808  11.328  0.2058 -0.0828 -0.0842
 2892W        W16306   5.422   2.780  12.993  0.1078 -0.1052  0.0066
 2893W        W16307   7.854  12.356  15.504 -0.0550 -0.2558  0.1265
 2894W        W16308  13.284  17.775   3.994  0.0227  0.3609  0.1611
 2895W        W16309  12.511  10.720   3.761  0.0020  0.1431  0.2669
 2896W        W16310  17.281  16.807  14.679 -0.0749  0.2644 -0.0343
 2897W        W16311  10.395   6.590   3.563  0.1272  0.0825 -0.0752
 2898W        W16312   5.569  16.800  14.091  0.3697 -0.3105  0.0387
 2899W        W16313   6.104   2.012  11.732  0.0794 -0.0750  0.0320
 2900W        W16314   5.355  10.562  10.333  0.3198 -0.2461  0.4025
 2901W        W16315   9.186  15.955   1.299 -0.1170  0.1747 -0.0980
 2902W        W16316   7.403  12.668  11.604 -0.1502  0.0877  0.0438
 2903W        W16317  10.021   3.927   3.137 -0.2340  0.2567  0.0767
 2904W        W16318  17.076   4.233  15.045 -0.2237 -0.1913 -0.1496
 2905W        W16319  15.994  17.804   3.236  0.0744  0.1881 -0.0250
 2906W        W16320  15.774   8.591   0.269  0.2134 -0.0570  0.0726
 2907W        W16321  12.578   2.190  12.479  0.1680 -0.0263  0.1113
 2908W        W16322  15.640   0.459   2.076  0.0711  0.0410  0.2667
 2909W        W16323   7.396   2.422   9.841  0.0471 -0.2702  0.0094
 2910W        W16324  15.377   2.803  14.331 -0.3198 -0.0050 -0.1779
 2911W        W16325  14.580   4.685  12.530 -0.3480 -0.4651  0.3452
 2912W        W16326  15.896  11.276   1.026 -0.1561  0.0024  0.3180
 2913W        W16327   0.892  16.510   4.281  0.0213  0.0182 -0.4700
 2914W        W16328  17.240   6.329   2.449 -0.0655 -0.2031  0.4233
 2915W        W16329  15.301   3.265  11.629  0.0665  0.0031 -0.1539
 2916W        W16330   2.743  16.957  12.050  0.2974 -0.1621  0.0566
 2917W        W16331   6.432   1.654   3.026  0.0647 -0.2023 -0.0298
 2918W        W16332   9.432  14.864  13.756 -0.0338  0.1036  0.2768
 2919W        W16333   7.541  11.224  15.718  0.0393 -0.0842 -0.3936
 2920W        W16334   5.804   2.283   2.102 -0.0736 -0.1519 -0.3757
 2921W        W16335  12.372  16.361   3.135 -0.1082 -0.3509 -0.2317
 2922W        W16336   5.581  15.895  16.093  0.0225 -0.1688  0.1174
 2923W        W16337   8.948  12.224   2.684 -0.1458  0.1283  0.2681
 2924W        W16338   5.462  17.245  12.871  0.1062 -0.1794  0.4882
 2925W        W16339   0.382   7.005   6.504  0.1476 -0.2597  0.1458
 2926W        W16340   5.685  14.242   2.487  0.2092  0.0002  0.0229
 2927W        W16341   3.708  12.709   4.951  0.1608 -0.2666 -0.1110
 2928W        W16342   5.996  15.419   6.276  0.0501  0.0922  0.0382
 2929W        W16343   2.097  12.833  11.337  0.3294  0.3237 -0.2088
 2930W        W16344   7.259  15.101   0.389  0.1959 -0.0457  0.2240
 2931W        W16345   7.463   5.237  11.528 -0.2169  0.1428  0.1894
 2932W        W16346  17.557   3.451  12.487  0.2147 -0.0355  0.0261
 2933W        W16347   0.251   9.398   4.317  0.1600 -0.3324 -0.0337
 2934W        W16348  16.225  17.758  11.749  0.0176 -0.1853  0.0128
 2935W        W16349  17.703   1.943  14.079 -0.1029 -0.0790  0.0243
 2936W        W16350  12.260  15.209  12.368  0.5486 -0.0697 -0.4260
 2937W        W16351   9.035   2.316   0.322 -0.0912  0.1090 -0.2845
 2938W        W16352   9.961  17.478   4.448 -0.5096 -0.0993  0.1046
 2939W        W16353  13.732   0.663   3.908  0.0680 -0.3126  0.1338
 2940W        W16354  12.547   2.552   1.620 -0.1119  0.1502 -0.0731
 2941W        W16355   7.422   7.362   2.094 -0.1785  0.3182  0.2210
 2942W        W16356  18.020   6.645   3.432 -0.2742 -0.0594 -0.0382
 2943W        W16357   1.893   1.396  11.159 -0.0724  0.3274  0.1691
 2944W        W16358  14.666   2.339   1.506 -0.2965  0.0415 -0.1133
 2945W        W16359  15.080  16.394   0.764  0.0486  0.0284  0.0025
 2946W        W16360  17.921  13.645  15.948  0.1744 -0.1053 -0.1077
 2947W        W16361   2.929   0.423   3.554 -0.0801 -0.1285 -0.1529
 2948W        W16362   5.397  15.383  11.917  0.1880  0.2810  0.0109
 2949W        W16363   3.781   5.385  13.635 -0.1500  0.2804  0.2640
 2950W        W16364  15.471   9.379  12.158  0.0858  0.0363  0.0175
 2951W        W16365  16.524   8.189   0.279 -0.1709  0.0909  0.1202
 2952W        W16366  16.101   1.707  12.627 -0.1221  0.2935 -0.2423
 2953W        W16367  10.831   9.986   2.594  0.1797 -0.1343 -0.1642
 2954W        W16368  17.245  11.408  13.206  0.3152  0.1282 -0.1833
 2955W        W16369   5.936   7.068  11.485 -0.3248 -0.0771 -0.0404
 2956W        W16370   6.841   0.323   3.932 -0.1685  0.2662 -0.0372
 2957W        W16371   1.531   6.168  15.496 -0.1712 -0.1821 -0.0502
 2958W        W16372   1.360   5.202  13.179 -0.0430 -0.0676  0.1457
 2959W        W16373   6.353  16.006  13.795  0.1044 -0.0822 -0.2928
 2960W        W16374   4.720  11.419   2.853  0.0406 -0.0754 -0.1286
 2961W        W16375   5.352  13.727   3.791 -0.0380 -0.0207  0.0438
 2962W        W16376  15.118   3.667  11.877 -0.1262  0.2017 -0.0842
 2963W        W16377   0.716  17.107   2.004 -0.0857  0.1260 -0.3143
 2964W        W16378   1.987  18.207   3.177  0.1320  0.3570  0.0181
 2965W        W16379   7.458   9.932   5.835  0.0760 -0.1524  0.0870
 2966W        W16380  13.656   5.988   1.508  0.2559  0.1531 -0.1845
 2967W        W16381   7.765  16.902   1.118  0.0971 -0.0863 -0.1678
 2968W        W16382   0.190  12.517  14.079  0.2071 -0.2104 -0.2456
 2969W        W16383   3.409   4.812   1.190  0.1896 -0.2607  0.2411
 2970W        W16384  18.397  15.572   2.190  0.2380  0.2019 -0.1209
 2971W        W16385  18.218  18.023   2.714  0.1110  0.0750 -0.0569
 2972W        W16386  17.668   5.906   1.372  0.0234 -0.1323  0.0614
 2973W        W16387  10.567  15.828   4.989 -0.0811 -0.3465  0.3202
 2974W        W16388  10.927   7.047  14.670 -0.3951 -0.1624 -0.1095
 2975W        W16389  15.719   0.924   2.222  0.2051  0.0649  0.0502
 2976W        W16390  12.852   7.777   3.801 -0.1480 -0.5407  0.0168
 2977W        W16391  13.480   5.209   3.989 -0.0463 -0.3679 -0.0388
 2978W        W16392  12.132   7.996   4.894 -0.1319 -0.2799  0.0936
 2979W        W16393  12.135   0.712  11.829  0.0555 -0.1647  0.2260
 2980W        W16394   9.303  16.314   3.828 -0.1557 -0.3154  0.3277
 2981W        W16395  16.415   8.763  13.022 -0.3886  0.1082  0.0064
 2982W        W16396   6.736  14.129   4.176 -0.2103  0.0750 -0.3668
 2983W        W16397   8.841   0.827  14.267  0.2787  0.0960  0.0824
 2984W        W16398   9.680  15.072   1.638 -0.1189 -0.0795 -0.3480
 2985W        W16399  16.591  10.324   1.237  0.0556  0.1934  0.0349
 2986W        W16400   8.889   0.682   4.012 -0.2197 -0.2087  0.0085
 2987W        W16401   0.055   7.481  16.222  0.1494 -0.0831  0.3576
 2988W        W16402   3.171  12.708   3.854  0.1233 -0.1799 -0.4159
 2989W        W16403   0.304  17.484  11.243  0.1683  0.2304  0.0786
 2990W        W16404  12.659  17.004  15.533  0.3482 -0.0251 -0.1009
 2991W        W16405   3.489  11.617  11.317  0.2034  0.3363  0.0354
 2992W        W16406   6.561   4.017   4.766  0.1215  0.2013 -0.1079
 2993W        W16407   7.040  17.725  11.887 -0.3551 -0.2963 -0.1418
 2994W        W16408   5.946  15.739   2.525 -0.1885  0.0167 -0.0021
 2995W        W16409   5.100  12.328   1.594  0.2730 -0.0946  0.2832
 2996W        W16410   0.870  11.354   5.245  0.0871 -0.0100 -0.1559
 2997W        W16411  17.850  15.166  15.722 -0.0186  0.3523  0.0070
 2998W        W16412  13.296   1.831  10.668 -0.0746  0.1865  0.1277
 2999W        W16413   8.994  16.122  16.136 -0.0588 -0.2249 -0.0979
 3000W        W16414  15.023  10.302   2.606 -0.0404  0.2536  0.0177
 3001W        W16415  18.429   4.857  14.370  0.4436  0.2281  0.1507
 3002W        W16416  13.295   3.480   1.707  0.1384  0.0594 -0.1013
 3003W        W16417   6.510  16.945   3.238  0.2207 -0.2671  0.0790
 3004W        W16418  15.234  11.691   4.775  0.0446 -0.0623 -0.1298
 3005W        W16419   1.552  17.692  12.618 -0.2180  0.5146  0.1110
 3006W        W16420  14.351   4.101  15.147 -0.0496  0.2775 -0.0025
 3007W        W16421   7.447   8.218  13.888 -0.0128  0.1199  0.4091
 3008W        W16422   7.404  13.707  15.555  0.0749  0.0515  0.2394
 3009W        W16423   4.781   3.082  16.018  0.0524 -0.0041  0.0736
 3010W        W16424   4.040  13.041  10.262  0.0818 -0.1164 -0.1132
 3011W        W16425  16.617   1.644  11.848  0.1921  0.0527 -0.0979
 3012W        W16426  13.353  16.343  15.082 -0.0518 -0.0899 -0.1026
 3013W        W16427   1.569   9.574   3.536  0.3304  0.1254  0.0839
 3014W        W16428   7.230   9.672   1.976 -0.3449 -0.3039  0.1016
 3015W        W16429   5.513  12.294   5.194 -0.0111 -0.0977 -0.0265
 3016W        W16430   2.309  10.549   1.940 -0.1481  0.1274  0.0159
 3017W        W16431  10.310  14.574   3.310 -0.0231 -0.3065  0.0571
 3018W        W16432  15.917   0.417   3.312  0.0761  0.2395  0.0420
 3019W        W16433   4.506   8.814  11.133  0.2720 -0.0856 -0.1248
 3020W        W16434  14.586  17.628   2.851 -0.0634  0.0608 -0.3880
 3021W        W16435  15.535   2.460  11.539 -0.1973  0.1704 -0.3436
 3022W        W16436  12.157  17.466   5.852  0.1800  0.1756  0.1703
 3023W        W16437   2.418   9.859  15.223  0.0365  0.0614  0.1774
 3024W        W16438   4.660   3.899  14.519 -0.2115 -0.0024  0.1909
 3025W        W16439   6.220  11.691   1.776  0.0604  0.0077  0.2174
 3026W        W16440  12.299  17.095  12.661  0.3143 -0.2570 -0.0204
 3027W        W16441   1.994   3.794   3.104 -0.0594  0.0090 -0.2907
 3028W        W16442  10.412   6.742   1.742 -0.0991 -0.2946 -0.0554
 3029W        W16443  12.854  15.464   0.271 -0.0391 -0.0334  0.1032
 3030W        W16444   0.777  17.694  15.021  0.0587  0.1450 -0.0112
 3031W        W16445   2.620   3.726  12.807 -0.0574 -0.1056 -0.1418
 3032W        W16446   2.977  17.166  14.667  0.2272 -0.0038 -0.0300
 3033W        W16447   6.321   7.142  15.682  0.1975  0.0051 -0.1128
 3034W        W16448   8.169   0.882   1.109 -0.3092  0.2189 -0.1309
 3035W        W16449   1.310  13.449   4.071 -0.0484  0.1466 -0.3076
 3036W        W16450   5.716   6.434  16.050 -0.1280  0.0162 -0.1850
 3037W        W16451  12.584   8.066   3.419  0.1370 -0.0154 -0.0803
 3038W        W16452   1.587  10.183   4.059  0.3816 -0.0974  0.2524
 3039W        W16453   4.370   3.867   2.436  0.1243 -0.0701  0.0114
 3040W        W16454  16.928   1.650  11.323  0.2584 -0.1604 -0.4006
 3041W        W16455   4.180   0.226  15.515 -0.2096 -0.0788  0.0418
 3042W        W16456  10.509   4.453   3.952  0.1796 -0.1354 -0.0005
 3043W        W16457   3.825  11.832   4.676 -0.2313 -0.2507 -0.0438
 3044W        W16458  13.650  13.768   5.066 -0.0034 -0.2063  0.2245
 3045W        W16459  10.091  12.605   1.582  0.0104  0.0080 -0.1378
 3046W        W16460   0.717   3.210  10.579 -0.1477  0.2832 -0.2935
 3047W        W16461  12.668  17.923   0.822 -0.0685  0.0731  0.0054
 3048W        W16462   5.363   0.370  11.147  0.0086  0.0434 -0.2593
 3049W        W16463   0.010   2.659  15.803 -0.0610  0.0701  0.1235
 3050W        W16464  13.858   3.782   3.116 -0.0159  0.4814 -0.3899
 3051W        W16465   8.337   6.788   5.520 -0.0621 -0.1307 -0.0879
 3052W        W16466   9.784  11.974  15.253  0.1793  0.4154  0.0319
 3053W        W16467   2.208  12.599   0.269 -0.0288  0.0716 -0.0631
 3054W        W16468   3.238   2.239   3.170 -0.1340 -0.0987 -0.0903
 3055W        W16469  15.335   1.820  16.251 -0.2020 -0.2321 -0.0365
 3056W        W16470   2.746  16.349   4.676 -0.3115  0.2121 -0.3007
 3057W        W16471   4.823  16.059  15.232  0.2178  0.0905 -0.1497
 3058W        W16472   9.253  11.220   0.078 -0.0221 -0.0146 -0.1064
 3059W        W16473   1.998  14.350   0.271 -0.1102  0.2304  0.3303
 3060W        W16474  11.260   5.166  10.927 -0.0659 -0.0225  0.1870
 3061W        W16475   4.625  14.983  11.346 -0.0764 -0.0215 -0.0253
 3062W        W16476  14.680   4.518  13.965  0.1823  0.3796 -0.1820
 3063W        W16477   7.654   8.407  14.422 -0.3208 -0.0648  0.2052
 3064W        W16478   8.412  16.182   3.498 -0.3281 -0.0299  0.2159
 3065W        W16479  13.022   9.205  15.546  0.1420  0.2426  0.0318
 3066W        W16480  17.899  12.268  14.336 -0.0517 -0.2152  0.4759
 3067W        W16481   0.541  17.089  11.455  0.0873 -0.0714  0.2462
 3068W        W16482   5.414   3.766  13.428 -0.3669 -0.2781  0.0863
 3069W        W16483  15.769  11.962   3.901 -0.1368 -0.4086  0.2400
 3070W        W16484   1.719   4.264   4.458 -0.2293  0.0363 -0.0160
 3071W        W16485  10.488  12.578  15.428 -0.0162  0.3117 -0.2840
 3072W        W16486  14.839   1.074  11.137  0.0146  0.2267  0.0542
 3073W        W16487  12.416  10.891  12.324 -0.1574 -0.0338 -0.3808
 3074W        W16488   0.669  14.762  14.511 -0.1198 -0.0211 -0.2040
 3075W        W16489  12.348   2.605   0.103  0.2937 -0.0884  0.2269
 3076W        W16490  13.197   7.811   4.145 -0.0077 -0.0651 -0.4157
 3077W        W16491   3.629   8.235  14.289  0.2790  0.0532 -0.0741
 3078W        W16492   0.727   9.405   3.488  0.0590  0.0482 -0.0352
 3079W        W16493   0.784   2.576  15.095 -0.0090 -0.0126  0.0617
 3080W        W16494  15.062   1.530   4.745 -0.0784 -0.3408 -0.2931
 3081W        W16495  16.133  17.176  13.935 -0.0875 -0.2946  0.3891
 3082W        W16496  17.034  11.970  14.097  0.2035 -0.1608  0.0841
 3083W        W16497   8.371   1.176   9.703 -0.0528  0.0034 -0.1349
 3084W        W16498   2.021   4.963   1.110  0.3078 -0.1165 -0.2838
 3085W        W16499   9.784   4.145  10.980  0.1564  0.0178  0.0701
 3086W        W16500  17.715   8.923  15.051 -0.1478  0.1210  0.0068
 3087W        W16501   5.370   3.601   3.591  0.0842 -0.0636 -0.0479
 3088W        W16502   5.271   9.144  12.742  0.1797  0.1026 -0.1836
 3089W        W16503   3.870  14.337  14.265  0.0216  0.1107 -0.1481
 3090W        W16504  14.372  10.975   1.456 -0.0144 -0.0942  0.2725
 3091W        W16505   8.468  17.973  15.548 -0.0800  0.0181 -0.0460
 3092W        W16506   0.375  15.907  13.423  0.3161 -0.2241 -0.1410
 3093W        W16507   0.844  13.224   3.159 -0.2417 -0.3573 -0.0549
 3094W        W16508   4.962   1.655   0.487  0.1552 -0.1159  0.0045
 3095W        W16509  16.438   0.539  13.177 -0.1846 -0.1429  0.1633
 3096W        W16510   9.841   5.871  12.046 -0.0044 -0.2873  0.2258
 3097W        W16511   9.685   3.431  14.780  0.0695 -0.3101  0.0108
 3098W        W16512   2.644  12.188  13.915  0.1908 -0.1311 -0.0122
 3099W        W16513   5.325   0.593   5.119 -0.1781 -0.0400  0.1035
 3100W        W16514  11.416   1.298  11.073 -0.0188 -0.3688 -0.1272
 3101W        W16515   3.051   4.823   4.078  0.1375 -0.0962  0.0019
 3102W        W16516   1.519  12.799  12.031 -0.1665 -0.1875  0.3015
 3103W        W16517   7.193   2.409   5.476 -0.0690 -0.0597 -0.1947
 3104W        W16518   2.805  13.906   1.286  0.1274 -0.1852 -0.1995
 3105W        W16519   1.287  12.619   3.151 -0.2443  0.1527  0.2443
 3106W        W16520  12.381  13.338   1.537 -0.3850  0.1285 -0.0267
 3107W        W16521  11.578   9.156   3.369 -0.0843 -0.0365 -0.1899
 3108W        W16522  15.158   2.767   2.845  0.4790 -0.2163 -0.1239
 3109W        W16523   8.361  17.607   0.791 -0.0719 -0.0789  0.1502
 3110W        W16524  10.137   6.449  14.636 -0.0290  0.5536 -0.3484
 3111W        W16525  16.110  16.499   1.075  0.0869  0.0583  0.1777
 3112W        W16526   9.919  17.834   1.301  0.1671  0.0266 -0.2723
 3113W        W16527  12.037   0.727   4.836  0.1122 -0.2212  0.1426
 3114W        W16528   5.909   9.424   3.851  0.1402 -0.0344 -0.0004
 3115W        W16529  15.740   3.536   0.192 -0.1349 -0.0175  0.0194
 3116W        W16530   3.210  15.912  14.261  0.0363  0.1724  0.0429
 3117W        W16531  18.382  17.799   3.310  0.0623  0.0151 -0.0367
 3118W        W16532   9.936  16.569  16.104  0.2746  0.1015  0.1452
 3119W        W16533  10.074  18.266   2.870  0.1792 -0.2135  0.0273
 3120W        W16534  13.058   0.045  10.609  0.1494 -0.2893  0.2637
 3121W        W16535   3.631  15.894  10.440  0.0863 -0.0372  0.2570
 3122W        W16536  10.878   2.994   4.419 -0.0165 -0.0652 -0.1851
 3123W        W16537  11.534   7.221  15.990 -0.1255 -0.0523 -0.3829
 3124W        W16538  14.939  10.260   4.390 -0.1888 -0.0902 -0.1639
 3125W        W16539   5.055   7.701  13.947  0.0208 -0.3378 -0.2026
 3126W        W16540  18.359   6.003  14.853 -0.2015 -0.0324 -0.0387
 3127W        W16541   8.324  10.762  12.405  0.4263  0.1326  0.0292
 3128W        W16542   1.078   5.607  11.636  0.3204  0.0108 -0.0383
 3129W        W16543   4.695   4.027   1.994 -0.2446  0.0800  0.1012
 3130W        W16544  18.182  15.527   3.103  0.1774 -0.1864 -0.2666
 3131W        W16545  14.376  11.953  13.529 -0.0339  0.4083  0.1177
 3132W        W16546  13.168   0.754   5.629 -0.1870  0.2005 -0.1948
 3133W        W16547  18.440   9.143  13.642  0.2901 -0.0265  0.3108
 3134W        W16548  17.881   9.373   3.641 -0.2266  0.1381  0.1542
 3135W        W16549  11.885   8.829   4.683  0.1203  0.2240 -0.1754
 3136W        W16550   4.983  16.408  13.446  0.2751  0.0882  0.1641
 3137W        W16551  14.216   7.755   6.343 -0.2586  0.1535  0.0935
 3138W        W16552   6.465   9.561   0.992  0.3010  0.1799  0.0786
 3139W        W16553   6.777   5.014  11.144 -0.0864  0.0810 -0.0480
 3140W        W16554   6.517   7.231  12.963 -0.0247  0.1114 -0.0325
 3141W        W16555   8.561  13.713  14.937 -0.2153  0.3063 -0.2413
 3142W        W16556  10.541   5.737  15.880 -0.0555  0.0105  0.2312
 3143W        W16557   0.503  15.802  11.263  0.1683  0.1608  0.1060
 3144W        W16558   0.157  12.422   5.440 -0.1153 -0.0602 -0.2079
 3145W        W16559   7.019   9.223   5.532 -0.0664  0.2665 -0.2601
 3146W        W16560   3.851   2.008  14.709  0.3902  0.0924  0.1527
 3147W        W16561  13.884   2.294  15.054 -0.1854  0.2402 -0.2456
 3148W        W16562   5.723  15.124  15.622 -0.4089  0.0273 -0.0419
 3149W        W16563   8.799  18.193   4.341 -0.1449  0.0931 -0.2317
 3150W        W16564  11.976   0.927   9.954 -0.0866 -0.2212 -0.2282
 3151W        W16565  14.495  13.324  10.382 -0.0696  0.2084 -0.4362
 3152W        W16566   2.624  11.722   3.079 -0.1611  0.0322  0.2943
 3153W        W16567   3.400   7.439   2.748  0.0928 -0.0700 -0.2046
 3154W        W16568   2.965  16.648  13.925  0.2015  0.4504 -0.0452
 3155W        W16569   2.226  17.152   3.834 -0.0680 -0.1098  0.2410
 3156W        W16570   9.615   9.812  14.312 -0.1446  0.2402 -0.0994
 3157W        W16571   6.429   8.932   4.800 -0.1529  0.0726 -0.3454
 3158W        W16572  15.607   5.309   1.776 -0.2912 -0.0349  0.3295
 3159W        W16573   9.979   2.423   4.318  0.6001  0.1030  0.1289
 3160W        W16574   2.327  16.363   4.391 -0.1102 -0.0442 -0.0815
 3161W        W16575  17.030   8.839   2.787 -0.1361  0.0726  0.2659
 3162W        W16576  13.743   3.715   0.122 -0.2101  0.0848  0.0689
 3163W        W16577   1.844  11.679   4.332  0.0101  0.1821  0.0439
 3164W        W16578  13.125   8.999   5.188 -0.1088 -0.1403 -0.0826
 3165W        W16579  11.476  15.557  11.975 -0.0273  0.0118 -0.0028
 3166W        W16580   2.001  17.712  14.521 -0.1367  0.1039  0.1625
 3167W        W16581   8.674  12.969   4.385 -0.1615 -0.1892 -0.0268
 3168W        W16582  16.112   2.488   5.848 -0.3193  0.1380 -0.2323
 3169W        W16583   0.214  17.568  15.153 -0.1337 -0.1409  0.0078
 3170W        W16584  13.491   6.138   1.082  0.2438 -0.1945 -0.0629
 3171W        W16585  15.118   5.551   1.726 -0.0638 -0.0554 -0.3365
 3172W        W16586   5.935   9.808  12.867  0.0893  0.0737  0.0130
 3173W        W16587   4.672  18.246  13.692  0.1717 -0.0508  0.1834
 3174W        W16588   2.350  15.366   4.726  0.1351 -0.0181  0.1859
 3175W        W16589  11.326   5.769   6.105  0.1311  0.1064  0.0775
 3176W        W16590   6.079   6.049   1.948 -0.2371 -0.1106  0.0739
 3177W        W16591  16.874   4.161  12.751  0.0386 -0.0787  0.0405
 3178W        W16592   2.623  11.849  12.402  0.0011 -0.1550 -0.0028
 3179W        W16593  15.362   5.265  15.456 -0.0555  0.0143  0.3666
 3180W        W16594   3.655   3.544   4.241 -0.3247 -0.1752 -0.0019
 3181W        W16595   3.914   4.277  11.446  0.1462  0.0775  0.2546
 3182W        W16596   4.596  10.735   3.417  0.0404 -0.1263  0.2994
 3183W        W16597   1.140  11.037  15.501 -0.3459 -0.4956 -0.0282
 3184W        W16598  13.713   9.374  13.415 -0.1281  0.0175  0.4234
 3185W        W16599   2.566  14.335   3.020 -0.1240  0.0018  0.1860
 3186W        W16600   8.447   1.289   3.130  0.2481 -0.0216  0.1271
 3187W        W16601   1.350  13.765  12.768  0.2663  0.1496 -0.2929
 3188W        W16602  14.374   0.787  15.967  0.0037  0.2929  0.0538
 3189W        W16603  10.138   5.691  11.674 -0.1635  0.0550  0.0464
 3190W        W16604   2.869   7.981   1.058 -0.0045 -0.4103  0.3788
 3191W        W16605  10.459   6.007  11.441  0.1477  0.2009 -0.1252
 3192W        W16606  12.582   9.012   6.038 -0.1233  0.0291  0.2125
 3193W        W16607  17.850   7.430   2.350  0.3366 -0.1195  0.1234
 3194W        W16608  17.523  13.376   2.791 -0.0975 -0.2080  0.2067
 3195W        W16609  10.478  17.074   3.106  0.2288 -0.0233 -0.1796
 3196W        W16610   7.242  18.184   1.422 -0.0430  0.2795  0.0034
 3197W        W16611   0.289   2.462   1.258 -0.1643  0.0316 -0.0214
 3198W        W16612  14.335   7.691  13.772  0.0706 -0.1225  0.2735
 3199W        W16613  10.824   0.419  14.335  0.2491  0.1827 -0.0157
 3200W        W16614  12.406   3.804  14.349  0.1201  0.1978  0.0929
 3201W        W16615   4.430  16.290  14.936  0.3170 -0.3753  0.0880
 3202W        W16616   8.848   1.078  12.694  0.0471  0.1943 -0.0051
 3203W        W16617  17.933   1.333   3.294  0.0431  0.0735  0.2789
 3204W        W16618  10.177  10.358   5.935 -0.1393  0.0040  0.0378
 3205W        W16619   4.929   0.563  12.546 -0.1739  0.1625  0.2283
 3206W        W16620  10.507   8.115   2.883  0.0879 -0.2463 -0.1388
 3207W        W16621   4.020  15.515  14.941  0.0762 -0.4331  0.3062
 3208W        W16622   9.675  14.311  14.969 -0.1890  0.3029 -0.0134
 3209W        W16623  13.883  15.080   0.260  0.0220  0.3553 -0.0259
 3210W        W16624  11.657   8.295  15.205  0.1121  0.1664 -0.1836
 3211W        W16625   8.996   4.545   5.641  0.1859  0.0659 -0.0991
 3212W        W16626  17.650   6.544  15.585 -0.0888 -0.0023 -0.0401
 3213W        W16627  13.421   7.382  13.910 -0.3376 -0.0056 -0.0444
 3214W        W16628   9.135   5.753  13.610 -0.0680 -0.0658  0.1831
 3215W        W16629  17.045   3.211  15.929  0.0209 -0.2317  0.1609
 3216W        W16630  12.665   3.631  12.768 -0.1244 -0.0131  0.0076
 3217W        W16631   7.977  11.551   3.297 -0.1269  0.0254  0.0327
 3218W        W16632   2.763   1.205   3.341  0.1408 -0.0307 -0.0514
 3219W        W16633   2.405   0.154  13.442 -0.3434  0.1041 -0.1528
 3220W        W16634   0.317   4.968   5.675  0.2190  0.0275  0.1303
 3221W        W16635   2.368  18.056  14.360 -0.4023 -0.0939 -0.1256
 3222W        W16636  11.022  11.253  14.544 -0.3207  0.0297  0.1406
 3223W        W16637   2.043  12.461  14.333  0.2261  0.2286 -0.1156
 3224W        W16638   0.327   1.035   2.118  0.2776 -0.1962 -0.0510
 3225W        W16639   8.040  13.101  10.752 -0.4247  0.1504  0.0057
 3226W        W16640   7.083   7.825   0.835 -0.1535  0.3701 -0.1228
 3227W        W16641  11.572   2.487  14.747  0.0757  0.0621 -0.0134
 3228W        W16642   5.967   2.423  14.776 -0.0067 -0.0713 -0.1002
 3229W        W16643   2.103  18.245  13.519  0.0183  0.1537 -0.0324
 3230W        W16644  11.669  11.808   4.958  0.2209  0.2824 -0.1036
 3231W        W16645  12.942   1.496  13.793 -0.3939  0.1419  0.2811
 3232W        W16646   4.620  15.442   3.463 -0.1250 -0.2998 -0.0133
 3233W        W16647   9.318  11.359   5.403  0.1401  0.0785  0.0730
 3234W        W16648  12.007  12.636  12.875  0.0434  0.1044 -0.0111
 3235W        W16649   4.973   8.182  14.174 -0.0100 -0.0730 -0.1704
 3236W        W16650  12.388   0.469  12.233  0.1929  0.2804  0.1591
 3237W        W16651  10.285  14.695  16.081  0.0705  0.1404 -0.1686
 3238W        W16652   5.387   5.367   9.518  0.2532  0.0625 -0.0802
 3239W        W16653  17.981  12.226  11.019 -0.0843  0.2299 -0.0835
 3240W        W16654   8.583  13.524   4.098  0.1868  0.0651  0.0649
 3241W        W16655   9.520  13.597   3.906 -0.4273  0.2586 -0.1497
 3242W        W16656  10.344   6.717   4.829 -0.1101 -0.1495 -0.2429
 3243W        W16657   5.825  15.732   3.359  0.0003  0.2094 -0.0278
 3244W        W16658   6.081   4.485   1.492  0.0405  0.1888 -0.2135
 3245W        W16659  11.667  11.038  11.376 -0.2957 -0.0447 -0.1268
 3246W        W16660   6.207  12.021   0.639  0.1103 -0.0499  0.1707
 3247W        W16661   5.378   6.082  13.425 -0.0969 -0.3417 -0.0451
 3248W        W16662   4.887  17.172   0.527  0.0016 -0.0207 -0.2018
 3249W        W16663   0.717   7.873   0.167  0.1343 -0.1252 -0.0605
 3250W        W16664   3.726  11.775   2.911  0.0023  0.0765  0.0259
 3251W        W16665  12.166   5.908  13.089 -0.0970  0.1593  0.0684
 3252W        W16666  12.334   1.595   0.209  0.3721  0.1604 -0.0250
 3253W        W16667   5.131   6.571  13.622  0.0506  0.2112 -0.0461
 3254W        W16668   9.198   2.099   2.292 -0.4581  0.1498 -0.1654
 3255W        W16669   7.928  16.532  14.410 -0.0553 -0.1206 -0.0228
 3256W        W16670   0.020  16.477   3.241 -0.1513  0.0145 -0.1173
 3257W        W16671  13.438  12.932  14.381 -0.0544  0.0235  0.2817
 3258W        W16672  17.455   8.541   5.929  0.1771  0.3573 -0.1229
 3259W        W16673  12.453   2.514   4.969 -0.1225 -0.3317 -0.2828
 3260W        W16674   8.235  10.032  14.519  0.0606 -0.0114  0.0460
 3261W        W16675   5.502   6.425   1.300  0.1751  0.1802  0.3344
 3262W        W16676   5.621   2.670  13.452  0.1737  0.1509  0.1571
 3263W        W16677   3.451  16.893  10.436 -0.0536  0.1136 -0.2811
 3264W        W16678   3.098   3.516  16.219  0.1247 -0.1967 -0.2549
 3265W        W16679   9.528   7.167  15.840 -0.0898 -0.1718 -0.2449
 3266W        W16680   9.926   8.377   5.478 -0.1488 -0.0484 -0.1150
 3267W        W16681   4.354  15.915   5.454 -0.0488  0.0470 -0.3156
 3268W        W16682   0.162  16.533   2.577  0.2207  0.4300  0.1395
 3269W        W16683   2.163   6.295   5.026 -0.1337  0.1926  0.4647
 3270W        W16684   9.366  10.214  15.993 -0.1456 -0.0834 -0.0952
 3271W        W16685   6.552  13.357   2.211 -0.1005  0.3124  0.0699
 3272W        W16686   0.226   9.745  15.845  0.0458  0.2926 -0.1074
 3273W        W16687   8.235   5.868  11.758 -0.2481 -0.1442 -0.1167
 3274W        W16688   3.891  13.608   4.050 -0.1904  0.1339 -0.1217
 3275W        W16689   1.856  11.403   2.114  0.1851 -0.0677 -0.2691
 3276W        W16690   1.929   9.653  13.116  0.2294  0.3676  0.2074
 3277W        W16691   9.864  11.096  11.535  0.4685 -0.0324  0.3501
 3278W        W16692   7.747   9.436   1.848  0.0795  0.2114  0.1207
 3279W        W16693   0.280   7.282  13.210 -0.2025 -0.1953 -0.0311
 3280W        W16694   5.568  16.801   1.971 -0.0288  0.2307  0.0611
 3281W        W16695   5.377   3.823  14.624 -0.1296  0.1279 -0.0005
 3282W        W16696   1.156  12.292   3.567 -0.0782 -0.0846  0.1594
 3283W        W16697   3.807   7.475   1.216 -0.1132  0.1828  0.0569
 3284W        W16698   9.818  14.913  11.798  0.1029  0.1255 -0.1723
 3285W        W16699   2.574  18.257   1.669 -0.3947  0.3129  0.0713
 3286W        W16700   2.070  14.244  14.040 -0.3907  0.2115  0.1979
 3287W        W16701   2.907   6.805   5.354 -0.0343  0.2369 -0.0350
 3288W        W16702  16.969   4.507   4.220  0.0334 -0.1043  0.3303
 3289W        W16703  18.079   3.478  15.193 -0.1624 -0.1263  0.0339
 3290W        W16704   4.752   6.570   2.703  0.1348  0.1298  0.1672
 3291W        W16705   4.009  11.913  14.582  0.0521 -0.1476  0.0536
 3292W        W16706   8.054  17.799  15.894 -0.1804 -0.1623 -0.1725
 3293W        W16707   4.120   0.071   3.776  0.2801 -0.0245 -0.0877
 3294W        W16708   1.217  17.575  15.245  0.0499  0.0260  0.0689
 3295W        W16709  11.164   6.384  10.355 -0.3814 -0.0282 -0.2786
 3296W        W16710  17.330   7.784   3.605 -0.1775 -0.2072 -0.3545
 3297W        W16711  13.183   1.284  11.504 -0.0517 -0.2380  0.2839
 3298W        W16712   6.438   6.017   4.257  0.1914  0.1685  0.0852
 3299W        W16713  12.258   9.449   2.815 -0.1239 -0.0856  0.1503
 3300W        W16714  18.224  11.975   4.814  0.2410  0.2230 -0.2012
 3301W        W16715   3.954  17.704  14.684 -0.3331  0.1710  0.3349
 3302W        W16716   8.481  12.107   2.954 -0.0750 -0.4415 -0.3257
 3303W        W16717  15.452  11.324  15.228  0.1516  0.3786 -0.1501
 3304W        W16718   0.570   3.946  13.667 -0.1698  0.1608  0.2063
 3305W        W16719   8.273   1.543  12.762 -0.1072  0.1377 -0.2325
 3306W        W16720  18.090  17.321   5.351 -0.1310 -0.0841  0.0216
 3307W        W16721  12.466   7.696  13.933  0.2175 -0.0785  0.0737
 3308W        W16722  14.124   1.031  15.036  0.0983 -0.0246 -0.0027
 3309W        W16723   9.041  14.604  13.552 -0.0471  0.0461 -0.0956
 3310W        W16724  13.784  12.765   3.996  0.0392  0.0825 -0.0479
 3311W        W16725   9.635  13.946  14.522  0.0224  0.1249  0.0372
 3312W        W16726   4.436   7.898  11.523 -0.0383  0.1770  0.0656
 3313W        W16727   0.074  15.656   0.156  0.2085  0.1670 -0.1121
 3314W        W16728   3.393  12.154  14.608  0.0433  0.2068 -0.4055
 3315W        W16729   6.736   2.457  10.710 -0.1190  0.0141 -0.1043
 3316W        W16730  16.276   7.408   4.607  0.3001 -0.3326  0.0245
 3317W        W16731   0.535   7.565   2.252  0.0588  0.0948 -0.0859
 3318W        W16732  14.037  12.597  15.596  0.1031 -0.2898 -0.1632
 3319W        W16733   4.586  11.901   3.017  0.0421 -0.1261 -0.2921
 3320W        W16734  16.527   5.510   4.124  0.2795 -0.1311  0.0145
 3321W        W16735  17.286  13.101  16.013  0.1870 -0.2392 -0.2118
 3322W        W16736  13.340   0.277   2.287 -0.1336  0.3916 -0.0995
 3323W        W16737  11.916  13.964  12.855 -0.3608 -0.0190 -0.1881
 3324W        W16738  11.975  13.356   0.036 -0.0857 -0.3718 -0.1355
 3325W        W16739  17.842  12.815  10.424  0.0640  0.0341 -0.4318
 3326W        W16740   8.357  16.899  12.886 -0.0599 -0.0424 -0.1797
 3327W        W16741   0.814  18.155   4.825  0.0434  0.2020 -0.1198
 3328W        W16742   0.102  16.378  14.814 -0.0148 -0.0463  0.1313
 3329W        W16743  11.047  12.050   5.555  0.2044  0.0492  0.1127
 3330W        W16744   6.192  12.343   0.267 -0.1193  0.0718  0.0092
 3331W        W16745   4.340  14.015  10.538 -0.2491  0.2119  0.2664
 3332W        W16746   6.949  16.111   1.760  0.0036  0.0557 -0.1417
 3333W        W16747   1.141   0.420  10.771  0.2197  0.0058  0.1669
 3334W        W16748   0.013  10.864   2.405  0.1120 -0.0361  0.0117
 3335W        W16749   0.225   3.078   0.530 -0.0364 -0.1502 -0.1879
 3336W        W16750   7.532   8.840  12.316 -0.2691  0.0129 -0.1150
 3337W        W16751   3.115  14.787  12.140  0.0271 -0.2125  0.2179
 3338W        W16752  15.503   5.647  11.972  0.2537  0.1601 -0.0228
 3339W        W16753  16.706   8.069  12.556  0.0353  0.1998 -0.0597
 3340W        W16754   8.406   2.385   9.568 -0.1023 -0.1533 -0.1711
 3341W        W16755   6.633  17.829  10.479  0.0792 -0.0086 -0.0541
 3342W        W16756  17.239  15.722   0.333 -0.4669 -0.2979 -0.0004
 3343W        W16757  12.774   8.963   2.501  0.0730 -0.0218  0.0330
 3344W        W16758   5.875  10.236  15.155 -0.1346  0.2168 -0.1543
 3345W        W16759   6.443   4.965  14.175 -0.1940  0.3867  0.1070
 3346W        W16760   0.300   7.850  15.327 -0.0009 -0.1270 -0.0667
 3347W        W16761  17.597  16.325  13.588  0.1050  0.1981  0.0183
 3348W        W16762  16.318   5.944   1.905 -0.0858  0.3213 -0.2832
 3349W        W16763  15.682  13.158  14.640  0.4953  0.0544  0.1374
 3350W        W16764   1.414   0.757  13.381 -0.0090 -0.0769 -0.0054
 3351W        W16765  14.118  13.593  10.623  0.3379  0.1148 -0.0375
 3352W        W16766   6.170   4.982   1.038 -0.0382  0.0025 -0.1379
 3353W        W16767  11.061  10.812   2.398  0.2551  0.2824 -0.2104
 3354W        W16768   0.201   3.141  13.957  0.2860  0.1362  0.1251
 3355W        W16769   8.869   9.352   0.070 -0.1427 -0.1199 -0.0963
 3356W        W16770  12.643  17.451  12.934 -0.1737  0.1460 -0.2487
 3357W        W16771  13.569   8.032   0.906  0.1199 -0.0198 -0.0127
 3358W        W16772  10.506  16.988   0.503  0.0282 -0.1820 -0.1900
 3359W        W16773  15.324   1.185   1.458 -0.1386  0.2318  0.2584
 3360W        W16774  16.349   5.765  12.212  0.3184 -0.1402 -0.1557
 3361W        W16775   4.364   5.583   1.995 -0.1563 -0.0215 -0.3528
 3362W        W16776   5.934   0.344   1.926 -0.1541 -0.0557 -0.2186
 3363W        W16777   9.336   7.545  10.192  0.2083 -0.1528  0.3154
 3364W        W16778  12.883  14.779   5.226 -0.0134  0.2483 -0.0308
 3365W        W16779   8.940   6.767   1.350  0.0023 -0.0261  0.1897
 3366W        W16780   4.849   1.110  10.676 -0.2209  0.1651 -0.1325
 3367W        W16781  14.686   9.072  13.310 -0.3028 -0.0327 -0.0219
 3368W        W16782  12.823  12.798   4.170  0.0051 -0.2849  0.1527
 3369W        W16783  14.939   3.704  13.533 -0.1607 -0.0684  0.0774
 3370W        W16784   6.646  18.420  11.360  0.2411 -0.0503  0.3953
 3371W        W16785   7.827   3.730   3.367  0.3533  0.1553  0.0171
 3372W        W16786  13.000  13.700  14.707 -0.0438 -0.2480  0.0950
 3373W        W16787  11.525  16.044   0.598 -0.0401 -0.2240  0.0240
 3374W        W16788   1.267  16.630  12.321  0.0578  0.3365 -0.0173
 3375W        W16789   6.956   3.983  11.199 -0.0440  0.1358 -0.0303
 3376W        W16790   3.286  13.983  12.698 -0.0744  0.3423  0.1228
 3377W        W16791  17.474   3.894   3.741  0.0819 -0.0286 -0.1640
 3378W        W16792  15.201  16.245  12.708  0.0525  0.3067  0.1780
 3379W        W16793   2.100   8.130  11.654  0.0117  0.1707  0.0416
 3380W        W16794  11.382  13.066  16.105 -0.1899 -0.0770  0.1819
 3381W        W16795  16.302  10.547  15.584  0.3761 -0.0143  0.0241
 3382W        W16796   0.226  13.806   4.793  0.0567  0.1199  0.2054
 3383W        W16797  17.570  12.857   0.995  0.2083  0.0858  0.0999
 3384W        W16798  18.413  16.852   4.656 -0.2779  0.2421  0.3313
 3385W        W16799  12.419  15.160  14.636  0.4801 -0.0955 -0.1546
 3386W        W16800   8.579   8.077  12.733  0.2005 -0.2355  0.1620
 3387W        W16801  11.601  12.510   1.496 -0.5359 -0.0485  0.0799
 3388W        W16802   2.971  13.808  15.128 -0.2908  0.0773 -0.1264
 3389W        W16803  17.578  14.588  13.250 -0.1530 -0.3027 -0.0150
 3390W        W16804   4.915  18.067   2.191  0.0180 -0.2899 -0.1025
 3391W        W16805  13.514   4.591   4.700  0.0282  0.1907  0.1190
 3392W        W16806   4.881   4.080  11.252 -0.3916  0.2598  0.0619
 3393W        W16807   2.928  10.438  14.390  0.0576 -0.1567 -0.0104
 3394W        W16808  17.007  12.960  10.661  0.1322 -0.0986  0.0666
 3395W        W16809  17.376   5.154  15.563 -0.1981 -0.0295 -0.0860
 3396W        W16810  15.168   6.546   5.247 -0.1917  0.1034 -0.0376
 3397W        W16811   3.579   9.082  15.029 -0.1842  0.3899  0.0498
 3398W        W16812   1.175   9.540   4.533  0.3891  0.1890  0.1887
 3399W        W16813   1.444   0.313   4.782  0.1205 -0.1501 -0.0238
 3400W        W16814  16.329  14.694   5.472  0.2055  0.0462 -0.1966
 3401W        W16815   4.999   9.552  11.452  0.1963  0.2936  0.0880
 3402W        W16816   0.190   9.594   3.368 -0.2445  0.1408 -0.0451
 3403W        W16817   5.930   3.062  10.785  0.0606 -0.2070  0.1481
 3404W        W16818   6.707   6.721  11.581  0.1259  0.1161  0.2276
 3405W        W16819   3.782  18.368   6.535 -0.0194 -0.4349  0.0431
 3406W        W16820  15.972   3.491  14.978  0.0593  0.2041  0.0212
 3407W        W16821   4.007   5.902  11.064  0.0398 -0.2698  0.0136
 3408W        W16822   8.993   5.862   5.524 -0.0293 -0.1049 -0.2269
 3409W        W16823  13.531   5.602  13.585 -0.3853 -0.0896 -0.0579
 3410W        W16824   1.367  14.631  12.123  0.3076 -0.1556  0.3528
 3411W        W16825   7.533   1.981  10.417 -0.3389  0.0393  0.2638
 3412W        W16826   7.640  16.848  15.690  0.2058  0.0204 -0.0613
 3413W        W16827   8.295   1.772   3.259 -0.1592 -0.2329  0.2069
 3414W        W16828   4.414   0.241  14.977  0.0453  0.2036 -0.0487
 3415W        W16829   1.782   9.799   2.838  0.0485 -0.1273  0.2582
 3416W        W16830   0.334   7.460   1.802 -0.3074 -0.0693 -0.0538
 3417W        W16831   9.237   3.306   5.673 -0.2783  0.2062 -0.1048
 3418W        W16832  10.039   9.418  13.406 -0.0527  0.1200 -0.0608
 3419W        W16833   6.915  18.152  12.733  0.1189  0.4286  0.2300
 3420W        W16834  10.976   0.531   1.200 -0.3632  0.1028 -0.2868
 3421W        W16835   2.446  18.148  10.980  0.3535  0.0935 -0.0167
 3422W        W16836   1.055   5.404  14.985  0.0051  0.0269  0.2549
 3423W        W16837  18.447   5.266   3.298  0.0557  0.1932 -0.1253
 3424W        W16838   2.133  11.702   3.144 -0.2435 -0.1087 -0.1907
 3425W        W16839   7.465  11.302  14.786  0.0709  0.3696 -0.1600
 3426W        W16840   3.790   4.644   0.879  0.3066 -0.0844  0.1530
 3427W        W16841  18.270  13.084  12.195  0.1245  0.4741  0.4218
 3428W        W16842   0.666   7.839  12.044  0.1552 -0.1677 -0.0115
 3429W        W16843   4.992   0.375   3.750  0.1850 -0.0908  0.1631
 3430W        W16844   3.929   6.451  11.564  0.1220 -0.1742 -0.3713
 3431W        W16845   4.661   4.395  14.330  0.0154 -0.0696  0.1109
 3432W        W16846  12.958  17.309   2.185 -0.0680 -0.0885 -0.1634
 3433W        W16847  12.499   5.461  13.855 -0.2334  0.0012 -0.1978
 3434W        W16848   8.531   3.569   0.391  0.0891 -0.2858 -0.0734
 3435W        W16849   9.681   8.586  11.330 -0.0257 -0.0244 -0.1500
 3436W        W16850  13.277   1.301  14.124 -0.1206  0.2509  0.0864
 3437W        W16851  12.475  15.759   0.461 -0.1182  0.1261  0.0879
 3438W        W16852   8.068   7.381   1.475  0.2344  0.2769 -0.0083
 3439W        W16853   7.230   0.651   4.869 -0.0599  0.2403  0.2086
 3440W        W16854   7.481  18.331   4.758 -0.2871  0.1856 -0.2124
 3441W        W16855   9.506  11.772   3.666  0.1516 -0.0873 -0.0855
 3442W        W16856  12.565   8.770   5.238  0.1167 -0.2242 -0.1064
 3443W        W16857   7.273   3.525  12.288 -0.3710  0.1637  0.1519
 3444W        W16858   3.560   4.299   1.194 -0.0408 -0.3299  0.3241
 3445W        W16859   0.018  18.295   3.102  0.1346 -0.0177  0.0508
 3446W        W16860   7.732   7.769  11.722  0.0342  0.1236 -0.1011
 3447W        W16861  12.916  18.413  15.608  0.0014 -0.3353 -0.0527
 3448W        W16862   0.078  13.628   6.171 -0.0563 -0.0714  0.2166
 3449W        W16863  13.929  14.744  10.071 -0.0247  0.1193  0.2069
 3450W        W16864  12.288   8.661   1.754 -0.0051  0.3318 -0.2271
 3451W        W16865   0.260   1.121   4.476 -0.0810 -0.5123 -0.0463
 3452W        W16866  18.241   1.034   5.619  0.0212 -0.1342  0.1186
 3453W        W16867  13.247   5.124   2.423 -0.0784  0.0281 -0.0653
 3454W        W16868  13.060   8.086   5.004  0.0726 -0.3239  0.2345
 3455W        W16869   8.766  13.148  12.760  0.2918 -0.1618 -0.2975
 3456W        W16870  18.388   6.327   3.061  0.0383  0.2755 -0.1763
 3457W        W16871  12.483  13.332  11.619 -0.0923  0.1167  0.2436
 3458W        W16872   9.507   3.999   1.328 -0.1660 -0.3826 -0.0057
 3459W        W16873  14.197  13.701  14.292 -0.2185  0.0738 -0.2146
 3460W        W16874   2.571  15.866   4.227  0.1674 -0.1706 -0.1793
 3461W        W16875   3.270   1.730   4.893 -0.0304  0.2330 -0.1326
 3462W        W16876  13.330  13.877   0.091  0.0639 -0.2222 -0.2465
 3463W        W16877   4.743  14.684   3.916 -0.0166  0.0965 -0.0468
 3464W        W16878   7.248   6.123   1.387 -0.1193 -0.3214 -0.0710
 3465W        W16879   9.761   1.024   4.618 -0.0193  0.0903  0.0619
 3466W        W16880   2.665   0.914  12.054  0.0154  0.1029  0.0775
 3467W        W16881   7.550   9.681  15.480 -0.3122  0.2080 -0.1170
 3468W        W16882  12.045  12.755  10.607 -0.1782 -0.0273 -0.0082
 3469W        W16883  16.698   6.906   5.844 -0.0271  0.0322  0.0016
 3470W        W16884   9.844   1.541   6.024  0.1532 -0.2106  0.3282
 3471W        W16885   6.116  11.837  10.982  0.0284  0.1054 -0.2800
 3472W        W16886  17.183  11.411   2.885 -0.1506 -0.3223  0.0649
 3473W        W16887  13.461   4.677   2.283 -0.0480  0.0029  0.0820
 3474W        W16888   3.427   8.557  12.804 -0.0905 -0.3407 -0.2729
 3475W        W16889  16.753   0.228  16.143  0.1017  0.3644 -0.1158
 3476W        W16890   7.539  11.853   0.837 -0.0685 -0.1002 -0.2825
 3477W        W16891  17.087  12.504  11.911  0.0811 -0.1076  0.1284
 3478W        W16892  17.173  12.894  14.242 -0.0419  0.0587 -0.1208
 3479W        W16893   5.602  15.346   4.652  0.1474 -0.3950 -0.0613
 3480W        W16894   6.240  16.728   4.177 -0.1325 -0.1905 -0.1082
 3481W        W16895  10.144   9.080   1.017 -0.2279  0.2050 -0.1593
 3482W        W16896  16.442  11.117  13.077 -0.1678  0.1459 -0.2530
 3483W        W16897   6.780   1.687  15.521  0.3218  0.0506 -0.1640
 3484W        W16898   9.172   2.744  11.378  0.0276  0.0056  0.3572
 3485W        W16899  10.347   1.389   5.048  0.0813 -0.1852  0.1589
 3486W        W16900  12.643  12.973  16.225  0.2002 -0.1771  0.0678
 3487W        W16901   9.322  18.078   3.159  0.1719  0.0895 -0.0274
 3488W        W16902   7.641  10.823  13.514  0.0491  0.1565  0.2831
 3489W        W16903   6.467  11.179  13.711 -0.1553  0.0016  0.3982
 3490W        W16904  15.741  15.303   4.777  0.0774 -0.0848  0.4914
 3491W        W16905   4.703   6.114   0.483  0.2288 -0.3322  0.1436
 3492W        W16906   7.085   0.656  13.931  0.1403 -0.1412 -0.0766
 3493W        W16907  10.023  16.472   2.081  0.0200  0.2700  0.0660
 3494W        W16908   5.786   3.238   3.883 -0.1234 -0.1654  0.2478
 3495W        W16909  18.259   2.429   2.705 -0.0555 -0.1368  0.0810
 3496W        W16910  14.306  15.455   0.681  0.3348 -0.0062  0.3118
 3497W        W16911  12.995  16.890  16.010 -0.0333 -0.1749 -0.0534
 3498W        W16912   8.975   4.170  12.753  0.0002  0.0501 -0.1017
 3499W        W16913  16.639   7.692   0.223 -0.1543  0.1242  0.2093
 3500W        W16914   0.436  10.497  14.749  0.1073 -0.0539  0.0388
 3501W        W16915   1.249  10.523  16.213  0.0646 -0.0770  0.1947
 3502W        W16916  17.164  16.355   1.436 -0.3381 -0.0361  0.2136
 3503W        W16917   5.432   5.386   2.546  0.0485  0.0347 -0.0201
 3504W        W16918   6.733  17.790  15.799 -0.2432  0.1397 -0.2640
 3505W        W16919   4.425  14.554   2.916 -0.0860  0.1058 -0.2023
 3506W        W16920  13.605   8.636   1.119  0.1458  0.0768  0.0602
 3507W        W16921  15.520  15.368  12.925  0.2907  0.0969 -0.1250
 3508W        W16922   3.171  15.300  11.586 -0.0281  0.3029 -0.1228
 3509W        W16923   9.791  11.094   1.380 -0.2258 -0.5505  0.0958
 3510W        W16924  17.509  13.675   2.032 -0.4741 -0.0546 -0.0188
 3511W        W16925  14.196   8.286   3.570  0.0399 -0.2007  0.1485
 3512W        W16926   5.062  14.535   3.527  0.3264  0.3155 -0.1625
 3513W        W16927  12.463  10.804   1.946 -0.3309 -0.0125 -0.3380
 3514W        W16928  14.760   0.061  12.717  0.2543 -0.2068 -0.0817
 3515W        W16929  17.732   8.266  13.368  0.4139 -0.1265  0.3269
 3516W        W16930   5.297   8.084   1.394 -0.2947 -0.0755 -0.3451
 3517W        W16931   9.554   1.070   1.274  0.1100  0.1360 -0.0202
 3518W        W16932   3.534   2.023   1.472  0.1848 -0.2733 -0.0205
 3519W        W16933   5.225   0.434  11.831 -0.2066  0.1058  0.0904
 3520W        W16934  14.123   3.657  11.262 -0.1732  0.2445  0.3337
 3521W        W16935   3.894  15.505   0.551  0.0019  0.2104  0.0420
 3522W        W16936   8.508   6.291   4.040 -0.1759 -0.3461 -0.2515
 3523W        W16937   9.147   6.823  14.045 -0.0485 -0.0029 -0.2500
 3524W        W16938   0.141   3.856  13.938 -0.3013  0.0255  0.3023
 3525W        W16939   8.122  12.241   0.055  0.2565 -0.0548  0.0133
 3526W        W16940   4.432   4.821   3.731 -0.2354 -0.0142  0.2080
 3527W        W16941  10.818  13.026  15.126 -0.1293  0.0451  0.0598
 3528W        W16942   1.057  12.025  11.579 -0.2420  0.1129 -0.0486
 3529W        W16943   1.988   5.728   1.532 -0.4075  0.0618  0.0229
 3530W        W16944  10.765   7.662  15.832  0.0169 -0.3692 -0.0965
 3531W        W16945   4.000   8.612  11.960  0.0880  0.2793 -0.1098
 3532W        W16946  11.251  17.734  15.082 -0.4304 -0.1606 -0.1085
 3533W        W16947  14.666   4.330  15.471  0.1066 -0.1413  0.0748
 3534W        W16948   5.376  11.266   5.734  0.1793  0.0984 -0.0214
 3535W        W16949  10.428  12.369   3.106 -0.0322  0.0432 -0.3334
 3536W        W16950   3.942   9.747   2.127 -0.0457  0.1176  0.5837
 3537W        W16951   3.391   5.315   1.198  0.2269 -0.0070  0.2454
 3538W        W16952   4.688  12.709  14.026 -0.1512  0.0998 -0.1379
 3539W        W16953   5.248  17.665   3.490 -0.5687  0.0630 -0.2084
 3540W        W16954  17.242   9.083  16.112  0.0476  0.2617 -0.1744
 3541W        W16955   0.701  12.114  10.544 -0.2344 -0.0734 -0.1411
 3542W        W16956   5.506  15.030  15.145  0.1728 -0.0760  0.1711
 3543W        W16957   5.148   9.438  14.455 -0.1596  0.1997  0.0741
 3544W        W16958  15.539   2.039  15.042 -0.0545 -0.2635  0.1781
 3545W        W16959   8.374   1.115   4.448 -0.0840 -0.1295  0.1152
 3546W        W16960  10.223   0.770   4.273 -0.1250 -0.1714 -0.1817
 3547W        W16961  11.656   4.192   0.548 -0.1305 -0.1262 -0.1077
 3548W        W16962   3.762   6.329  14.547 -0.0138  0.1683  0.2034
 3549W        W16963  14.529   1.774   4.876 -0.3547 -0.3132  0.1512
 3550W        W16964  15.493   9.445   2.442 -0.1375 -0.0760  0.1322
 3551W        W16965  14.226   7.520   2.707  0.1001 -0.2560 -0.0943
 3552W        W16966  17.856   2.236   6.320  0.2162  0.0585 -0.0221
 3553W        W16967   5.064  16.856   4.956 -0.0435  0.2301 -0.2061
 3554W        W16968   8.142   3.383   4.896  0.0944 -0.0616 -0.4146
 3555W        W16969  13.000   7.593  13.977 -0.3621  0.0795 -0.1413
 3556W        W16970   1.735  10.312  14.698 -0.0504 -0.0813 -0.0316
 3557W        W16971   8.232  18.191   5.485  0.1126 -0.1057 -0.1398
 3558W        W16972   9.683   2.556   2.627  0.3383 -0.2943 -0.1395
 3559W        W16973  13.588   6.042  11.478 -0.1694  0.0071  0.0682
 3560W        W16974   9.797   2.912  11.633  0.0519 -0.1529  0.0796
 3561W        W16975  14.476  15.901   4.436  0.2675  0.0851  0.0801
 3562W        W16976  18.282   1.545   6.270 -0.2126  0.0814 -0.2259
 3563W        W16977  14.201   2.753  11.968 -0.1350  0.3038 -0.0364
 3564W        W16978   6.338  13.422  11.290  0.0769 -0.0089 -0.3394
 3565W        W16979  10.190  17.431   4.929 -0.2993 -0.0743  0.1029
 3566W        W16980   1.890  16.523   0.154  0.0197 -0.0396  0.3729
 3567W        W16981   8.481   6.489   0.575 -0.1610  0.1839  0.2957
 3568W        W16982   6.445  14.006  12.395  0.0300 -0.0313  0.1641
 3569W        W16983  14.042  11.785  10.487 -0.2149 -0.0413  0.1766
 3570W        W16984   5.691   6.149   0.462 -0.5426 -0.3406  0.0688
 3571W        W16985   8.880  13.437  10.549  0.1355  0.2350 -0.1750
 3572W        W16986   4.800   6.504   2.141  0.0606 -0.2046 -0.1817
 3573W        W16987   3.968  10.717  14.419 -0.1717  0.1870 -0.2726
 3574W        W16988   3.358   5.453  11.416 -0.2787  0.2107  0.0919
 3575W        W16989   7.316  16.993   4.526 -0.0534  0.2436  0.0693
 3576W        W16990   3.375  11.046   4.146 -0.3545 -0.5103 -0.0387
 3577W        W16991  12.364  17.900   2.127 -0.1495  0.1520  0.2180
 3578W        W16992   2.918   3.300   1.290  0.0383  0.4134  0.1305
 3579W        W16993   1.666   0.100   4.312  0.1915 -0.0161  0.0718
 3580W        W16994   0.806  12.219  11.230  0.0311 -0.1204 -0.0046
 3581W        W16995  13.396  17.591  11.807  0.1199  0.0846 -0.0532
 3582W        W16996  14.058   8.624   1.960  0.1378 -0.0648  0.3155
 3583W        W16997   0.598  11.379   1.024 -0.1414 -0.3204 -0.0899
 3584W        W16998   1.603  13.468   5.880  0.1133 -0.2431 -0.0464
 3585W        W16999   1.261  16.262  15.727 -0.0163 -0.0655  0.3015
 3586W        W17000   1.981   1.311   3.089 -0.0947  0.3700  0.1332
 3587W        W17001  14.982  14.433  14.609  0.0207 -0.1967 -0.1499
 3588W        W17002  17.793  16.609   2.125  0.0859  0.1724 -0.1800
 3589W        W17003  11.726  12.030   6.545 -0.1268 -0.0750 -0.2127
 3590W        W17004  15.083  16.658  10.770  0.1046  0.1881 -0.0101
 3591W        W17005   8.142   5.437   0.450 -0.3047 -0.1497  0.1521
 3592W        W17006   7.338  16.211  12.976  0.1661 -0.2790 -0.2659
 3593W        W17007   9.967  15.564  10.675 -0.0731  0.1106 -0.1169
 3594W        W17008   3.949   2.308  13.514 -0.1564  0.1281 -0.0935
 3595W        W17009   0.893   9.389  13.877 -0.1220  0.1918  0.0834
 3596W        W17010   7.280   1.554  10.961  0.1548 -0.0526  0.1254
 3597W        W17011   8.317  13.433   3.584  0.1769  0.0106 -0.0939
 3598W        W17012   3.244   7.678   1.227  0.0141 -0.4966  0.3904
 3599W        W17013  14.733   1.478  15.066 -0.0090 -0.1532  0.1429
 3600W        W17014   5.478  15.215   0.413  0.1941  0.1485 -0.2069
 3601W        W17015   5.204  10.775  14.227  0.1400 -0.1083 -0.0800
 3602W        W17016  11.970   8.244   3.996  0.0097  0.2877 -0.1622
 3603W        W17017  10.954   5.938  15.021  0.0590 -0.1855  0.2695
 3604W        W17018  14.736   3.896   2.349  0.3347 -0.0452 -0.2549
 3605W        W17019   2.249   7.083  11.853 -0.0542  0.2927 -0.0227
 3606W        W17020  10.241   6.200   2.363  0.2368 -0.0314  0.2232
 3607W        W17021   9.528  14.005  10.375  0.2338 -0.3203 -0.1208
 3608W        W17022   9.325  16.828   2.593  0.0099 -0.1014 -0.0093
 3609W        W17023   4.171  18.126  14.356  0.1921  0.5038  0.0416
 3610W        W17024  10.585  10.499  16.197 -0.0339 -0.0220  0.0609
 3611W        W17025   7.004   1.084   3.504 -0.0888 -0.3469  0.0597
 3612W        W17026  13.256   6.321  14.737 -0.1120  0.0979 -0.4280
 3613W        W17027  15.674   9.670  15.482 -0.2485 -0.1565 -0.0441
 3614W        W17028   7.667  16.244   0.708 -0.0896 -0.2366 -0.0426
 3615W        W17029   8.035   8.173   4.819 -0.1481 -0.2516 -0.0813
 3616W        W17030  10.565   2.160  15.648  0.0608  0.2219 -0.0269
 3617W        W17031  15.417   8.899  12.040  0.0917 -0.0561 -0.0004
 3618W        W17032  10.466  16.460   3.265  0.0392  0.0937 -0.1590
 3619W        W17033   0.299  13.895   0.155  0.2391 -0.0374  0.2199
 3620W        W17034   8.153   8.553   4.487  0.2142  0.0251 -0.0995
 3621W        W17035  14.457   8.255   0.728  0.2857 -0.3053 -0.2583
 3622W        W17036   4.500  10.572  13.000 -0.1546  0.1853 -0.0146
 3623W        W17037   2.300  12.587  10.913  0.1965  0.0323 -0.2543
 3624W        W17038   6.329   3.713  16.242 -0.0947  0.1695  0.3790
 3625W        W17039   5.186   6.891  13.210 -0.0503 -0.1123  0.3252
 3626W        W17040   9.233  16.348  10.701 -0.4079 -0.0963  0.0582
 3627W        W17041   8.376   8.101  10.080 -0.1787  0.0657 -0.2441
 3628W        W17042   8.137   4.259  14.255  0.0604 -0.0874  0.0217
 3629W        W17043   9.034   8.870  13.326 -0.0750 -0.4075 -0.0873
 3630W        W17044  10.668   1.363   5.427  0.1225  0.0711 -0.0618
 3631W        W17045  13.048  14.756  15.915  0.0128  0.0571  0.3132
 3632W        W17046   4.813   0.420   0.071 -0.1958  0.4175  0.1026
 3633W        W17047  14.316   7.327   2.005 -0.2140 -0.2241 -0.0371
 3634W        W17048  14.563  11.312  14.633 -0.1098  0.1950 -0.0593
 3635W        W17049  15.826  12.067   2.293 -0.1537  0.2906 -0.1401
 3636W        W17050  14.362  12.202  12.631  0.0281 -0.2628  0.1223
 3637W        W17051   5.269  11.181   3.175  0.0142  0.1838 -0.0536
 3638W        W17052  15.858  16.016  11.552 -0.2219  0.3760  0.1958
 3639W        W17053   8.747   1.346   4.049  0.2094  0.0024  0.0979
 3640W        W17054   4.622   6.703   1.648  0.1453  0.2466 -0.1339
 3641W        W17055   4.008  18.386   0.084  0.2284 -0.0612 -0.1424
 3642W        W17056  10.345   6.008  10.925 -0.2052  0.1491  0.0687
 3643W        W17057   0.701   5.173  13.736 -0.0484 -0.1639 -0.5113
 3644W        W17058   4.665  13.522   4.635 -0.0681  0.1814  0.0461
 3645W        W17059  16.191   4.920   3.348  0.2582 -0.0824 -0.2653
 3646W        W17060  17.636  11.197  14.635  0.1272 -0.0399 -0.0225
 3647W        W17061  15.842  13.081  16.262 -0.1026 -0.2518  0.2008
 3648W        W17062   5.342  13.568  10.300  0.0561  0.2752  0.1230
 3649W        W17063   8.060  18.188   2.514 -0.1474 -0.0500 -0.3767
 3650W        W17064   9.037   7.355  15.565 -0.3258 -0.1087 -0.0970
 3651W        W17065  14.623   7.538  14.770  0.2236  0.1111  0.1362
 3652W        W17066   6.933   6.406  13.828 -0.1573 -0.0177  0.2597
 3653W        W17067  16.723  17.520   3.779 -0.0718  0.0903  0.0051
 3654W        W17068   6.754   2.646  15.025  0.0231  0.0247 -0.0064
 3655W        W17069   9.508  17.958   4.173 -0.0984 -0.0861  0.2486
 3656W        W17070   2.387   8.303  16.019 -0.3736 -0.0527  0.0830
 3657W        W17071  15.161   0.021   3.844  0.1601  0.2670  0.1142
 3658W        W17072  10.792   6.853   3.369  0.3994 -0.0156 -0.1174
 3659W        W17073   8.569  17.559  11.052 -0.0377  0.1641 -0.0242
 3660W        W17074  12.096  13.751  15.142 -0.1880 -0.0329  0.0127
 3661W        W17075   5.549   9.572   6.652 -0.1539  0.4037  0.2890
 3662W        W17076  15.703   0.560  10.110  0.0263 -0.1568  0.0914
 3663W        W17077   3.022  13.499  14.416  0.1060 -0.1553  0.1410
 3664W        W17078   0.236  10.382   2.489 -0.0769  0.0485 -0.3084
 3665W        W17079   8.172  15.237  14.628 -0.2970 -0.0339  0.3256
 3666W        W17080   1.010   5.770   2.086  0.1220 -0.2888 -0.0069
 3667W        W17081   9.895  16.420   4.963 -0.0716  0.1666 -0.0047
 3668W        W17082   6.107   9.180  10.933  0.3495  0.1832 -0.0119
 3669W        W17083   8.056  12.887  15.605 -0.0636  0.0055 -0.0323
 3670W        W17084   2.091  13.501  12.548  0.1072 -0.4053  0.2060
 3671W        W17085   8.832   8.865  12.777 -0.2834  0.0175 -0.2116
 3672W        W17086   1.053   6.695   5.752 -0.4483  0.1486  0.3440
 3673W        W17087  12.173  16.366  14.570  0.0403  0.1713  0.1862
 3674W        W17088  16.182  14.490   4.960  0.1075  0.0762  0.2195
 3675W        W17089  11.990  13.411   4.056  0.3458  0.0558  0.3531
 3676W        W17090  12.978   0.857  16.082 -0.1009 -0.0389  0.1395
 3677W        W17091   8.451  18.167  16.152  0.0561 -0.0658 -0.1033
 3678W        W17092   8.683  12.403  11.354  0.4027 -0.1101 -0.1406
 3679W        W17093   7.718   3.274   0.315 -0.1894 -0.1798 -0.1048
 3680W        W17094   7.320   5.088   0.342  0.2085 -0.1352  0.1439
 3681W        W17095  16.497  15.560   3.469 -0.3961  0.0117 -0.0031
 3682W        W17096  12.161  14.437   1.993 -0.0086 -0.1097 -0.0766
 3683W        W17097  14.097  15.391  15.967  0.1268 -0.1383  0.3670
 3684W        W17098   6.498   0.030   6.759  0.2565  0.0874 -0.3272
 3685W        W17099   3.804   6.842  13.019  0.0871 -0.2404 -0.2454
 3686W        W17100   5.008   8.132   5.146 -0.1507 -0.1012 -0.3061
 3687W        W17101  15.105   3.732   4.971 -0.0644  0.2036 -0.2312
 3688W        W17102   9.670   4.355   2.636 -0.0247 -0.2742  0.0124
 3689W        W17103   9.103   9.919  15.247  0.0408  0.0654 -0.2696
 3690W        W17104   2.303  15.892   1.055 -0.0364  0.2317  0.0627
 3691W        W17105  13.829   4.328   2.397  0.0108 -0.2219  0.0186
 3692W        W17106   2.897   0.803   6.327  0.0623 -0.0832 -0.0234
 3693W        W17107   5.554  12.328  14.701 -0.0582 -0.0318  0.0675
 3694W        W17108  11.444  12.689   4.055  0.0272  0.2904  0.1400
 3695W        W17109   4.342   9.206   1.389 -0.1140  0.0610  0.0120
 3696W        W17110   6.611   0.809   0.183  0.0449 -0.0320 -0.1346
 3697W        W17111  13.388   0.578   6.067  0.2430  0.1091  0.2096
 3698W        W17112  12.181  18.363  16.229  0.1887 -0.0644 -0.0462
 3699W        W17113  11.311  15.129   2.788 -0.1147  0.0951 -0.3263
 3700W        W17114  11.956   0.489   0.476 -0.0739  0.0020  0.0972
 3701W        W17115  10.652  12.767  15.848 -0.0596 -0.0908 -0.4878
 3702W        W17116  11.981   3.732  13.286 -0.0387  0.0404 -0.0405
 3703W        W17117   5.710   0.917  12.299  0.0872 -0.0395 -0.0080
 3704W        W17118  12.378   1.719   1.764  0.0762  0.0720  0.3132
 3705W        W17119  11.744  18.022  11.038  0.0677 -0.1132 -0.1343
 3706W        W17120  14.275   7.427   1.488 -0.2508 -0.0218 -0.0020
 3707W        W17121   0.458  13.927   1.098  0.0485 -0.2201 -0.3174
 3708W        W17122   4.758   7.111   0.872 -0.5235  0.1701 -0.2136
 3709W        W17123   4.772   5.384  12.115 -0.1137 -0.0327  0.0729
 3710W        W17124   4.630   2.073   3.555  0.1808 -0.0057  0.3771
 3711W        W17125  12.534   0.137  12.641  0.0212  0.0008  0.0838
 3712W        W17126  13.396  10.770   3.665 -0.2771 -0.2631  0.1754
 3713W        W17127   8.829  16.786   1.041 -0.1052  0.4123 -0.0641
 3714W        W17128   0.728   9.448   0.940 -0.0440  0.1154  0.0935
 3715W        W17129  13.241  17.488  13.274 -0.1401  0.0764  0.3150
 3716W        W17130   3.984  12.702  12.866  0.0749  0.0614  0.2024
 3717W        W17131   6.168   9.242   2.850 -0.2077  0.0594  0.0297
 3718W        W17132  11.645  14.170  11.599  0.2675 -0.1337 -0.1474
 3719W        W17133   2.359   8.673   6.500  0.1596 -0.1681  0.1964
 3720W        W17134  12.879   8.455   3.347 -0.0933  0.0663  0.0485
 3721W        W17135  18.395  10.597   2.969  0.3876 -0.1059 -0.1918
 3722W        W17136  14.488  11.648   5.456  0.0524 -0.0886 -0.2938
 3723W        W17137  17.703  11.032   2.958  0.4660 -0.3023  0.3126
 3724W        W17138  17.261  16.235   2.556 -0.2084  0.0372  0.1445
 3725W        W17139  17.681   5.693  11.486 -0.1041 -0.2668 -0.0108
 3726W        W17140  18.111   0.574   5.872  0.0922  0.1456 -0.0206
 3727W        W17141   7.896   3.115   2.469  0.1836  0.0438  0.0001
 3728W        W17142   8.948   6.587   2.495  0.2323  0.2068 -0.2461
 3729W        W17143  14.804   8.659  13.619 -0.1525  0.3470 -0.1227
 3730W        W17144  10.642   0.937   4.727 -0.1789 -0.3966 -0.1716
 3731W        W17145   7.801  18.341  10.902 -0.1007 -0.3149  0.2559
 3732W        W17146  13.472   3.465   2.200 -0.0969 -0.0805  0.0680
 3733W        W17147  16.817   8.835   4.666 -0.1210  0.2001 -0.2211
 3734W        W17148   9.060   1.156  13.151 -0.2847 -0.1385  0.0069
 3735W        W17149   5.801   2.999   2.675 -0.3685 -0.2448 -0.0820
 3736W        W17150   9.236   7.800   3.423 -0.1354  0.0514 -0.1578
 3737W        W17151  12.377  17.584   1.071 -0.2380  0.1645 -0.0639
 3738W        W17152  12.820  17.775   1.901  0.0518  0.2837  0.0519
 3739W        W17153   9.691  18.313  10.932 -0.0826 -0.0194 -0.0440
 3740W        W17154   9.216  18.033   9.870 -0.1942 -0.2875 -0.0232
 3741W        W17155  14.511  16.352   1.656 -0.0022  0.0308 -0.0511
 3742W        W17156   9.206   1.091  11.727  0.0207  0.2649 -0.1934
 3743W        W17157   6.238  11.945   2.895 -0.2197 -0.1762 -0.0413
 3744W        W17158   8.904   0.350  10.336 -0.0908 -0.1860  0.4800
 3745W        W17159  10.726  15.747  11.622 -0.5457 -0.0615  0.0636
 3746W        W17160  13.137   5.286  12.095  0.1046 -0.0621  0.4856
 3747W        W17161   2.199  10.355   5.217  0.4413  0.3174 -0.1294
 3748W        W17162   8.072  18.413  10.486  0.1133 -0.1902 -0.0529
 3749W        W17163  13.954   7.626   5.885  0.2126 -0.0021  0.2837
 3750W        W17164  11.126  11.111   5.664 -0.1419 -0.2670  0.0507
 3751W        W17165  14.337  16.458  14.075  0.1683  0.0840 -0.0100
 3752W        W17166   8.844  12.381   2.213 -0.2450 -0.0329  0.2038
 3753W        W17167  15.227   7.388   0.357 -0.1093  0.2532 -0.2239
 3754W        W17168   6.910   9.790  14.152 -0.1186 -0.1605 -0.1888
 3755W        W17169   8.434  11.621  12.525  0.1611  0.0540  0.1275
 3756W        W17170  15.967  14.616  10.708 -0.1451  0.2875 -0.2305
 3757W        W17171  14.878  11.122  14.348  0.0869  0.1433  0.0099
 3758W        W17172  18.008   2.895  16.019  0.0653 -0.2739  0.2813
 3759W        W17173  10.539   3.971  11.573 -0.0875  0.2847  0.3757
 3760W        W17174   6.251   3.293   1.031 -0.1435  0.0469  0.1139
 3761W        W17175   7.633  11.956   2.371 -0.0275 -0.1464 -0.3480
 3762W        W17176  10.541   4.596  11.379  0.0374  0.0915  0.0832
 3763W        W17177  11.696   3.960  13.841  0.0747 -0.2628  0.1837
 3764W        W17178  12.004   3.815   4.680  0.1305 -0.1302  0.0537
 3765W        W17179   9.847   0.192  13.145  0.0954 -0.2561 -0.3151
 3766W        W17180  13.907  15.300  12.606  0.1196 -0.0151  0.4796
 3767W        W17181   1.879  14.862  12.069 -0.0958  0.0597  0.0092
 3768W        W17182  14.793  12.540  10.973  0.2436  0.0147  0.1462
 3769W        W17183   6.386  14.083   2.747  0.0954  0.1325  0.0554
 3770W        W17184  11.593  12.877   3.284 -0.1673  0.2121  0.0388
 3771W        W17185  10.765  16.582  12.060 -0.3165  0.1840 -0.0529
 3772W        W17186   8.074  13.170   1.418  0.1735 -0.1086  0.2967
 3773W        W17187   1.399  12.989  15.816 -0.0986 -0.1197  0.0289
 3774W        W17188   6.258   0.739   3.036  0.0628  0.2270  0.1353
 3775W        W17189   1.425  10.431   4.487  0.0230  0.0808  0.2611
 3776W        W17190  17.596   6.380  12.062 -0.1089  0.1111 -0.0162
 3777W        W17191   4.899   4.854  10.938  0.0739  0.2020 -0.0861
 3778W        W17192   0.615   5.060   1.079  0.2350  0.3331 -0.4109
 3779W        W17193  12.554  11.393   4.473 -0.1179  0.0229 -0.3359
 3780W        W17194   5.863  11.185   2.709  0.0072 -0.4144  0.0310
 3781W        W17195  11.127  17.843   2.752 -0.2467 -0.2474  0.1750
 3782W        W17196   3.123  14.432   4.677 -0.0723 -0.2360  0.0084
 3783W        W17197   6.193  12.420  16.004  0.1402  0.0377  0.4070
 3784W        W17198   6.975  17.707  14.118 -0.1435 -0.0791 -0.2038
 3785W        W17199  11.700  16.628   0.035 -0.0988  0.1232 -0.1239
 3786W        W17200   1.446   6.656  15.112 -0.3657 -0.3565  0.2521
 3787W        W17201   1.899   6.397   3.189  0.2496 -0.0771  0.3089
 3788W        W17202   4.198  16.701   5.036 -0.0101 -0.2026  0.0659
 3789W        W17203   9.563   5.422   3.710  0.0132  0.2622 -0.0549
 3790W        W17204   3.773  13.255   3.126  0.1734  0.1152  0.0800
 3791W        W17205   2.385   8.556   3.032  0.1732  0.1225  0.1965
 3792W        W17206  10.225  11.053   1.216  0.0084  0.2723  0.3721
 3793W        W17207  12.783   5.815  13.454  0.1159  0.2952 -0.2362
 3794W        W17208  13.637   4.928   0.728  0.0141 -0.1671  0.2937
 3795W        W17209  17.086  13.436  10.294  0.3798 -0.2263  0.0994
 3796W        W17210  12.527   8.692  10.389  0.1210  0.0986  0.2121
 3797W        W17211  15.543  13.164   2.811  0.0085 -0.0003  0.1209
 3798W        W17212  14.190   3.822   3.648 -0.0734  0.2776  0.0492
 3799W        W17213   0.572   3.537  10.904  0.0482  0.0343  0.2415
 3800W        W17214  13.464   6.466  13.100  0.0797  0.0304 -0.1258
 3801W        W17215  15.330   8.433  11.972 -0.0104  0.1184  0.1035
 3802W        W17216  11.838  10.167   4.311 -0.0792 -0.2146  0.0389
 3803W        W17217  16.522   7.754   4.926  0.2231  0.1461  0.3120
 3804W        W17218  17.869  12.966   3.151 -0.1082 -0.0830 -0.2723
 3805W        W17219  13.201  10.978  12.936  0.1612  0.2146 -0.3306
 3806W        W17220  17.513   1.480  15.779 -0.2695  0.1648 -0.1198
 3807W        W17221   1.222  10.842  14.297  0.0603 -0.0081  0.0448
 3808W        W17222  12.303  15.732  12.563 -0.0031  0.2847  0.2641
 3809W        W17223   2.442   7.608   4.154  0.2084  0.2728 -0.1214
 3810W        W17224   2.375  11.702  12.027 -0.2448  0.0655  0.3589
 3811W        W17225   6.466  13.313   9.597 -0.0997 -0.3849 -0.2014
 3812W        W17226   7.745   0.119  14.954  0.3108  0.1729 -0.1548
 3813W        W17227  14.085   3.214   4.095 -0.0011  0.3625  0.2372
 3814W        W17228   8.881  16.964  14.678 -0.1057  0.0073 -0.1431
 3815W        W17229   2.789   1.364  13.044 -0.0562 -0.0601 -0.0246
 3816W        W17230   8.755   5.607  15.344 -0.2370  0.4075  0.3966
 3817W        W17231  18.087   5.350   4.173 -0.0534 -0.1665  0.0392
 3818W        W17232   2.123   9.897  11.135  0.0528 -0.2791  0.0467
 3819W        W17233   3.173  14.220  10.446  0.2120  0.3077 -0.1852
 3820W        W17234  17.069  18.301  13.641  0.0513 -0.1102 -0.0307
 3821W        W17235   4.405   2.429   2.745  0.0975 -0.1107  0.0074
 3822W        W17236   7.868   6.588   9.724  0.0999  0.1338  0.0854
 3823W        W17237  14.176  10.975   0.805  0.3351 -0.1081 -0.1708
 3824W        W17238   4.257   5.291  12.093 -0.4796 -0.2438 -0.0803
 3825W        W17239   6.323   7.697   0.204 -0.2994 -0.3145  0.0655
 3826W        W17240  13.870   3.697  12.060 -0.0882 -0.1612 -0.0470
 3827W        W17241   0.065  13.079  14.515 -0.1131  0.0441 -0.0427
 3828W        W17242  10.457  11.020  11.704  0.0084 -0.0517  0.1265
 3829W        W17243   1.052   1.716   1.730 -0.1727  0.0411  0.0518
 3830W        W17244  11.275   2.203   2.547  0.0379 -0.1947 -0.0218
 3831W        W17245  16.993   3.646  11.742  0.0453 -0.0190 -0.1533
 3832W        W17246  10.552  17.187  16.228 -0.2243  0.0494 -0.1122
 3833W        W17247  17.708  14.782   4.527 -0.1036 -0.0142  0.0398
 3834W        W17248  12.228  13.501   4.906  0.1755 -0.2118  0.0715
 3835W        W17249   5.099  13.978  10.086  0.1346  0.1167 -0.3865
 3836W        W17250  12.143   8.992  14.454  0.1172 -0.1610  0.0438
 3837W        W17251  10.109  16.726  13.161  0.1848  0.2531 -0.0503
 3838W        W17252  12.910  10.453  14.077  0.0957 -0.0719  0.1769
 3839W        W17253   9.297   6.049  15.577 -0.1026  0.0256 -0.0565
 3840W        W17254   5.578  10.686  14.522  0.0072  0.0374  0.0911
 3841W        W17255  14.440   5.638   4.661 -0.0833 -0.2492 -0.1250
 3842W        W17256  13.506  17.957  12.136  0.2249 -0.0329  0.0083
 3843W        W17257  11.468   9.355  12.257  0.0922  0.1262 -0.0239
 3844W        W17258  18.331  16.068  12.658 -0.0488 -0.0094  0.0683
 3845W        W17259   4.640  17.560  10.672  0.2029 -0.1183 -0.0370
 3846W        W17260   0.236   7.397   1.326 -0.0728 -0.1695 -0.0613
 3847W        W17261   6.642   4.396  15.673 -0.1892 -0.0926 -0.0126
 3848W        W17262   3.414   3.401   1.181 -0.1278 -0.0215  0.1869
 3849W        W17263   5.087  13.697   1.868  0.3930  0.2376 -0.3084
 3850W        W17264  14.537  13.883   5.297  0.0151 -0.0157  0.0751
 3851W        W17265   2.644  14.536   1.553 -0.4839  0.1392 -0.1758
 3852W        W17266  11.799   2.143  13.817  0.1954 -0.1747  0.1064
 3853W        W17267  15.304   1.501  14.495 -0.0784 -0.2045 -0.2691
 3854W        W17268   9.680  17.176   2.597  0.0593 -0.3011  0.2952
 3855W        W17269   3.412  17.403   5.481  0.1452 -0.0582  0.1853
 3856W        W17270   9.160   1.772   1.198  0.1979 -0.2529 -0.1867
 3857W        W17271  14.700   0.240   4.308 -0.1303 -0.0922 -0.0741
 3858W        W17272   8.182  17.934  12.600 -0.1125 -0.0135  0.0463
 3859W        W17273   8.289   0.090   2.888  0.0367 -0.3438  0.2060
 3860W        W17274   7.145   4.438  15.754 -0.0649  0.0894 -0.2637
 3861W        W17275  13.793  17.231  12.093  0.3183  0.4113  0.0077
 3862W        W17276  12.244  17.835   0.112 -0.3672  0.0417 -0.0928
 3863W        W17277  11.160  16.243  15.283  0.1586 -0.0182 -0.0548
 3864W        W17278  14.988   5.940  14.167 -0.0866  0.1889  0.2138
 3865W        W17279   1.056  10.406   4.067 -0.2553  0.0042 -0.1018
 3866W        W17280  13.170  12.407  15.376  0.0386 -0.0619  0.0313
 3867W        W17281   2.103   2.415  12.578 -0.0013  0.0576 -0.2739
 3868W        W17282   2.365  16.316   0.184  0.0821  0.1138 -0.2350
 3869W        W17283   2.686   7.383  11.930  0.1882  0.2756 -0.1409
 3870W        W17284   9.932   7.303   3.803 -0.2579  0.0807  0.1434
 3871W        W17285   7.613  12.544   2.134  0.2705 -0.1699  0.1943
 3872W        W17286   3.375   8.881  14.063  0.1614  0.2417  0.0540
 3873W        W17287  17.513   4.662  12.856 -0.0033  0.0467 -0.1906
 3874W        W17288   0.205  13.714  15.196  0.1403  0.0278 -0.1069
 3875W        W17289   3.166  16.513   4.631 -0.3366 -0.0078  0.1362
 3876W        W17290   5.295   3.008   0.733 -0.2044 -0.2344  0.1526
 3877W        W17291  13.136   7.063  12.882  0.2290 -0.0645  0.2701
 3878W        W17292  16.124   9.651   1.975  0.1805 -0.2374 -0.1902
 3879W        W17293  17.337   8.703   1.720 -0.2835 -0.1205 -0.1443
 3880W        W17294  13.926   5.454  15.900 -0.2454  0.0206  0.3058
 3881W        W17295   2.569  15.482   0.582  0.1831 -0.0172 -0.0005
 3882W        W17296  17.379  13.276   6.300  0.1067  0.0742 -0.2750
 3883W        W17297  13.923  15.720  13.939  0.0331 -0.0392 -0.1416
 3884W        W17298  16.785   0.808   6.022  0.1989  0.3960 -0.0095
 3885W        W17299   3.740   3.095  13.049 -0.0059  0.0352  0.1338
 3886W        W17300  10.587   3.252  15.702 -0.2983  0.0076  0.0655
 3887W        W17301  14.361   9.566   1.748 -0.0048  0.1896 -0.1181
 3888W        W17302   5.477  11.517   1.048 -0.2275 -0.2030  0.0131
 3889W        W17303  14.781  11.896  14.936 -0.0077 -0.0338  0.1012
 3890W        W17304   7.535   1.706   3.663  0.1557 -0.2518  0.4292
 3891W        W17305   7.116   3.439  14.489 -0.1488  0.3398  0.0797
 3892W        W17306  10.146   7.666   1.455 -0.0189 -0.1727 -0.0938
 3893W        W17307  13.150   2.479  12.919 -0.2572  0.2653  0.1508
 3894W        W17308   0.683   0.499  14.968 -0.1556  0.0874  0.1086
 3895W        W17309  15.624   5.057   0.254 -0.0752  0.2925 -0.1830
 3896W        W17310  14.667   9.041  10.644  0.1263 -0.0699  0.0013
 3897W        W17311  18.090   8.069   6.522  0.3921  0.2501  0.0814
 3898W        W17312   0.567   2.485   0.179 -0.2343 -0.0515  0.3054
 3899W        W17313  17.620  15.196   2.522 -0.1227  0.1775 -0.0336
 3900W        W17314  13.607   4.542  15.697  0.0071 -0.1617 -0.1829
 3901W        W17315  11.896   0.476  13.123  0.1065  0.2671  0.0080
 3902W        W17316   3.905  13.341  13.987  0.0248  0.0996  0.1074
 3903W        W17317   1.057  15.470  13.353  0.3685 -0.1073 -0.0647
 3904W        W17318  12.719  13.773   6.096  0.1674 -0.2715  0.0746
 3905W        W17319  11.559  10.590   0.390  0.2460  0.0365  0.1252
 3906W        W17320   6.450   1.250   4.272  0.1527  0.1126 -0.1885
 3907W        W17321   9.097  16.874  13.830 -0.3611  0.0898 -0.1091
 3908W        W17322   5.063  13.321   2.179  0.1093  0.3206  0.0982
 3909W        W17323   0.646   3.804  15.859 -0.1800  0.0358 -0.2043
 3910W        W17324   7.925   6.100  12.854  0.2234 -0.1098 -0.2245
 3911W        W17325  17.732   6.106   4.314  0.1635  0.2581 -0.0936
 3912W        W17326  15.817   4.718  13.130 -0.0816  0.2722  0.0987
 3913W        W17327   5.536   3.394   3.169 -0.0340  0.4098  0.2943
 3914W        W17328   5.236   0.575  15.144  0.0116 -0.0251  0.1231
 3915W        W17329   8.325  13.371   0.438  0.0032 -0.0133  0.1372
 3916W        W17330   5.747  10.591   4.177  0.0747 -0.0781 -0.2872
 3917W        W17331   8.566   7.816  15.624 -0.1751  0.1419 -0.0359
 3918W        W17332  11.627   7.933   4.664 -0.2498 -0.1021 -0.0770
 3919W        W17333  15.162   8.427   1.541 -0.3061  0.0789  0.0005
 3920W        W17334   5.947   3.152  15.200  0.3247  0.0032  0.0247
 3921W        W17335   0.509  15.794  15.617  0.1170  0.1139 -0.0190
 3922W        W17336   3.376   0.323  13.827 -0.2748  0.4773  0.0057
 3923W        W17337  11.675   6.936  15.081  0.0882  0.0956  0.0457
 3924W        W17338  18.059   9.613  10.185  0.0292  0.4376  0.1306
 3925W        W17339   1.815   5.976  14.013  0.3094  0.1033 -0.0685
 3926W        W17340  12.635   0.164  13.713  0.1204  0.0776 -0.1048
 3927W        W17341  10.224  16.349  11.255  0.1358  0.1388  0.0776
 3928W        W17342  16.956  12.999   0.076  0.3159  0.1879  0.0499
 3929W        W17343   5.855   9.725  11.928 -0.1762 -0.2062 -0.0221
 3930W        W17344   1.673  11.910   0.351 -0.0777 -0.0526 -0.1141
 3931W        W17345  14.489   0.685   3.341  0.3048 -0.2473 -0.3828
 3932W        W17346  12.252  15.282   9.502  0.1204  0.0736  0.3297
 3933W        W17347   1.791   8.363   4.153 -0.1396  0.2316  0.1782
 3934W        W17348   9.643  11.353   2.762  0.1461 -0.0007 -0.1333
 3935W        W17349  10.911  14.256  12.376 -0.2341  0.1898 -0.1271
 3936W        W17350  13.943   9.729  11.416 -0.1672  0.4136 -0.1639
 3937W        W17351  13.866  10.408  12.381 -0.0966  0.0613  0.3462
 3938W        W17352   8.702  15.852  11.505  0.1363  0.0913  0.2761
 3939W        W17353   2.222  16.430  11.030  0.1213 -0.0540 -0.0946
 3940W        W17354   2.932  18.323  11.247  0.1009 -0.1956  0.0566
 3941W        W17355  12.437   0.934   4.475  0.0169  0.1644  0.1630
 3942W        W17356  16.156  18.055  15.665  0.0410 -0.0102  0.1738
 3943W        W17357  12.074  17.194  13.122  0.0506  0.3548  0.0352
 3944W        W17358  13.385   1.909  12.959  0.0370  0.1860  0.3851
 3945W        W17359   7.890  17.228   5.208  0.1753  0.1804  0.0894
 3946W        W17360   4.163   8.352   3.313 -0.2013  0.0586 -0.0031
 3947W        W17361  15.327   8.360   0.064  0.0330  0.0588  0.0169
 3948W        W17362  10.853  11.810   0.811 -0.0524 -0.0411 -0.2693
 3949W        W17363  11.350  15.662   3.436 -0.0504  0.1436  0.4167
 3950W        W17364   1.397   2.513   0.509 -0.4327  0.1795 -0.0977
 3951W        W17365   6.360   5.324   0.702 -0.1568  0.1810  0.0571
 3952W        W17366  11.274  16.437  13.475  0.1293  0.1149 -0.3726
 3953W        W17367  12.941  16.414  10.200  0.3284  0.0819  0.0743
 3954W        W17368  13.553  11.613  11.695  0.0083  0.0954 -0.0636
 3955W        W17369  10.006   4.526   3.825  0.1305  0.1317  0.0195
 3956W        W17370   2.025   2.801  14.906  0.1227 -0.1710  0.0612
 3957W        W17371  11.447   4.187   3.555 -0.2145  0.3330 -0.0149
 3958W        W17372   5.736  14.560  15.104 -0.0015 -0.0696 -0.4366
 3959W        W17373  17.344  15.157   4.535  0.0952  0.0500 -0.3848
 3960W        W17374   0.275  13.814  14.543 -0.3155 -0.1043  0.1711
 3961W        W17375  10.479  13.175   2.267 -0.2062  0.1434  0.1489
 3962W        W17376  16.062  13.619  12.969  0.0675  0.2079 -0.1642
 3963W        W17377   1.619  13.816  12.354  0.1399 -0.0084 -0.1870
 3964W        W17378   8.649  11.778  11.923 -0.1260  0.0313  0.2985
 3965W        W17379  18.129  10.399  15.561 -0.0017  0.0865  0.1231
 3966W        W17380  12.579  15.171  11.059 -0.0544  0.1469  0.3064
 3967W        W17381   0.237  11.186   2.080 -0.0424 -0.0985  0.1008
 3968W        W17382  15.105  16.169  14.569  0.3566 -0.0596  0.0148
 3969W        W17383  17.391  12.700  12.428  0.0242 -0.2121 -0.3285
 3970W        W17384   2.585   8.832  15.301 -0.1076 -0.1163  0.1029
 3971W        W17385  17.496  10.498   6.230 -0.0279  0.0847 -0.0476
 3972W        W17386   2.097   0.860  14.730  0.2648 -0.1169  0.0469
 3973W        W17387  12.153   7.293  15.299 -0.1604  0.1694  0.1518
 3974W        W17388   6.759   8.673  14.275 -0.1195  0.0655 -0.0287
 3975W        W17389   6.178  17.201   2.849 -0.0766  0.2755 -0.1454
 3976W        W17390   1.334  13.136   3.195  0.4436  0.0722 -0.0874
 3977W        W17391  12.105   5.597  12.058  0.1352  0.2278  0.1285
 3978W        W17392   8.325   4.148  10.210 -0.1706  0.1350 -0.0204
 3979W        W17393  17.007   1.679  14.327 -0.3975 -0.0376 -0.1095
 3980W        W17394  13.487  16.365   0.687 -0.0674 -0.2242 -0.2370
 3981W        W17395   8.142  16.837   5.890  0.0238  0.5670  0.0237
 3982W        W17396   4.153   3.415   0.572 -0.1288  0.1465  0.0625
 3983W        W17397  17.042  10.132  12.363  0.0315  0.0101 -0.0356
 3984W        W17398  14.755   2.566  14.790  0.1835  0.0860  0.0756
 3985W        W17399   3.767  12.810   1.445  0.0042 -0.1742  0.2290
 3986W        W17400  13.261   4.960  16.199  0.1520  0.0394  0.1437
 3987W        W17401   2.865   2.918  11.561 -0.0475  0.1899 -0.1316
 3988W        W17402  12.362   0.304   1.172 -0.1651  0.2609 -0.0008
 3989W        W17403   0.258   2.315  13.361  0.0569  0.1431  0.1636
 3990W        W17404   2.606   1.536  11.713 -0.1378  0.0890  0.2105
 3991W        W17405   9.577  13.256  14.940  0.0075  0.0114 -0.1001
 3992W        W17406   4.515  11.674  15.980  0.0597 -0.1824 -0.0062
 3993W        W17407   9.156   6.298   5.289 -0.0808  0.0853  0.0377
 3994W        W17408   5.606   9.836   1.752  0.1895  0.1064  0.0798
 3995W        W17409  13.506   5.198   1.430 -0.2278 -0.2935  0.2566
 3996W        W17410  18.334   5.402  14.724 -0.0665 -0.3380  0.1020
 3997W        W17411  15.503   6.817  12.561 -0.3098  0.0961 -0.2827
 3998W        W17412  17.997   5.837   1.882  0.1058  0.1879  0.0032
 3999W        W17413  17.536  13.348  14.215 -0.0457 -0.0860  0.0901
 4000W        W17414   3.911   2.092  12.994  0.0848 -0.2004 -0.1726
 4001W        W17415   2.297   8.977  11.716 -0.0297  0.3622  0.1233
 4002W        W17416   3.049   7.267   5.120 -0.0019  0.0239 -0.1314
 4003W        W17417   8.798   4.929  11.421 -0.1992 -0.2435  0.1153
 4004W        W17418   1.679  15.398  11.819 -0.0788  0.1691  0.1464
 4005W        W17419  10.569   0.714   1.729 -0.0146 -0.1584 -0.0180
 4006W        W17420   2.969   4.102  13.042  0.3057 -0.0988  0.0151
 4007W        W17421  12.463  17.609  15.674  0.2125  0.1320 -0.1712
 4008W        W17422   8.988   0.026  12.759  0.1864  0.1603 -0.1320
 4009W        W17423   3.357  14.126   3.375 -0.1936  0.1013 -0.0235
 4010W        W17424   5.524  12.966  13.095  0.2978  0.0586  0.1359
 4011W        W17425  12.823  18.266   2.305 -0.1127 -0.0419 -0.0214
 4012W        W17426   6.933   4.888  11.989  0.1589 -0.2684 -0.1304
 4013W        W17427   5.737  17.192  15.901  0.1136 -0.0118  0.3415
 4014W        W17428  12.245   9.026   3.874 -0.0722  0.1309 -0.2582
 4015W        W17429   8.906  12.888   3.930  0.1062  0.1919 -0.1492
 4016W        W17430  10.737   1.237   0.599 -0.3078  0.0945  0.0788
 4017W        W17431   4.941   4.298  12.012 -0.1788 -0.0303 -0.2954
 4018W        W17432  16.768   6.053  15.493  0.0073  0.2286 -0.0841
 4019W        W17433   5.276  15.607  11.462  0.0125 -0.1790  0.0318
 4020W        W17434  13.541   8.678  14.781 -0.0692  0.5645 -0.1200
 4021W        W17435  10.271  10.617  15.715  0.0662 -0.2285 -0.1690
 4022W        W17436   6.669   4.444  11.143  0.0898 -0.4659  0.0298
 4023W        W17437  13.916   6.265   2.670 -0.0060  0.0253  0.2042
 4024W        W17438  16.148   1.712   5.987  0.1940 -0.1974 -0.1240
 4025W        W17439  15.301   8.651   5.869 -0.0322  0.1375 -0.0091
 4026W        W17440   8.492  13.059  15.593  0.0269  0.3973 -0.1711
 4027W        W17441   0.079   9.452  14.459 -0.1677  0.0469  0.1386
 4028W        W17442  14.927  10.253   1.162  0.2544  0.0289 -0.1305
 4029W        W17443   5.490   4.090   0.937 -0.0433  0.1035 -0.0012
 4030W        W17444  16.029   6.751  12.780 -0.2094 -0.3054  0.4837
 4031W        W17445  16.370   1.023   5.249 -0.1891  0.1045 -0.0872
 4032W        W17446   2.063  14.158   5.091  0.2300 -0.1901  0.3227
 4033W        W17447  10.654   1.236   3.677 -0.0525  0.0322  0.0575
 4034W        W17448  10.846  13.984  13.500  0.1379  0.0788 -0.1233
 4035W        W17449   2.753   2.689  10.060  0.0107  0.0748  0.1305
 4036W        W17450   2.680  12.671  11.867  0.0450 -0.0988 -0.0747
 4037W        W17451   1.087  13.346   3.590  0.4129 -0.0300  0.0418
 4038W        W17452  15.092  14.577   4.465 -0.0526 -0.2646  0.0372
 4039W        W17453   3.310  14.283  12.053 -0.0375  0.0930  0.0247
 4040W        W17454   8.724   3.730   5.015 -0.2946 -0.2374 -0.1157
 4041W        W17455   7.833   6.897  10.498  0.0019  0.0009  0.0468
 4042W        W17456  11.779   3.039  12.655  0.1200 -0.0592  0.0816
 4043W        W17457  17.341  12.921  13.734 -0.3710 -0.0772 -0.0121
 4044W        W17458  16.560  16.412   3.878  0.2898 -0.0655 -0.0955
 4045W        W17459  11.069  12.353   4.271  0.1075  0.2639  0.0800
 4046W        W17460   8.047  14.909   0.921 -0.0100 -0.0725 -0.0385
 4047W        W17461  12.166  10.324   2.267 -0.3814 -0.0943  0.1592
 4048W        W17462  12.664  14.662   3.627  0.0769  0.1007  0.1465
 4049W        W17463  10.594   4.514  10.385 -0.3777 -0.0642 -0.1221
 4050W        W17464  18.335  11.466  16.117 -0.0912  0.2419  0.0914
 4051W        W17465   2.707   5.355  10.817  0.1140  0.1670 -0.0969
 4052W        W17466  11.130  16.277   6.034 -0.2356 -0.1985  0.0454
 4053W        W17467   2.438   6.754  15.914 -0.0727  0.2147 -0.1230
 4054W        W17468   7.594  12.691   0.089  0.0493 -0.4496 -0.0325
 4055W        W17469  14.885  16.633  14.369  0.0998  0.1552  0.1182
 4056W        W17470  13.045  15.933  11.590  0.0923  0.2686  0.0355
 4057W        W17471  12.577   7.872  11.931 -0.0295 -0.4230  0.1148
 4058W        W17472   7.672   8.325  11.547  0.1943 -0.1440  0.3166
 4059W        W17473   7.381   9.200  11.649  0.3304  0.0373  0.0992
 4060W        W17474   0.523  15.237   0.005 -0.0929 -0.0817  0.0573
 4061W        W17475  10.035   4.702   2.461  0.1483 -0.0637 -0.2984
 4062W        W17476  13.301   1.490   2.993  0.0501  0.2949 -0.0641
 4063W        W17477  17.282  17.319   3.583  0.1822 -0.0128  0.0469
 4064W        W17478  16.057   0.073   5.391  0.2322 -0.1046 -0.3871
 4065W        W17479   9.960  11.843  16.005  0.2093  0.0595  0.2503
 4066W        W17480  17.959   4.537   2.795  0.0462  0.3682 -0.0590
 4067W        W17481   3.338   6.980  12.823  0.1318 -0.2169  0.0371
 4068W        W17482   9.442   8.023   4.771  0.0112 -0.0164 -0.2534
 4069W        W17483  16.913   6.226   4.289 -0.2134  0.0978  0.3328
 4070W        W17484  12.860  11.311  13.184  0.0719  0.0663 -0.2252
 4071W        W17485   1.306  12.870   2.230  0.0722 -0.0078 -0.4371
 4072W        W17486  17.261   0.653   2.238 -0.2150 -0.0297 -0.1017
 4073W        W17487  14.401  15.967  10.205  0.0100 -0.0569  0.1332
 4074W        W17488  18.209   7.848  15.985  0.3324  0.0108 -0.4932
 4075W        W17489   1.631  17.007   3.093 -0.0490  0.0007  0.2175
 4076W        W17490   2.738   7.601  13.302  0.3635 -0.0673  0.3248
 4077W        W17491  16.215  11.470  11.030 -0.0738  0.2242  0.1845
 4078W        W17492   6.915  16.927  12.639  0.0001 -0.1161  0.0733
 4079W        W17493  14.490  11.680   3.184  0.1277  0.3779 -0.0856
 4080W        W17494  16.272   7.656   5.757  0.2195  0.1369 -0.1072
 4081W        W17495   4.480   3.388  15.063  0.2242  0.1463  0.1489
 4082W        W17496   5.299   3.729   4.145  0.0271 -0.1391  0.5203
 4083W        W17497   8.557  10.898  11.466 -0.0210  0.4189 -0.0040
 4084W        W17498   1.237  16.320  13.692 -0.3089 -0.1736 -0.0014
 4085W        W17499   3.496   4.894  10.242 -0.0928 -0.1418  0.0938
 4086W        W17500  18.330  12.233  15.583  0.2863  0.0949 -0.0272
 4087W        W17501   8.770   8.197   2.679 -0.1631 -0.3671 -0.2928
 4088W        W17502  13.681  10.571   4.843 -0.2175 -0.0148  0.0753
 4089W        W17503  18.430  13.254   2.396  0.1983 -0.0430 -0.0956
 4090W        W17504  14.007  10.295   6.137  0.3496  0.1094 -0.2685
 4091W        W17505  17.949  13.719  14.439  0.0049  0.0110 -0.1672
 4092W        W17506  14.764   4.322  10.916 -0.1122 -0.0700 -0.1167
 4093W        W17507  14.195  16.263   2.869  0.0715 -0.0939  0.0078
 4094W        W17508  13.140   2.242  14.400 -0.2217 -0.4143 -0.3788
 4095W        W17509   3.763   5.746   2.434 -0.0650 -0.1917 -0.2712
 4096W        W17510  10.633   3.626   1.320 -0.2018 -0.1371  0.1562
 4097W        W17511  13.036   2.517   4.370  0.1170 -0.2229  0.0951
 4098W        W17512   5.776  10.800  15.994 -0.3666  0.3713  0.3655
 4099W        W17513   3.937   7.950  12.193  0.1615  0.2856 -0.1546
 4100W        W17514   6.834   6.317   3.973  0.0698  0.0099  0.1113
 4101W        W17515   4.183   1.870   4.872  0.1241 -0.0818  0.0032
 4102W        W17516  12.308   1.068  11.415  0.2259  0.2605  0.0347
 4103W        W17517   7.265  14.533  11.355 -0.0591  0.3949  0.0124
 4104W        W17518  15.908   2.583  12.184 -0.1086 -0.0715 -0.0012
 4105W        W17519   5.248   4.512  10.817 -0.1548 -0.0596  0.1039
 4106W        W17520   5.218   0.443  16.049  0.0843  0.0084 -0.0336
 4107W        W17521   2.618   4.837   0.374  0.1430  0.4083 -0.2623
 4108W        W17522  15.681  16.667   1.253 -0.0554 -0.2441  0.0471
 4109W        W17523   2.594  17.829   2.717 -0.1344 -0.0738 -0.0988
 4110W        W17524   9.099  18.169   2.447  0.2887 -0.2783 -0.0544
 4111W        W17525   2.059  17.740  11.574  0.0965 -0.0497 -0.0950
 4112W        W17526  10.191   4.055  15.132  0.0620 -0.0691  0.2464
 4113W        W17527   9.472   3.449   4.240 -0.0211  0.0377  0.1756
 4114W        W17528  10.057  16.417  13.594 -0.3123 -0.1056  0.1283
 4115W        W17529  17.329   3.343   3.341  0.1775 -0.0499 -0.0435
 4116W        W17530   2.183  16.021   0.566  0.1381  0.0415 -0.0026
 4117W        W17531   4.530   1.089   4.529 -0.1746 -0.1392 -0.2164
 4118W        W17532  12.654  11.598   3.087 -0.2964  0.2052 -0.3326
 4119W        W17533  11.476  18.376  10.405 -0.3255  0.2658 -0.2376
 4120W        W17534   0.419  13.780   3.760  0.1395 -0.0228 -0.0950
 4121W        W17535   1.281  14.291  13.546 -0.0867 -0.1362  0.3065
 4122W        W17536  17.947   7.129  11.624  0.1481  0.0711  0.1874
 4123W        W17537   6.445   1.688   0.847  0.2675 -0.0587 -0.0576
 4124W        W17538   1.505   2.952   3.007 -0.0634 -0.3218  0.1705
 4125W        W17539  15.678   5.623  15.659 -0.3756 -0.2814  0.1540
 4126W        W17540  10.553   6.479  10.942 -0.1281  0.1438  0.0297
 4127W        W17541  10.957  14.808   0.386 -0.0247 -0.5474  0.3618
 4128W        W17542  17.828   5.961   5.460 -0.0740  0.1180 -0.0191
 4129W        W17543  14.768   6.603   2.430  0.1776 -0.1622 -0.0896
 4130W        W17544  12.447   8.089   1.626 -0.1295  0.0936  0.0314
 4131W        W17545  14.821  15.571  11.005  0.0478 -0.1425  0.3127
 4132W        W17546  10.377   2.711  10.963  0.0247  0.0339 -0.1047
 4133W        W17547   9.560   0.496  13.934 -0.0977  0.0040 -0.5866
 4134W        W17548  15.236  10.374   2.081 -0.2200  0.0001 -0.2042
 4135W        W17549  18.392  17.731   5.598  0.2366 -0.1437 -0.2333
 4136W        W17550  11.123   2.973  11.871  0.3570  0.1167  0.1608
 4137W        W17551  10.836   5.082   1.255  0.1432 -0.4558  0.0570
 4138W        W17552  14.239   3.992   5.220 -0.3986  0.2507  0.3879
 4139W        W17553   4.174  10.124  15.750 -0.3188  0.0845 -0.1471
 4140W        W17554   4.735  12.697   4.306 -0.0841  0.3181 -0.0525
 4141W        W17555   1.534  13.963   4.193 -0.0317 -0.1863  0.3085
 4142W        W17556  14.867  12.933  10.496 -0.1763  0.0877 -0.1587
 4143W        W17557   3.920   2.904   4.588 -0.1634 -0.2226  0.1521
 4144W        W17558   0.561   6.157   4.608 -0.1216  0.5250  0.1635
 4145W        W17559   9.715   6.461   3.099  0.0964  0.0018 -0.1578
 4146W        W17560   2.154  18.108   1.504  0.0377  0.2101 -0.1082
 4147W        W17561  10.340  14.492  12.303 -0.0623 -0.2150 -0.0949
 4148W        W17562  14.240  11.501  13.708 -0.0581  0.0444  0.2361
 4149W        W17563   5.268  11.449  11.996  0.0640  0.1831  0.0071
 4150W        W17564   6.258   2.431   1.916 -0.2459  0.1144  0.2857
 4151W        W17565   5.921   5.416   2.412  0.1075  0.1877  0.1560
 4152W        W17566   7.700  13.959   1.581 -0.2713 -0.0477 -0.0637
 4153W        W17567   0.668  14.614  13.598  0.0382  0.3147 -0.1615
 4154W        W17568   0.358   8.491  15.892  0.1586  0.2753  0.0446
 4155W        W17569   4.133   5.116   4.203 -0.0515 -0.2357 -0.1822
 4156W        W17570   2.853   2.550   4.156  0.4247 -0.0609 -0.2287
 4157W        W17571  13.879   4.549   6.331 -0.0463 -0.2055 -0.1513
 4158W        W17572   7.286   3.220   2.130  0.1105  0.4303 -0.3202
 4159W        W17573  16.282  10.503  12.419 -0.0031  0.0769 -0.1843
 4160W        W17574   8.525   0.315   0.060  0.0403  0.1784  0.1935
 4161W        W17575   1.199   4.114   3.456 -0.3666  0.0306 -0.2477
 4162W        W17576   8.049   2.948   4.670  0.0273 -0.2819  0.2289
 4163W        W17577   3.598  10.553   3.034  0.1071  0.0004  0.2342
 4164W        W17578   2.723   9.872   1.740 -0.3383 -0.0248  0.2080
 4165W        W17579   9.749   5.031   2.796  0.1144 -0.1871  0.3897
 4166W        W17580  16.135   9.795   2.470 -0.0853  0.1727  0.0242
 4167W        W17581  14.869  11.587  10.184  0.2125 -0.0507  0.1165
 4168W        W17582  10.392  10.660  12.321 -0.1125 -0.0958  0.1705
 4169W        W17583   1.822   0.757   3.705 -0.1853 -0.2913  0.1354
 4170W        W17584   7.366  18.033  11.041 -0.2673  0.4027  0.4114
 4171W        W17585   8.067  10.548   3.844  0.0013 -0.1531  0.1554
 4172W        W17586   7.330   8.700  11.803  0.0691  0.0302 -0.0427
 4173W        W17587  13.587  17.060   0.596  0.0048  0.0812  0.1151
 4174W        W17588  14.053   2.795   0.157 -0.1153  0.2041 -0.1073
 4175W        W17589  13.061  15.304  15.327 -0.3346 -0.0058  0.0282
 4176W        W17590   9.198  10.233   2.086 -0.0816  0.1661  0.1687
 4177W        W17591   3.616  17.583   1.412  0.0964 -0.2811 -0.0100
 4178W        W17592   2.397   7.954   5.149 -0.2395  0.1735  0.3069
 4179W        W17593   5.304  15.397  10.426  0.0344 -0.2755  0.4544
 4180W        W17594   0.682  11.773   4.274 -0.2103  0.1604  0.2803
 4181W        W17595  17.602   6.449  13.448 -0.1040  0.0571 -0.0977
 4182W        W17596   9.054   7.304  13.318 -0.0707  0.2175  0.1561
 4183W        W17597  11.548  14.285   3.129  0.0545 -0.2515 -0.2075
 4184W        W17598  15.454  17.885   2.578 -0.0295  0.1078 -0.1127
 4185W        W17599  11.478  16.775   5.345 -0.0012  0.4507 -0.0152
 4186W        W17600  14.893  17.773   5.103 -0.0023  0.3779 -0.0249
 4187W        W17601   6.177   7.917  14.983  0.2317 -0.0147 -0.4186
 4188W        W17602   8.473  12.264  12.429  0.0493  0.0625  0.3900
 4189W        W17603  11.695  10.190  13.462 -0.1965  0.0690 -0.1730
 4190W        W17604   4.442   8.006   1.613 -0.1188  0.2059  0.0080
 4191W        W17605  14.080   2.783  10.677  0.0784 -0.0949 -0.2667
 4192W        W17606  16.027  17.937   5.349  0.3432  0.3709 -0.2648
 4193W        W17607   4.671  13.537   0.689  0.2479  0.2500 -0.0191
 4194W        W17608   8.693   7.550  11.552  0.2293 -0.1303 -0.0059
 4195W        W17609  12.032   6.756   0.473 -0.0571  0.3602  0.0627
 4196W        W17610   1.707  16.444   3.157 -0.0935 -0.0555 -0.0958
 4197W        W17611   8.043  15.218   5.174 -0.0792 -0.2758  0.0761
 4198W        W17612  13.447  14.915   3.122 -0.1185  0.0986 -0.0697
 4199W        W17613   7.483  15.735  11.085 -0.1815 -0.3579 -0.0600
 4200W        W17614  17.318   9.643  14.876 -0.2390  0.1796 -0.2195
 4201W        W17615   7.984   4.269   2.170  0.0801  0.2027  0.0845
 4202W        W17616  13.003   3.795  12.310  0.0143 -0.0041 -0.0563
 4203W        W17617   0.780  12.749   3.017 -0.2172 -0.1354  0.1225
 4204W        W17618  15.816  15.044  10.342  0.0937  0.0085  0.1220
 4205W        W17619   8.987   0.573  15.460  0.3420 -0.0096  0.1097
 4206W        W17620  12.949   3.896  14.368  0.3615  0.1207  0.0629
 4207W        W17621   7.767   7.471  13.973  0.2423  0.0076  0.3365
 4208W        W17622   4.287   7.016   0.574  0.2736  0.0165  0.0088
 4209W        W17623  10.804  16.269   2.594  0.0945 -0.0639 -0.0769
 4210W        W17624   1.429   4.339  15.493 -0.0605 -0.0422 -0.1959
 4211W        W17625  17.705   4.803  15.105 -0.1061  0.1485 -0.0960
 4212W        W17626  10.496   7.903   5.608 -0.0805  0.1835  0.4055
 4213W        W17627  16.714  12.417  14.777  0.0543 -0.1762 -0.0436
 4214W        W17628   6.933   3.967  15.636  0.0850  0.1601 -0.0350
 4215W        W17629   6.148   6.751   5.238  0.2816 -0.2624  0.0376
 4216W        W17630   1.032   9.885  11.262  0.0651 -0.1801  0.0928
 4217W        W17631  16.106   0.072  12.784 -0.1454 -0.0484  0.2853
 4218W        W17632  11.468  10.971   3.146  0.1216 -0.2142 -0.1567
 4219W        W17633  17.216  11.595  14.338 -0.0871 -0.1124 -0.1453
 4220W        W17634   7.325   1.032  14.739 -0.1106 -0.0765  0.2250
 4221W        W17635   4.985   1.387   3.221  0.0919  0.0430  0.1081
 4222W        W17636   8.198   5.368   1.225  0.1931  0.1625  0.2329
 4223W        W17637  11.447   2.159   4.213 -0.0456 -0.0384 -0.1147
 4224W        W17638   9.055   0.174   2.254 -0.1541 -0.0794 -0.2112
 4225W        W17639  12.198  13.829  13.552 -0.1218  0.2610 -0.0238
 4226W        W17640   4.241   5.211   4.859  0.0128 -0.2114 -0.3552
 4227W        W17641   9.370   4.486   1.046 -0.1203 -0.2069  0.3836
 4228W        W17642   1.424   1.477   5.898  0.0787 -0.0748 -0.0599
 4229W        W17643  16.620   3.794   1.820 -0.3167  0.0642 -0.3189
 4230W        W17644   8.045  13.155  13.006  0.0118 -0.1519 -0.0176
 4231W        W17645   2.742  11.368  11.932 -0.0545  0.3431 -0.0801
 4232W        W17646  14.885   0.757   2.103 -0.0285  0.0643  0.0560
 4233W        W17647   0.384   6.575  12.705  0.1397 -0.0802 -0.1729
 4234W        W17648  16.703   4.350   5.228 -0.2191  0.0159 -0.3473
 4235W        W17649  18.244   6.250   3.689  0.0640  0.0539  0.1277
 4236W        W17650   3.873  10.234   0.135  0.0537  0.1311 -0.2162
 4237W        W17651   2.502   5.228  14.390  0.0093  0.3382 -0.1608
 4238W        W17652   8.621   0.241   4.133  0.0237 -0.1592 -0.0793
 4239W        W17653  12.082   0.848   2.135  0.5012  0.0213 -0.1424
 4240W        W17654  14.207   4.446  13.870  0.0517  0.0580 -0.2631
 4241W        W17655  12.905   2.175   5.410 -0.1253 -0.0027  0.0553
 4242W        W17656   3.048  18.283  13.035  0.2645  0.2064  0.2311
 4243W        W17657   9.295   8.260  11.102  0.4371  0.1362  0.1043
 4244W        W17658  12.975  16.795  11.613 -0.1242 -0.1643 -0.1079
 4245W        W17659  12.189   0.921   0.626 -0.1007 -0.2169 -0.2205
 4246W        W17660  17.371  15.955  12.034 -0.0496  0.0694 -0.0014
 4247W        W17661   5.205   5.923   4.223 -0.0600 -0.2866  0.0784
 4248W        W17662   9.229  10.069   5.088  0.1903 -0.0248  0.3618
 4249W        W17663   8.659  13.361  11.656  0.1094  0.2375  0.3041
 4250W        W17664   2.826   5.872   2.625  0.0731 -0.0222  0.2360
 4251W        W17665  17.107   1.925  12.184 -0.0006  0.1315  0.0491
 4252W        W17666  11.425  11.697  12.386 -0.0312 -0.3404 -0.2353
 4253W        W17667  13.012  10.629  14.920  0.1915  0.0733 -0.0403
 4254W        W17668  17.674  10.570   0.551  0.3413  0.0598 -0.0054
 4255W        W17669   5.330  11.417   1.497 -0.1898 -0.1466  0.3442
 4256W        W17670   8.353  12.821  15.119 -0.2313 -0.1228  0.0030
 4257W        W17671   3.665  12.711  14.027 -0.0516 -0.0103  0.0587
 4258W        W17672   0.040   6.020  11.877  0.1607  0.1347  0.1550
 4259W        W17673  10.142   2.411  14.298  0.2545  0.0390  0.1623
 4260W        W17674  12.122   8.470  13.022 -0.3212 -0.5066  0.0756
 4261W        W17675   8.378   3.406  10.463 -0.1466  0.2382 -0.5321
 4262W        W17676  10.479  12.989  13.106 -0.0808 -0.1209 -0.1125
 4263W        W17677   2.792  15.332   2.653 -0.3162  0.1534 -0.0075
 4264W        W17678  11.462  14.052   4.857 -0.1352  0.2200 -0.0500
 4265W        W17679   8.581   1.916  12.930  0.1624 -0.0610  0.0635
 4266W        W17680   7.516  14.429   1.557 -0.2261  0.1665 -0.1332
 4267W        W17681   2.909   0.516   0.553 -0.0009 -0.0407 -0.0621
 4268W        W17682   3.259   9.121  11.827 -0.3868 -0.2976  0.0940
 4269W        W17683  15.913  17.485   4.442  0.0808  0.1637 -0.1994
 4270W        W17684   1.281   4.480   0.611 -0.1149  0.4589 -0.2876
 4271W        W17685   0.731   3.356  12.594 -0.0654  0.2436  0.0454
 4272W        W17686   3.289   1.311   0.706  0.0321  0.1526 -0.0147
 4273W        W17687  11.651   9.395  11.778  0.1388 -0.2271  0.0747
 4274W        W17688   5.648   8.443  15.312 -0.0009  0.3605  0.1852
 4275W        W17689  11.679   8.735  15.508  0.0227  0.0728 -0.0920
 4276W        W17690  12.984  14.203  10.865  0.4049 -0.0616  0.1526
 4277W        W17691  18.434  12.423   2.234 -0.2124  0.1916 -0.1378
 4278W        W17692   7.790   3.674  11.900  0.2077  0.0894  0.0902
 4279W        W17693   9.031   9.637   5.319 -0.3848  0.0194  0.1124
 4280W        W17694   4.891   5.927   5.415 -0.1522 -0.0149  0.0538
 4281W        W17695   7.207  16.767  13.052 -0.2044 -0.0312  0.2750
 4282W        W17696   5.836  13.868  10.227  0.0653 -0.0977 -0.2040
 4283W        W17697   7.562   4.480  11.220 -0.1178  0.1952 -0.6062
 4284W        W17698   1.761  10.778   6.347 -0.0348  0.1366  0.0613
 4285W        W17699  12.107  14.360   0.338 -0.0821  0.2572 -0.1456
 4286W        W17700  11.259   4.152  11.405 -0.0969 -0.5337 -0.0650
 4287W        W17701  14.002   1.513   3.182 -0.1704 -0.0651 -0.1657
 4288W        W17702  12.515   5.980   3.202  0.2192 -0.1282  0.0562
 4289W        W17703   1.633  16.100  16.265 -0.1831  0.2327  0.3251
 4290W        W17704   8.629  10.656  13.350  0.2322 -0.0741  0.0518
 4291W        W17705   1.488  16.599   0.808  0.2683  0.2447 -0.4353
 4292W        W17706  14.234  13.425  12.533  0.0343  0.0746 -0.2047
 4293W        W17707   7.364  16.969  14.546  0.1618  0.3034  0.0394
 4294W        W17708   2.482   4.804   6.087  0.0121 -0.1117 -0.2053
 4295W        W17709  14.771   3.509   6.341  0.1932  0.0077  0.4403
 4296W        W17710  10.772  12.678   3.518 -0.0137 -0.1729  0.1799
 4297W        W17711  17.312   9.651  11.139  0.2260  0.2451 -0.0712
 4298W        W17712   4.230   0.043  10.850  0.1081  0.1663 -0.1656
 4299W        W17713   9.149  13.570  16.233  0.0895  0.0663  0.0331
 4300W        W17714  14.478  14.348  11.243 -0.1008 -0.0932 -0.0228
 4301W        W17715   8.010   3.065   3.862  0.1372 -0.2180  0.0776
 4302W        W17716   4.076   3.521   4.567  0.0270 -0.3628  0.2070
 4303W        W17717   4.333  13.310  11.056 -0.2632 -0.2808 -0.2671
 4304W        W17718  16.748  10.062   0.714 -0.0934 -0.0902 -0.0434
 4305W        W17719   7.353   5.510  13.959 -0.0640 -0.0378 -0.2832
 4306W        W17720  11.860   7.836  15.268 -0.2226  0.1513 -0.5357
 4307W        W17721   3.408  11.956   6.229 -0.0392  0.2831  0.0854
 4308W        W17722   0.183   7.976   2.478 -0.0265  0.2317  0.1053
 4309W        W17723   7.364   5.635  14.462 -0.3154  0.5168  0.0430
 4310W        W17724  11.098   9.084   0.872  0.0099 -0.2700  0.4976
 4311W        W17725   6.106   0.769   0.447  0.1574 -0.1621  0.0197
 4312W        W17726  15.553  17.405   2.592  0.0498 -0.3758  0.2174
 4313W        W17727   3.047   7.019   3.195  0.1583 -0.3162  0.0692
 4314W        W17728   3.582  14.159   2.032  0.1546  0.1570  0.1120
 4315W        W17729   4.692   7.730   2.547  0.1690  0.3427 -0.2448
 4316W        W17730  15.174   4.370  15.558  0.0406 -0.1041 -0.0350
 4317W        W17731   6.384  11.201  16.219  0.2077 -0.0377  0.0036
 4318W        W17732  16.438   7.802   3.505  0.2089 -0.1036  0.0835
 4319W        W17733   9.944  14.714  15.132 -0.1388  0.0151 -0.2202
 4320W        W17734  14.228  11.946  16.265  0.1543 -0.0504 -0.5332
 4321W        W17735   0.680  17.849   2.640  0.4118  0.4551 -0.0684
 4322W        W17736   1.684   9.555  14.435  0.1783 -0.0503 -0.1912
 4323W        W17737  13.445   5.416  11.430 -0.3870  0.0006  0.0202
 4324W        W17738  12.484   5.792  14.328  0.1591  0.0499 -0.0278
 4325W        W17739   1.813   6.469   5.489  0.1033  0.0180 -0.2830
 4326W        W17740  17.109  10.504   2.352  0.0488 -0.2473 -0.0690
 4327W        W17741   1.206   5.170  11.445  0.1394  0.1090 -0.0746
 4328W        W17742  15.645   3.851   2.183 -0.1552  0.1821 -0.1651
 4329W        W17743   3.025   4.786  12.673  0.2714  0.1774 -0.0150
 4330W        W17744  11.265  15.332  13.006  0.0673  0.0488 -0.0266
 4331W        W17745   8.797   4.144   0.264  0.0061 -0.0046 -0.0017
 4332W        W17746   8.027  13.621   4.075  0.1487 -0.3910  0.1074
 4333W        W17747   8.967  13.695  13.435  0.1843  0.0884  0.0008
 4334W        W17748   7.030   6.211   0.361 -0.1275  0.1552 -0.0735
 4335W        W17749  10.267   7.116  14.989 -0.3483  0.1307 -0.0748
 4336W        W17750   5.407   4.169  13.070 -0.0826  0.4310  0.0662
 4337W        W17751   7.946   4.243   3.274  0.1098 -0.2533 -0.3019
 4338W        W17752  11.498   9.434  13.928 -0.0919 -0.0193 -0.0071
 4339W        W17753  12.710   9.856   4.060 -0.1619  0.0407 -0.0187
 4340W        W17754   7.532   3.553   0.729  0.4343 -0.0185  0.3382
 4341W        W17755   2.593   8.299   5.452  0.0463  0.0758  0.1490
 4342W        W17756   8.346  11.826   4.653  0.0087 -0.0188 -0.2913
 4343W        W17757  13.623   0.381  16.230  0.4179  0.3082 -0.2180
 4344W        W17758   0.114   0.982  15.980  0.0682 -0.3200  0.0073
 4345W        W17759  17.154   3.849  11.191 -0.0248  0.0181 -0.0969
 4346W        W17760  14.354  10.833  12.492  0.0366  0.1246 -0.0682
 4347W        W17761  16.947   9.678  15.201  0.1391  0.0758 -0.2752
 4348W        W17762   0.721  12.774  12.456  0.2938 -0.3328  0.0623
 4349W        W17763  15.432   7.864  15.433  0.1032  0.2673  0.4996
 4350W        W17764  14.825  17.670  12.249  0.0792  0.1789 -0.1021
 4351W        W17765  15.289   5.415   1.214 -0.2049 -0.1145 -0.1586
 4352W        W17766   2.981   2.785  11.098 -0.2758  0.1425 -0.0467
 4353W        W17767   7.355   7.284   1.593  0.1527  0.4221 -0.0035
 4354W        W17768  12.372   8.503   3.711  0.0400 -0.2982  0.2287
 4355W        W17769   6.203   3.444   4.018  0.2252  0.0030  0.1043
 4356W        W17770   1.049   0.637  12.580 -0.2217  0.2046  0.0632
 4357W        W17771   9.390   8.751  10.292 -0.2172  0.1207 -0.3786
 4358W        W17772  17.235   0.258   2.872 -0.0044 -0.0470 -0.0877
 4359W        W17773  15.299  13.224  14.299 -0.1075 -0.1019 -0.1867
 4360W        W17774   3.605   4.095  13.114  0.1714  0.0903 -0.1660
 4361W        W17775  13.741  16.332  16.154  0.0552 -0.1368  0.2444
 4362W        W17776   6.949   5.631   5.049  0.1675 -0.1808  0.1422
 4363W        W17777  13.244  11.055  13.454  0.2553 -0.1750 -0.1691
 4364W        W17778   1.232  16.491   0.436 -0.0361 -0.2152  0.1342
 4365W        W17779  13.261  15.688   1.550  0.0671  0.4391 -0.0091
 4366W        W17780   8.362   2.917  15.945  0.1286  0.1819 -0.0894
 4367W        W17781   6.218   0.740  12.323 -0.0829  0.0541  0.0248
 4368W        W17782   8.377  16.228   0.957  0.0566 -0.0102 -0.0914
 4369W        W17783   4.585  16.916   0.815  0.3762 -0.4494 -0.3250
 4370W        W17784   5.724   4.925   1.306  0.1579  0.1346  0.3994
 4371W        W17785   0.285   0.909   5.521  0.1521 -0.1351 -0.0189
 4372W        W17786  16.233   5.161  10.852 -0.1814 -0.2414  0.2032
 4373W        W17787  10.333   8.147  11.925 -0.2138 -0.1062 -0.0968
 4374W        W17788  11.594  10.573   4.202 -0.0685  0.1733  0.0231
 4375W        W17789  16.935  17.669   5.280 -0.0781  0.0096  0.2648
 4376W        W17790  17.796   4.708   4.697  0.1964 -0.0577 -0.2132
 4377W        W17791  15.297   4.404  12.173 -0.0350 -0.1350 -0.0110
 4378W        W17792   4.117   9.504   5.772 -0.0419 -0.0972 -0.1664
 4379W        W17793  15.776   8.135  14.979 -0.2066  0.0168 -0.0545
 4380W        W17794  16.260  17.040  12.479  0.1390 -0.2462 -0.1305
 4381W        W17795  12.888  13.828   3.672  0.0724  0.1678  0.0219
 4382W        W17796   4.005  15.475  12.113  0.4112  0.0773  0.1132
 4383W        W17797   9.558   4.722  15.310 -0.1589 -0.1670 -0.0398
 4384W        W17798   8.238   8.087   3.892  0.0014  0.1001 -0.1394
 4385W        W17799  11.621  17.854   2.797  0.2366 -0.2002 -0.0634
 4386W        W17800  11.274   9.010  11.883 -0.1935 -0.1747 -0.0088
 4387W        W17801  13.035  16.073  15.735 -0.0919 -0.1659 -0.3285
 4388W        W17802   2.969   3.899  15.940 -0.1117  0.1046  0.0177
 4389W        W17803  17.934  16.840   0.935  0.3212  0.3293  0.0844
 4390W        W17804  12.585   2.139  14.193 -0.5494  0.1594  0.1022
 4391W        W17805   2.818   3.208   0.359 -0.2201 -0.2657  0.1001
 4392W        W17806  18.034   3.259  12.690  0.0463 -0.2291  0.2027
 4393W        W17807   7.646   5.582   5.905 -0.0705  0.0797  0.0178
 4394W        W17808   7.321  12.298  14.505  0.1380 -0.2247 -0.1377
 4395W        W17809   3.684   9.454  14.531  0.1583 -0.0507  0.0782
 4396W        W17810   8.140   7.140  12.837  0.0721 -0.1531  0.1204
 4397W        W17811  13.826  15.008  10.493 -0.1639  0.0747  0.2757
 4398W        W17812   7.125   6.059   2.383  0.0250  0.0420  0.1347
 4399W        W17813   6.715   5.044  13.187 -0.1589 -0.1496  0.2808
 4400W        W17814   7.885   6.606  10.952  0.0932 -0.2405  0.2209
 4401W        W17815   3.104   4.282   1.428 -0.1057 -0.1433  0.0087
 4402W        W17816   2.271   1.177  10.800 -0.0405 -0.3682  0.3663
 4403W        W17817  13.554   9.012  15.724  0.0303  0.1871 -0.0869
 4404W        W17818  14.043   6.554   3.963  0.1573 -0.2081 -0.0861
 4405W        W17819   3.268  10.950  13.101  0.1891  0.0150  0.4042
 4406W        W17820   6.938  17.003  10.799  0.1048  0.0410 -0.1731
 4407W        W17821   5.155  16.312  12.908 -0.1628  0.2081 -0.0159
 4408W        W17822  17.238   6.228   1.481 -0.2122 -0.2891  0.0513
 4409W        W17823   8.492  16.314   4.424 -0.0158 -0.0054  0.0474
 4410W        W17824  11.120   7.187   6.210 -0.3186 -0.0392  0.1708
 4411W        W17825  14.558  17.371   3.294 -0.0670 -0.2719 -0.0982
 4412W        W17826  11.739   8.067   1.659 -0.0684 -0.1363 -0.2333
 4413W        W17827  15.592   8.661  10.760  0.0295  0.3292 -0.1754
 4414W        W17828   5.444  15.068  13.399  0.1335 -0.2929 -0.3715
 4415W        W17829   9.404   8.525   4.613 -0.1504  0.0540 -0.0848
 4416W        W17830   5.448   4.346   6.158 -0.1419  0.1353  0.0496
 4417W        W17831  18.442  18.274  12.881 -0.0807 -0.1740 -0.2421
 4418W        W17832   1.295   6.507   1.858  0.0137 -0.0938  0.0231
 4419W        W17833   7.252   5.300  13.072  0.0600 -0.3402 -0.0772
 4420W        W17834   2.912  13.931  12.344 -0.2599 -0.1303 -0.2426
 4421W        W17835   8.888  15.831  15.728 -0.1261 -0.1578  0.3719
 4422W        W17836   5.254  17.721  15.500  0.0768  0.0842 -0.3630
 4423W        W17837   6.674  15.176  11.381  0.0355  0.1339  0.1559
 4424W        W17838   5.474  10.924   2.680  0.2742  0.2286 -0.2194
 4425W        W17839   5.218   2.448   2.890 -0.1452 -0.0045 -0.0732
 4426W        W17840   5.840   2.062  12.715 -0.0834  0.0564  0.0473
 4427W        W17841  16.007   8.975  11.490  0.2077  0.0559 -0.2092
 4428W        W17842  10.227  10.677  15.154  0.2877 -0.0125 -0.3266
 4429W        W17843  12.038  15.996   0.835  0.2121  0.2700  0.2693
 4430W        W17844   5.554  13.460  11.508  0.3925  0.1484 -0.0320
 4431W        W17845   1.125  16.471  13.247 -0.0214 -0.0219  0.0014
 4432W        W17846   3.077  17.335  11.490  0.0597 -0.0072 -0.0112
 4433W        W17847   4.098   2.689   6.187 -0.2868 -0.0233  0.1543
 4434W        W17848   0.063   0.717   0.815 -0.3265  0.4629  0.0627
 4435W        W17849  17.272   0.279  16.172  0.0925  0.3529  0.0954
 4436W        W17850   5.068  13.068  13.205  0.0381 -0.1822  0.2040
 4437W        W17851  11.031   0.251   9.591  0.0130  0.0614 -0.1605
 4438W        W17852  18.040   5.112  14.195  0.0710 -0.0018  0.2548
 4439W        W17853  12.542   6.725   3.579  0.2762  0.0235  0.0070
 4440W        W17854   6.606  15.094  14.354 -0.4611  0.0123 -0.0172
 4441W        W17855  12.824   2.795  14.594 -0.1014 -0.3764  0.0088
 4442W        W17856   3.929   3.403   5.516 -0.0722  0.1134  0.2220
 4443W        W17857   5.673  12.478   0.337  0.0032  0.1227  0.0585
 4444W        W17858  14.568  13.274  12.949 -0.1398  0.0824 -0.0861
 4445W        W17859   4.803  10.502  10.641 -0.2988  0.2175  0.1717
 4446W        W17860  17.622   0.029   4.591 -0.0004 -0.1432 -0.0407
 4447W        W17861   9.132   6.910  15.811 -0.0238  0.2205  0.1546
 4448W        W17862   5.799   0.490   2.950  0.0730  0.2120 -0.0953
 4449W        W17863  17.854   0.292   6.793  0.0866 -0.1478  0.0769
 4450W        W17864   6.187  11.097  12.873  0.2087 -0.1963 -0.2540
 4451W        W17865  11.213  13.514  15.338  0.1021  0.1581  0.3543
 4452W        W17866   9.999   0.542  12.786  0.3010  0.3268 -0.0923
 4453W        W17867   8.833   2.986  16.010  0.2262  0.3184 -0.1572
 4454W        W17868  14.912   3.000   4.319 -0.0740 -0.0628  0.0044
 4455W        W17869  14.580   2.338  11.445  0.1633  0.2139 -0.2210
 4456W        W17870  14.408   1.632   3.418  0.0130 -0.2136  0.1093
 4457W        W17871  13.651  14.171   3.922  0.3574  0.0517 -0.2513
 4458W        W17872  18.442   5.573  15.167  0.1547 -0.0213 -0.3018
 4459W        W17873   3.473  11.048   3.007 -0.2947  0.0118 -0.0627
 4460W        W17874   2.765   5.926  10.770 -0.3103 -0.3347 -0.1448
 4461W        W17875   9.351   5.675  13.139 -0.3571 -0.0133 -0.0849
 4462W        W17876  17.378   0.622  10.763  0.0922  0.1895 -0.1228
 4463W        W17877  18.234  15.408   5.888  0.0098 -0.0038 -0.2745
 4464W        W17878   2.266   8.051  14.617 -0.2167 -0.0448  0.0500
 4465W        W17879   3.869  15.877  15.339 -0.0417 -0.2967  0.0334
 4466W        W17880   8.220  10.655   5.405 -0.1561  0.0312  0.3459
 4467W        W17881   3.232   7.681  13.384  0.0945  0.1331  0.1234
 4468W        W17882   3.192  13.884   5.628  0.0177 -0.3024  0.0431
 4469W        W17883  12.725   1.823  13.351  0.1219 -0.0794 -0.0767
 4470W        W17884  15.297  13.098  12.871 -0.2207 -0.0026  0.1041
 4471W        W17885   1.260   1.384  12.038  0.1014 -0.1171 -0.2229
 4472W        W17886   9.247   9.521  11.116  0.0839  0.1627  0.1762
 4473W        W17887  18.123  16.374   0.164 -0.1312  0.0747 -0.1147
 4474W        W17888   6.391  12.379  12.250 -0.1051 -0.1053  0.2119
 4475W        W17889  11.412  12.400   3.512 -0.0301  0.0360 -0.2373
 4476W        W17890  17.704   9.551   1.182  0.0111  0.0432  0.0640
 4477W        W17891  15.966   8.872  15.694 -0.2393  0.4033 -0.3412
 4478W        W17892  10.990   7.872  11.104 -0.0133  0.0452 -0.1257
 4479W        W17893   0.438  11.372   4.023  0.2707 -0.0275  0.2208
 4480W        W17894   3.739  15.080   3.021  0.5453 -0.0765 -0.0568
 4481W        W17895   3.353  13.536   5.237  0.3065  0.0948 -0.1789
 4482W        W17896  18.280   1.031  15.396 -0.0877 -0.1904 -0.0860
 4483W        W17897   8.785   5.647  14.307 -0.1164 -0.4113 -0.1328
 4484W        W17898   5.137  14.529   1.681  0.1753  0.0317 -0.0280
 4485W        W17899  14.259  10.489   1.869 -0.1944 -0.3310 -0.0770
 4486W        W17900   9.866   0.011  11.392  0.3700 -0.0715  0.0734
 4487W        W17901  15.784   8.924   4.026 -0.1685 -0.0235 -0.1007
 4488W        W17902   9.256   8.222  11.802 -0.1778  0.1175  0.0975
 4489W        W17903  13.559   3.155   4.763 -0.1525  0.3005  0.1093
 4490W        W17904  12.604  14.612  14.846 -0.2914 -0.4501 -0.1738
 4491W        W17905  12.636  10.049  13.780 -0.1081  0.0998 -0.2027
 4492W        W17906  10.821   4.448  15.845 -0.0531  0.2808  0.1518
 4493W        W17907  13.188   3.209  11.145 -0.0163  0.0253 -0.0610
 4494W        W17908   2.667   9.421  13.491  0.2398 -0.0160 -0.1958
 4495W        W17909   2.889  12.252  14.708  0.2182  0.3160 -0.2330
 4496W        W17910  14.083   5.998   3.053 -0.2434 -0.2964  0.1501
 4497W        W17911   4.244   3.961   3.144  0.1189 -0.1858 -0.1744
 4498W        W17912  18.136  18.382  13.647 -0.1504 -0.2232  0.0823
 4499W        W17913   8.279   8.440  13.417 -0.1383  0.1538  0.2189
 4500W        W17914   2.956   1.036  12.539 -0.2441 -0.1098  0.0533
 4501W        W17915  13.222  18.383  12.455 -0.1606 -0.1920 -0.0253
 4502W        W17916   2.967   4.184   9.956  0.0208  0.1070 -0.1350
 4503W        W17917   4.577  16.516   4.497 -0.3561 -0.1047 -0.0996
 4504W        W17918  17.326   9.212  12.851  0.0493 -0.0669  0.4167
 4505W        W17919   4.981   7.637   0.184  0.3043 -0.2748  0.0947
 4506W        W17920  17.019  12.390  14.349 -0.0271 -0.2117 -0.4407
 4507W        W17921  17.638   5.067   1.270  0.2709  0.2595 -0.1986
 4508W        W17922   8.090   3.315  11.790  0.0146  0.2283  0.0109
 4509W        W17923  12.767   2.121  15.282 -0.0336 -0.2056 -0.0030
 4510W        W17924   9.711   4.637   4.989 -0.0740 -0.0946  0.0418
 4511W        W17925  12.097  14.841  10.847  0.1135  0.2934 -0.2653
 4512W        W17926   9.663   8.645  14.309  0.2439  0.1294 -0.0765
 4513W        W17927   3.457   4.989  14.566 -0.0395 -0.1036  0.1353
 4514W        W17928   0.572   7.834   4.116 -0.0331  0.2296 -0.4699
 4515W        W17929  17.523   3.831   2.324  0.1008 -0.0118 -0.5113
 4516W        W17930  14.880   4.347   2.179 -0.1061 -0.0765  0.1536
 4517W        W17931  16.776   5.536   1.238  0.1608  0.1012  0.2433
 4518W        W17932   6.842   7.448  14.672  0.0717  0.0828 -0.0704
 4519W        W17933   6.804  13.574   4.712 -0.3334 -0.0271  0.1917
 4520W        W17934   6.768  15.765   2.062 -0.3327  0.2236 -0.1198
 4521W        W17935  14.247  15.230   3.886 -0.3523 -0.1724  0.0051
 4522W        W17936   0.799  14.700   3.479 -0.2758  0.1726 -0.0871
 4523W        W17937   3.872  12.311   0.058  0.0548  0.3375 -0.1382
 4524W        W17938  16.702   0.609   2.069  0.0065  0.2723 -0.0410
 4525W        W17939   3.723  15.756  14.531 -0.1653  0.1426  0.0170
 4526W        W17940   6.252   7.508  11.501 -0.3868  0.0104  0.1836
 4527W        W17941  15.747  11.400  10.198  0.0973 -0.1456 -0.0461
 4528W        W17942   0.648   0.493   1.441  0.0219 -0.3904 -0.0713
 4529W        W17943  10.231   7.756  15.139  0.2826 -0.3686 -0.0740
 4530W        W17944  13.860  14.377  11.234  0.0052 -0.0034 -0.0810
 4531W        W17945   7.257   4.529  14.985 -0.1752  0.3418  0.1302
 4532W        W17946  11.209   4.757  14.502 -0.1527 -0.0834  0.0142
 4533W        W17947   6.546  13.991  12.886 -0.1639 -0.0163 -0.1032
 4534W        W17948   1.492  14.247   2.298 -0.2822 -0.1299  0.0946
 4535W        W17949   8.636   6.398   4.605  0.0713  0.1889  0.4111
 4536W        W17950   3.701   5.548   4.224 -0.2321  0.1840 -0.0777
 4537W        W17951   2.052  14.989  14.319  0.0263  0.1968  0.1141
 4538W        W17952   6.448  17.107   1.638 -0.0091 -0.1334 -0.0480
 4539W        W17953   4.406   1.842  10.594  0.0728 -0.0393 -0.3907
 4540W        W17954   0.940   5.293   5.171 -0.1192 -0.0985  0.3301
 4541W        W17955   7.798  18.287   1.258 -0.1228  0.4203  0.2653
 4542W        W17956   7.915   3.258   3.406 -0.0021  0.0813  0.1266
 4543W        W17957  16.508   6.903   4.582 -0.1855 -0.0969  0.7309
 4544W        W17958  17.015   7.909   0.748 -0.2263  0.3513  0.0812
 4545W        W17959   0.240   5.681  11.540 -0.0464  0.2020  0.1670
 4546W        W17960   4.911   3.070  12.206 -0.0743  0.0046  0.0735
 4547W        W17961  14.053   6.375  12.290 -0.1230 -0.3059  0.2335
 4548W        W17962  13.821   5.477   3.009 -0.0493 -0.1401 -0.1075
 4549W        W17963  17.937   8.411  14.702 -0.2632 -0.1282 -0.2979
 4550W        W17964   4.122  15.160   0.150 -0.2161  0.2873 -0.1797
 4551W        W17965  10.424  11.489   3.338  0.0868 -0.0315  0.2690
 4552W        W17966  12.831  12.946  11.682  0.1720 -0.0936  0.2936
 4553W        W17967   8.589   8.073  10.605 -0.1016 -0.0196 -0.1207
 4554W        W17968  11.053   0.941  15.405  0.0545  0.0078 -0.0190
 4555W        W17969   2.068  13.716  15.664 -0.0307 -0.0762 -0.0626
 4556W        W17970  15.450   4.841  15.887 -0.1983 -0.1799 -0.2581
 4557W        W17971   2.109   7.702  10.936  0.0686 -0.1940 -0.6124
 4558W        W17972   6.345   9.487  14.240 -0.1551  0.0518  0.2690
 4559W        W17973  16.662   7.170   0.153  0.2713  0.0258  0.3255
 4560W        W17974  17.155  16.418  13.875 -0.0032  0.0573 -0.0008
 4561W        W17975  16.272  10.744   2.975  0.1776 -0.0901 -0.0549
 4562W        W17976  18.258   5.256  12.359  0.1542  0.0198  0.0020
 4563W        W17977  10.530   6.170   5.517  0.2991  0.2951  0.0330
 4564W        W17978   5.962  12.576   1.378 -0.0407 -0.2596 -0.2015
 4565W        W17979   8.557   3.820   9.846 -0.0255 -0.0279  0.2116
 4566W        W17980   7.064  13.194  11.471 -0.0371  0.0644  0.0461
 4567W        W17981  10.749   3.349  11.960  0.2233 -0.0835  0.1657
 4568W        W17982   5.222  17.269  13.393  0.0107  0.1069  0.1654
 4569W        W17983  12.921  12.071  16.257  0.1857  0.1918 -0.1651
 4570W        W17984   9.614   9.865   2.741  0.0258 -0.2090 -0.0698
 4571W        W17985   9.776  14.520   1.777  0.1396 -0.0384  0.1442
 4572W        W17986   9.984  14.767   3.740 -0.1681  0.1233 -0.3022
 4573W        W17987  11.628  12.432  16.169  0.0377 -0.2967  0.0807
 4574W        W17988   9.290   2.825  14.774 -0.0694 -0.5869 -0.2066
 4575W        W17989   7.888   1.126  14.018  0.1773  0.0731  0.1848
 4576W        W17990   5.795  14.080   3.040  0.0854  0.1075  0.1874
 4577W        W17991  12.757   3.056   2.812 -0.3585 -0.2309 -0.1729
 4578W        W17992   7.896  14.754   1.403 -0.2136 -0.3947 -0.1178
 4579W        W17993  11.825  16.595  15.790  0.0746  0.0094  0.0826
 4580W        W17994  12.672  18.089  11.730 -0.0431 -0.1210 -0.1321
 4581W        W17995   2.441   7.097   5.774  0.1051  0.1143 -0.2684
 4582W        W17996   3.877   4.785   5.041 -0.2412  0.1937  0.3379
 4583W        W17997   4.685   1.978   5.432  0.2178 -0.1171  0.1911
 4584W        W17998   3.255   3.516   5.003  0.0168  0.1064 -0.0615
 4585W        W17999  11.188  14.364   4.084  0.0590  0.3796 -0.1161
 4586W        W18000  10.171   0.951  11.673 -0.1224  0.3898  0.2183
 4587W        W18001   3.069  17.333   4.201  0.1060 -0.2159 -0.1916
 4588W        W18002   5.955  18.007   0.145 -0.1412 -0.0868  0.0729
 4589W        W18003   4.495  13.801  14.245 -0.1461 -0.1773  0.0346
 4590W        W18004   8.248   9.154   0.684 -0.0125  0.1607 -0.0589
 4591W        W18005  17.740   7.213  13.795 -0.6688  0.0689  0.6456
 4592W        W18006  14.009   3.566   4.456 -0.2475 -0.2847 -0.0708
 4593W        W18007   3.523   7.013   1.912 -0.2097 -0.0403  0.2924
 4594W        W18008  14.500   4.316   4.568 -0.0592 -0.0443 -0.0097
 4595W        W18009  15.166  14.601  15.673  0.0925  0.2738  0.4739
 4596W        W18010  16.718   0.374  12.278  0.0363 -0.1282 -0.0368
 4597W        W18011   0.462   7.267  14.220 -0.0581 -0.0080  0.0439
 4598W        W18012   9.886   8.592   3.268 -0.1212  0.1704 -0.0258
 4599W        W18013   7.955   2.509  13.542  0.1960 -0.1370  0.0143
 4600W        W18014   2.132   8.498  12.471 -0.3819 -0.1043 -0.0255
 4601W        W18015   1.343   0.459  10.250  0.1018  0.1566 -0.3786
 4602W        W18016  14.999   3.567  12.810  0.1799  0.3643  0.1209
 4603W        W18017  14.781  14.542   0.127  0.3819 -0.3001 -0.1986
 4604W        W18018  17.540   5.336   0.733 -0.1352 -0.3652 -0.2464
 4605W        W18019  10.137   9.975   4.587 -0.2915  0.4118 -0.0511
 4606W        W18020   4.854   0.878   4.257 -0.2623  0.4076  0.1105
 4607W        W18021   4.735  10.090  10.963  0.2685  0.1308 -0.2146
 4608W        W18022  17.523  12.394   3.217 -0.0326  0.2761  0.1981
 4609W        W18023   6.333  15.546   1.503 -0.2868 -0.0642 -0.3780
 4610W        W18024   6.405   2.284  14.968 -0.0944 -0.0452  0.0032
 4611W        W18025   2.648   5.724   4.036  0.1388  0.2403 -0.1135
 4612W        W18026  10.534   0.240  11.959 -0.0055 -0.0125  0.2311
 4613W        W18027  16.832   4.676   1.368  0.1373  0.3499  0.1614
 4614W        W18028   3.271   3.245  13.037  0.1746  0.3437 -0.1641
 4615W        W18029   6.272  11.974  13.243 -0.0958  0.0077  0.2547
 4616W        W18030   3.063   4.590   0.171 -0.1696 -0.3358  0.1403
 4617W        W18031  13.143  12.386   3.402 -0.1414 -0.0925 -0.4009
 4618W        W18032   3.123   4.883   2.925  0.1655 -0.0602  0.1521
 4619W        W18033  17.287  18.425  11.517  0.2514  0.2283 -0.2534
 4620W        W18034   5.289  16.510   2.599 -0.3705 -0.0999  0.1625
 4621W        W18035   9.360  17.424   4.607 -0.1152  0.1455  0.2685
 4622W        W18036   0.395   1.781   5.553  0.2198 -0.2296  0.0302
 4623W        W18037   9.781  17.334   2.175  0.0304  0.1289  0.0472
 4624W        W18038  10.174   3.149   5.613  0.3892 -0.1018 -0.0147
 4625W        W18039  11.858  18.150  13.837 -0.1926  0.0505 -0.1139
 4626W        W18040   3.791   8.403  11.550 -0.1153  0.0345  0.1145
 4627W        W18041   8.669   9.779   6.122  0.0129 -0.2346  0.1749
 4628W        W18042  10.340   1.073   0.957  0.0245 -0.2147 -0.1634
 4629W        W18043  18.331   7.478  13.772  0.3510  0.0359 -0.1005
 4630W        W18044  16.503  15.866  15.415  0.0151  0.2838  0.0105
 4631W        W18045  10.008   2.047   4.835  0.5142  0.2475  0.1003
 4632W        W18046   3.066   2.584  12.536  0.0876  0.0025  0.0005
 4633W        W18047   9.821  10.685   6.258  0.1385 -0.0069  0.0154
 4634W        W18048   1.810  13.262  15.824  0.1620  0.1101 -0.0070
 4635W        W18049   3.488  10.854   4.604  0.4283 -0.2831  0.0175
 4636W        W18050   1.627  15.087   5.370  0.0192 -0.1116  0.1648
 4637W        W18051   0.513   1.387  10.839 -0.2888  0.2612  0.0084
 4638W        W18052   6.581  14.390   4.577 -0.0802 -0.0510  0.0045
 4639W        W18053  12.084   7.089  11.672 -0.0186  0.2915 -0.0822
 4640W        W18054   4.182   2.940   1.540  0.1516 -0.1468 -0.2872
 4641W        W18055  15.112   8.092   4.696  0.4070 -0.1694 -0.1842
 4642W        W18056  16.346  16.558   5.147 -0.1006  0.2885 -0.1165
 4643W        W18057  11.143  10.646   3.880  0.0026 -0.0231  0.5216
 4644W        W18058  16.766   2.045  11.529  0.0745  0.0367  0.0326
 4645W        W18059  10.631  15.584   4.572  0.2562 -0.4815  0.1419
 4646W        W18060  10.271   2.172  12.718  0.0987 -0.2030  0.2067
 4647W        W18061  11.049  17.082  15.525  0.1611  0.0378 -0.0131
 4648W        W18062   6.327   0.272  15.641  0.3324  0.1998  0.1040
 4649W        W18063  12.659  16.937  10.552 -0.0113 -0.1186 -0.3233
 4650W        W18064  10.103   9.488   1.374 -0.4859  0.0281 -0.4205
 4651W        W18065  12.067  16.941  14.541  0.4649  0.2998 -0.4253
 4652W        W18066   8.885  14.475   1.077  0.1084 -0.1825  0.2596
 4653W        W18067   5.156   8.040  16.158  0.1108 -0.0750  0.3013
 4654W        W18068   7.456  11.553  13.274  0.0838 -0.0450 -0.1105
 4655W        W18069  18.294  14.601   1.290  0.1505 -0.4245 -0.0402
 4656W        W18070   6.212   2.794  13.958 -0.0657  0.0073  0.0042
 4657W        W18071   3.866   3.940   4.014  0.2228  0.3355  0.0398
 4658W        W18072   8.123  11.739   2.292 -0.1361 -0.0594  0.4204
 4659W        W18073   4.528  16.782  12.347 -0.0728 -0.1138  0.0797
 4660W        W18074  18.136   5.558  10.858 -0.1221 -0.1487  0.1057
 4661W        W18075   6.799   6.239  12.808 -0.2538  0.0743 -0.0039
 4662W        W18076   3.250   3.992  15.415  0.1528  0.1494  0.2097
 4663W        W18077   4.783  10.342  11.917  0.2529 -0.1507 -0.1333
 4664W        W18078   5.718   6.016  14.283  0.2262 -0.1713  0.0526
 4665W        W18079   3.964  11.351   4.524  0.0586  0.1443 -0.0456
 4666W        W18080   0.607   6.925   4.359 -0.2662 -0.0464  0.3523
 4667W        W18081   8.901   2.392   4.557  0.1324  0.2028 -0.1475
 4668W        W18082   5.908  14.607  15.567  0.0518  0.0776 -0.1969
 4669W        W18083   6.249  12.636  10.030  0.0488 -0.0003 -0.2392
 4670W        W18084  14.470  11.885  15.345  0.0710  0.0509 -0.1369
 4671W        W18085  12.804  12.477   3.055  0.1972 -0.3052  0.2757
 4672W        W18086  12.467  17.376   4.563  0.1902 -0.0986  0.1154
 4673W        W18087   3.724  17.490  13.364  0.3501  0.2095  0.1161
 4674W        W18088  11.720  15.987   2.861  0.1216  0.1558  0.0211
 4675W        W18089  10.512  17.883   4.432  0.0945 -0.0743  0.0768
 4676W        W18090  15.499  11.617  13.868 -0.3754 -0.0309  0.1665
 4677W        W18091   5.445  12.583  13.412  0.0763 -0.2590  0.1156
 4678W        W18092   4.535  17.812  13.720 -0.0106  0.1958 -0.0792
 4679W        W18093   1.141   3.946  11.170 -0.0968  0.1933 -0.0382
 4680W        W18094   1.319  13.787   2.420 -0.0696  0.2546  0.0476
 4681W        W18095  14.412  17.653   1.820  0.2286  0.1591 -0.0823
 4682W        W18096  17.604   2.039  12.650  0.1898  0.1918 -0.1723
 4683W        W18097   8.904   5.262   2.046 -0.1995  0.1462  0.0199
 4684W        W18098  12.193   2.528  11.940  0.0374 -0.1302 -0.1121
 4685W        W18099  17.406   7.563  12.420 -0.0115 -0.2589 -0.1362
 4686W        W18100  14.398   1.229  13.572  0.1307 -0.1932  0.1075
 4687W        W18101   8.770   6.784  12.031  0.1347 -0.1443  0.1455
 4688W        W18102   2.622   0.380   2.624 -0.0390  0.2001  0.1365
 4689W        W18103  17.484   5.668  12.733  0.1275  0.1289  0.1045
 4690W        W18104   4.697   9.244  14.207 -0.0790  0.0409  0.2117
 4691W        W18105   5.596  11.716  14.306 -0.1251 -0.2900 -0.0161
 4692W        W18106   0.862  12.011   2.428  0.2938  0.0231  0.0337
 4693W        W18107   2.551  10.572   9.972 -0.2022 -0.0062  0.0332
 4694W        W18108  13.349   6.089   3.471 -0.2206  0.2587 -0.0815
 4695W        W18109   3.535   9.642  11.744 -0.1679 -0.1414 -0.2096
 4696W        W18110  17.213   9.285  10.768  0.1853 -0.0745 -0.0219
 4697W        W18111  15.588  16.099  15.686 -0.0085  0.1452  0.3185
 4698W        W18112  11.129  14.777  10.665  0.0266  0.1213  0.4118
 4699W        W18113  12.190   4.277   1.415 -0.4489  0.1021  0.0639
 4700W        W18114   5.377   7.630   2.613 -0.2138 -0.2714 -0.0189
 4701W        W18115   4.636   0.131   4.102  0.1217  0.0513 -0.0965
 4702W        W18116   2.153   8.828   6.011 -0.2190 -0.0220  0.2471
 4703W        W18117  17.276   4.084  14.003  0.0476 -0.0247 -0.1642
 4704W        W18118  17.913  10.343   4.857 -0.3241 -0.0511  0.1223
 4705W        W18119   3.568   8.314   0.103 -0.1842 -0.0423  0.0835
 4706W        W18120  15.942  16.767   0.198  0.0781 -0.2338  0.0832
 4707W        W18121   9.395  15.908   0.782  0.1348 -0.0316 -0.0536
 4708W        W18122   1.870   7.333   4.612  0.0392  0.0277  0.1493
 4709W        W18123   7.625  14.110  13.887  0.1352 -0.1403 -0.1308
 4710W        W18124   0.458   0.499   1.953  0.0243 -0.3782  0.2080
 4711W        W18125  15.035  12.043   0.719 -0.0589 -0.1119  0.1864
 4712W        W18126   3.487   7.770  10.516 -0.2768  0.0853  0.4490
 4713W        W18127   6.323   5.191  10.430 -0.0577 -0.1876  0.1982
 4714W        W18128   1.548  17.920  11.696 -0.0576  0.1920  0.3009
 4715W        W18129   6.151   6.905  12.946  0.1717 -0.1535  0.0733
 4716W        W18130  18.007  14.302   5.324  0.0558 -0.1850  0.1011
 4717W        W18131   2.530  17.951  16.193  0.2114 -0.0675 -0.0815
 4718W        W18132  12.415  12.450   3.454 -0.0415  0.2571 -0.0829
 4719W        W18133  16.124   2.908  16.039 -0.1245  0.1048 -0.1194
 4720W        W18134   4.848   0.605   5.857  0.0814  0.0677 -0.0184
 4721W        W18135   3.323   2.395  12.891  0.0990 -0.0819  0.1984
 4722W        W18136   1.908   7.392  12.008  0.1159 -0.1587 -0.2015
 4723W        W18137  17.115   9.064   3.369 -0.4364  0.1079 -0.2126
 4724W        W18138  12.235   8.598  14.828 -0.1813  0.0444  0.2076
 4725W        W18139   4.421   1.528  12.433 -0.1963 -0.1775  0.2441
 4726W        W18140  15.146   4.951   5.024  0.1007 -0.2395 -0.0336
 4727W        W18141   0.292  16.941   6.528  0.1640 -0.0518 -0.2832
 4728W        W18142  15.278   7.269   5.629  0.0683 -0.0817  0.0703
 4729W        W18143   2.389   9.669  15.707  0.2552 -0.0603 -0.1876
 4730W        W18144   2.227  11.887  15.816  0.2470  0.2067  0.0308
 4731W        W18145  10.742   2.757  12.082  0.1154  0.0366  0.0998
 4732W        W18146  10.746  14.478  10.550 -0.1120 -0.1540 -0.2979
 4733W        W18147   7.116  15.408   4.836 -0.1884  0.0832 -0.0942
 4734W        W18148   8.023   0.016  12.681 -0.2152 -0.2447  0.2971
 4735W        W18149  16.873  17.651  14.738 -0.0357 -0.1054  0.0094
 4736W        W18150   2.514  12.722  12.369  0.1254 -0.1642  0.4321
 4737W        W18151  11.218   6.371   3.285  0.2528 -0.0374 -0.1646
 4738W        W18152   7.174  15.134   0.880  0.0676  0.0574  0.3869
 4739W        W18153   4.861   7.663   5.267 -0.0499 -0.2077  0.0174
 4740W        W18154  11.365  15.072  11.894 -0.0935  0.1334 -0.0041
 4741W        W18155   4.918   8.174   3.794 -0.3057 -0.0824 -0.0969
 4742W        W18156  15.457   9.830  12.383  0.0779 -0.0773  0.0390
 4743W        W18157  11.714   4.725  14.046  0.2028  0.1896 -0.2194
 4744W        W18158   1.434  17.098   2.588  0.0557 -0.0793 -0.2527
 4745W        W18159   0.698  12.245  12.399  0.1881 -0.0292  0.5405
 4746W        W18160   7.354  10.039   4.598 -0.1248 -0.1722 -0.1038
 4747W        W18161   2.429  18.229  15.665 -0.0950  0.0574 -0.2090
 4748W        W18162   7.648   5.063  12.802  0.1897 -0.1392 -0.1158
 4749W        W18163   0.860   2.253   2.691 -0.2309 -0.0734 -0.1195
 4750W        W18164  11.459   1.130  15.757 -0.0178  0.3999  0.0184
 4751W        W18165  14.870   4.086  15.901 -0.0016  0.1794  0.0102
 4752W        W18166  16.783   7.841   5.718 -0.1060  0.2959 -0.0667
 4753W        W18167   8.180   5.209   0.006 -0.0436 -0.0996 -0.2265
 4754W        W18168   0.093  10.896  14.837 -0.0141 -0.1315  0.2125
 4755W        W18169   1.967  16.889  10.905 -0.0961  0.3627  0.2913
 4756W        W18170  13.185  14.416  15.520  0.2756 -0.2919 -0.0978
 4757W        W18171  17.832  18.421  16.259 -0.1317 -0.1999  0.1116
 4758W        W18172  11.092   5.952  15.777 -0.1126  0.4455  0.0169
 4759W        W18173  15.648  18.197   5.609  0.1013  0.1838  0.0448
 4760W        W18174   0.882   9.397  11.813  0.0917 -0.0101 -0.1449
 4761W        W18175   3.799  18.028  13.472  0.3038 -0.1923 -0.1080
 4762W        W18176  16.736  10.210   4.939 -0.0473 -0.1802  0.0512
 4763W        W18177   8.175  13.823  16.003 -0.0363 -0.1127 -0.0721
 4764W        W18178  13.305   1.821  11.207 -0.1851 -0.0378 -0.0605
 4765W        W18179   3.833   4.266   3.110  0.1087 -0.1477 -0.3142
 4766W        W18180   0.833  12.338  13.483  0.0759  0.1657  0.1502
 4767W        W18181  16.142   6.014  11.723  0.2388 -0.0647 -0.0741
 4768W        W18182   0.880  11.389  15.989  0.0371 -0.2235 -0.1362
 4769W        W18183  11.033  16.844   1.263  0.4444  0.0811 -0.2421
 4770W        W18184   3.670  16.339  15.640 -0.2054  0.0912 -0.2584
 4771W        W18185   1.649   5.532  12.941  0.0350 -0.1009 -0.1075
 4772W        W18186  15.019  16.504  15.552  0.2110 -0.1694 -0.2315
 4773W        W18187   9.152  11.729  10.316  0.2765 -0.2414  0.0857
 4774W        W18188   1.266  12.170   0.118 -0.1338  0.3011 -0.2930
 4775W        W18189  11.057   6.787  13.801 -0.0897  0.2033 -0.0079
 4776W        W18190   2.982   1.898  11.391 -0.1386 -0.1158 -0.0050
 4777W        W18191  16.894   1.041   1.740  0.1863  0.1921  0.0883
 4778W        W18192  10.091   7.642   5.497 -0.2444  0.3017 -0.1529
 4779W        W18193  10.766   2.687  11.605  0.3394  0.0223 -0.0610
 4780W        W18194  15.702   5.542   0.431 -0.0228 -0.0228  0.1173
 4781W        W18195   0.199  11.302  13.524  0.1174  0.0103  0.0724
 4782W        W18196   7.342   6.551   4.232 -0.1779 -0.2616 -0.1427
 4783W        W18197  16.420  11.542   6.067  0.0859  0.3819  0.1034
 4784W        W18198  13.530  17.827  11.049  0.3117  0.2216  0.2507
 4785W        W18199   4.322  16.449   5.935  0.3694  0.2864 -0.0332
 4786W        W18200  18.410   1.953   5.668  0.0033 -0.2976  0.0600
 4787W        W18201   3.474  14.952   2.541  0.0035 -0.0527 -0.3509
 4788W        W18202   5.385   4.846   6.117  0.1514  0.1780 -0.0092
 4789W        W18203   2.751   9.584   1.378 -0.2832 -0.0799  0.0688
 4790W        W18204   2.801   7.985   2.034  0.0186 -0.0932  0.0470
 4791W        W18205  13.026   5.484   4.221  0.1144 -0.4182  0.2386
 4792W        W18206   6.365   1.739  14.078  0.0970 -0.2442  0.0872
 4793W        W18207  13.859   5.843   5.171 -0.4646 -0.0582 -0.2379
 4794W        W18208  16.794  13.656  12.278 -0.3624  0.1898  0.1847
 4795W        W18209   2.956   7.216   0.464 -0.1638 -0.1696  0.4004
 4796W        W18210   7.764   8.640   3.079 -0.3101 -0.0777 -0.0194
 4797W        W18211   2.761  13.799   2.200 -0.3012  0.0917 -0.0835
 4798W        W18212   7.920   5.968  13.421  0.1854  0.3559 -0.1838
 4799W        W18213  15.276   2.135   5.804 -0.0777 -0.2095 -0.1645
 4800W        W18214  16.396  11.478  15.051  0.1293  0.1398 -0.0549
 4801W        W18215   6.815   2.486   4.964  0.3845 -0.0546 -0.1933
 4802W        W18216   6.021  15.379   1.186  0.0791  0.3354  0.0607
 4803W        W18217  18.115  12.152  12.267  0.0606 -0.1250  0.1398
 4804W        W18218   0.777   4.860   0.030  0.1111  0.0759 -0.1662
 4805W        W18219  12.372   4.606  13.438  0.1027  0.3090 -0.2375
 4806W        W18220   8.872  10.162  12.065  0.0413  0.2059  0.1124
 4807W        W18221   8.322  12.959   0.652 -0.1703  0.1459 -0.2132
 4808W        W18222   8.091   0.255  12.236  0.1613  0.0060 -0.0520
 4809W        W18223  11.875  14.929   2.607 -0.1141  0.0836 -0.0036
 4810W        W18224   9.977   7.527  13.337  0.1700  0.1886 -0.0522
 4811W        W18225  13.187   5.415   4.708  0.2171 -0.2270  0.1560
 4812W        W18226   2.319  15.294   0.197  0.2731 -0.5112 -0.0542
 4813W        W18227  11.706   0.014  13.417  0.3524  0.3598 -0.1136
 4814W        W18228   2.790  16.748  15.307  0.0497  0.2995 -0.0894
 4815W        W18229  12.872  14.370  14.175 -0.0418 -0.3447  0.0782
 4816W        W18230   0.819   9.406   1.483 -0.2407 -0.0672  0.4063
 4817W        W18231  13.103  10.511   0.343 -0.0056 -0.2690  0.3655
 4818W        W18232   8.127   2.794   1.192  0.3318  0.4004 -0.2669
 4819W        W18233   9.889   1.536   4.660 -0.1114 -0.0394  0.2262
 4820W        W18234  11.675   5.460  11.853 -0.2623 -0.1310  0.0638
 4821W        W18235   5.532  13.774  13.735  0.2969 -0.0988 -0.1309
 4822W        W18236   3.189   2.738   4.452 -0.2278  0.4308 -0.2564
 4823W        W18237   4.168   0.949   4.197  0.0237 -0.0560  0.2780
 4824W        W18238  16.016   0.161   3.728  0.1183  0.0497  0.1813
 4825W        W18239  17.105  13.399   5.628  0.0721  0.1684 -0.2109
 4826W        W18240  10.216   6.168  11.935 -0.3109 -0.0549 -0.0832
 4827W        W18241   8.926   2.480   1.044 -0.2572 -0.1226 -0.0461
 4828W        W18242  16.567  16.255   0.411  0.3233 -0.1787 -0.0609
 4829W        W18243   3.137   6.918  14.515  0.0474  0.4080 -0.2111
 4830W        W18244   7.313   6.390  12.826  0.0079  0.0287  0.3428
 4831W        W18245   3.537   9.164   1.157 -0.3823  0.2308  0.2052
 4832W        W18246   4.216   8.747  13.585 -0.2736 -0.0774  0.1284
 4833W        W18247  15.485  18.126   1.272 -0.2978  0.1079 -0.2893
 4834W        W18248  13.585   9.830   2.440  0.1691 -0.1211 -0.0361
 4835W        W18249   0.288  10.704  11.934 -0.0222  0.0202  0.0723
 4836W        W18250   4.993  16.018   3.793 -0.1079  0.4186 -0.3864
 4837W        W18251  13.617  16.326   2.854  0.0850  0.0473  0.2415
 4838W        W18252  11.603  17.568  10.994  0.1274  0.4457 -0.0791
 4839W        W18253  15.620  12.243  10.790  0.2253 -0.5548 -0.1654
 4840W        W18254   3.330   5.526  14.927 -0.0010 -0.1555  0.0763
 4841W        W18255  17.690  14.112   0.824  0.1517  0.4009 -0.2821
 4842W        W18256  13.814   1.471  14.305  0.3100 -0.0067  0.0496
 4843W        W18257   6.168   1.130   5.716  0.0047  0.3492 -0.1006
 4844W        W18258   9.250  14.235  14.459 -0.0326 -0.0085  0.1410
 4845W        W18259  13.370  16.267   3.261 -0.1179  0.1731  0.2101
 4846W        W18260   2.507   6.415  12.617  0.0051 -0.1864  0.0150
 4847W        W18261  13.374  13.703   4.399 -0.1347 -0.0788 -0.0064
 4848W        W18262   1.163   4.156  13.293  0.0941  0.0401  0.0931
 4849W        W18263  17.269   8.856  11.979 -0.0260  0.0025 -0.0167
 4850W        W18264  14.796  12.029   1.381 -0.2840 -0.0028 -0.3142
 4851W        W18265  12.811   9.482   2.624  0.2889 -0.0627 -0.0625
 4852W        W18266   6.216  14.194   4.877  0.1725 -0.0515  0.2062
 4853W        W18267   2.824   4.992   4.748 -0.1002  0.1759  0.1857
 4854W        W18268   6.026  11.152   5.461 -0.1267 -0.0318 -0.0038
 4855W        W18269   1.936  11.106   3.850  0.3768 -0.2975 -0.0677
 4856W        W18270   1.244   2.788   2.077 -0.1584 -0.1603  0.1930
 4857W        W18271  14.498   0.486  14.045  0.3031 -0.0395  0.0198
 4858W        W18272  10.438  11.814   3.884 -0.0436  0.2481  0.2280
 4859W        W18273  11.806  13.476   3.037 -0.5429  0.2515  0.0902
 4860W        W18274  17.363   3.673   4.212 -0.0650 -0.0879 -0.2246
 4861W        W18275   5.513   9.857   6.115  0.1426  0.0650  0.2405
 4862W        W18276   6.819  14.986  15.789 -0.0109 -0.0068 -0.0517
 4863W        W18277   1.523  14.481  11.681 -0.2469  0.2172  0.2057
 4864W        W18278  16.194   0.952   5.746  0.0650  0.1326 -0.0557
 4865W        W18279   2.392   2.360   4.377 -0.0976  0.1444 -0.5115
 4866W        W18280   5.445   3.246  15.357  0.1754 -0.2593  0.0725
 4867W        W18281  15.607   5.375  11.536  0.1763  0.0594  0.1864
 4868W        W18282   0.629  13.023   1.068 -0.0740  0.0723  0.0057
 4869W        W18283   5.614  16.750  12.253  0.1947 -0.1452 -0.1075
 4870W        W18284   5.995   1.223  11.081 -0.0496  0.1034 -0.0943
 4871W        W18285  13.637  16.922  13.885 -0.2039 -0.1613  0.1352
 4872W        W18286  10.832  14.439  14.744 -0.1045 -0.0177 -0.1515
 4873W        W18287   5.179   6.103  11.011 -0.0142 -0.4147  0.1496
 4874W        W18288  12.212   4.010   2.098 -0.0261 -0.2505  0.0814
 4875W        W18289   9.020   7.884  10.906  0.0964  0.3518 -0.0733
 4876W        W18290   5.088   4.228   2.913 -0.0545  0.0806  0.2068
 4877W        W18291   0.723   5.322  11.306  0.0859  0.0546  0.1206
 4878W        W18292   9.751   6.634  14.161 -0.1384 -0.3712  0.0404
 4879W        W18293  17.887   2.661   3.666  0.4997  0.1185  0.1346
 4880W        W18294  13.309  15.807   0.317 -0.1353 -0.1340  0.3062
 4881W        W18295   1.087   8.207   0.357 -0.2070 -0.1526 -0.2158
 4882W        W18296  15.982  16.861   2.510  0.0966 -0.2414 -0.2028
 4883W        W18297   6.881  17.152  11.295 -0.1570  0.2260  0.0724
 4884W        W18298   7.547  10.490   3.022 -0.2169 -0.0719 -0.2125
 4885W        W18299  15.440  15.397  10.443 -0.1213  0.1222  0.1838
 4886W        W18300   7.673   0.015   6.239  0.1494  0.2517  0.1478
 4887W        W18301  10.210  13.226   1.414 -0.0903 -0.1035 -0.0067
 4888W        W18302  11.452   3.969  14.796  0.2285  0.0395  0.1515
 4889W        W18303  16.956  12.740  13.254 -0.0109 -0.0134 -0.3502
 4890W        W18304   8.437   4.664  14.536 -0.0713 -0.1192 -0.0060
 4891W        W18305   1.160   4.933   0.367 -0.0120  0.0372 -0.1862
 4892W        W18306  14.538   4.900  15.439 -0.1963 -0.0722 -0.1770
 4893W        W18307  15.847   5.671  12.392  0.1902  0.1657 -0.0739
 4894W        W18308  14.486  13.822  10.318  0.0384 -0.0439  0.0978
 4895W        W18309  15.957   9.650   0.965 -0.0744  0.0719 -0.1992
 4896W        W18310  17.104   2.806   2.586 -0.0409 -0.0175 -0.2266
 4897W        W18311   0.150  14.574  13.618 -0.2524  0.0460 -0.1138
 4898W        W18312  17.483   2.639  11.826  0.2644 -0.1110 -0.2310
 4899W        W18313   6.459  16.586  14.494  0.3615 -0.3369 -0.0057
 4900W        W18314  12.339   0.803  13.457 -0.1692  0.2283  0.0636
 4901W        W18315   3.309   0.852   4.475 -0.1433  0.2008 -0.2079
 4902W        W18316   4.802  14.081   1.656  0.1286  0.1158  0.1459
 4903W        W18317  14.074   0.528  10.654 -0.1493  0.3377 -0.4443
 4904W        W18318   7.655   2.774   3.585 -0.1086 -0.0160  0.4527
 4905W        W18319   8.154  16.466   3.116  0.0429  0.1004 -0.1691
 4906W        W18320   5.127  17.339   4.316 -0.0231  0.3428  0.0295
 4907W        W18321  11.968  13.112  14.435  0.1011  0.1887  0.3297
 4908W        W18322   1.470   7.029   3.550 -0.0438  0.0547  0.0044
 4909W        W18323  15.754   3.074   4.157 -0.1792 -0.0025 -0.1368
 4910W        W18324   2.607   5.039   1.764  0.0149 -0.0703 -0.0471
 4911W        W18325  11.597   6.652   1.223  0.0709  0.2685 -0.0354
 4912W        W18326  15.857   7.317  15.094  0.2163  0.0304 -0.1459
 4913W        W18327  17.860   2.865  13.595  0.2403 -0.1411 -0.1350
 4914W        W18328  14.746   5.307   2.760  0.1241  0.0997 -0.1031
 4915W        W18329  10.251  12.156   0.081 -0.6218  0.1763 -0.0686
 4916W        W18330  16.055  13.087  15.386  0.3064  0.1703  0.1283
 4917W        W18331   4.510  14.476   3.401  0.0822  0.0093  0.0332
 4918W        W18332  17.544   2.857   4.127  0.3593 -0.1200  0.0167
 4919W        W18333   7.050   8.820   4.065 -0.4267  0.0143 -0.0287
 4920W        W18334   0.396  10.995  13.242 -0.1802  0.1466  0.2833
 4921W        W18335   6.071  12.829   0.563  0.0928 -0.0723  0.1485
 4922W        W18336  15.417  14.930   5.133  0.0883  0.1361  0.0762
 4923W        W18337  13.186  16.921  14.181  0.1541 -0.0515  0.1343
 4924W        W18338   2.625  14.029  11.908 -0.0959  0.1396  0.0563
 4925W        W18339  12.527  11.882  15.579  0.0039 -0.1718  0.1842
 4926W        W18340  14.754   9.603  15.534  0.1711 -0.1089  0.0764
 4927W        W18341  18.272   9.690   3.002 -0.2972 -0.0563  0.1613
 4928W        W18342   0.281  14.824  10.994 -0.0699 -0.0103 -0.2601
 4929W        W18343  10.066   7.638   2.027 -0.1613 -0.0465 -0.0505
 4930W        W18344   8.835  16.701  14.243  0.4113 -0.2754  0.2400
 4931W        W18345  17.402   5.857   0.919  0.0868 -0.0622 -0.0814
 4932W        W18346   1.194   4.057   4.433 -0.0468 -0.0552  0.1982
 4933W        W18347   1.301  14.739   3.693 -0.1417  0.0471 -0.2441
 4934W        W18348   9.962   5.340   2.021 -0.1499 -0.1014 -0.0492
 4935W        W18349  11.102  12.855   3.047  0.0697 -0.1469  0.0790
 4936W        W18350   4.845   7.059   1.416 -0.0748 -0.0417  0.0831
 4937W        W18351   3.733  12.000  15.474  0.0883  0.1744  0.1327
 4938W        W18352  13.141   1.946   4.949 -0.1368 -0.1431  0.0702
 4939W        W18353  17.470   4.282   0.811 -0.1736  0.1032 -0.1050
 4940W        W18354   2.961  12.580  13.938  0.0077  0.2013 -0.3569
 4941W        W18355   5.334   2.345   2.324 -0.0669 -0.0179 -0.1352
 4942W        W18356   8.216   3.850   1.338 -0.0876 -0.0928  0.1216
 4943W        W18357   8.483  10.515   2.368 -0.1047 -0.2012  0.0664
 4944W        W18358   6.646   8.137  15.113 -0.1695 -0.1137 -0.2371
 4945W        W18359   4.407  14.760  12.956  0.0772 -0.0472 -0.3412
 4946W        W18360   6.216   5.301  16.044 -0.0239  0.0138  0.0530
 4947W        W18361   7.146   3.826   1.156  0.0706  0.1413 -0.0478
 4948W        W18362   7.508   7.878   4.246 -0.1689 -0.0704 -0.0920
 4949W        W18363  12.845   4.259  12.141 -0.1328  0.2541 -0.1810
 4950W        W18364  14.255   2.624   4.569 -0.0964  0.0058 -0.1168
 4951W        W18365   9.928  16.247   3.065  0.1184 -0.2236 -0.0494
 4952W        W18366  15.089   5.840   0.806  0.0106 -0.2359  0.1541
 4953W        W18367  16.887   0.408  13.292 -0.0562  0.3838 -0.0333
 4954W        W18368   7.335  13.809   2.870  0.0109 -0.0996 -0.2317
 4955W        W18369   9.861   0.538   2.458 -0.0155 -0.0915  0.1447
 4956W        W18370  15.136   8.728  15.196  0.0707 -0.1743 -0.1278
 4957W        W18371   7.467   6.773   1.628  0.3464  0.0814 -0.0265
 4958W        W18372   9.185   8.621   3.812  0.0452  0.0732 -0.1577
 4959W        W18373   7.547   8.005   0.908 -0.3524  0.0894  0.0509
 4960W        W18374  11.272  18.082  10.693  0.3236 -0.1853  0.1449
 4961W        W18375  17.182   4.958   3.503 -0.2965 -0.3733 -0.2891
 4962W        W18376  14.150   3.160   1.577  0.2190  0.2473  0.1634
 4963W        W18377   3.551   9.825  14.200 -0.0902 -0.0776  0.3203
 4964W        W18378   5.483   8.048   2.937  0.2182  0.2319  0.0303
 4965W        W18379   2.746   7.197  13.650  0.2006  0.0036 -0.3406
 4966W        W18380  13.856   3.647   3.995  0.0323  0.0785 -0.1261
 4967W        W18381  12.707   0.911   0.851  0.0168  0.0048 -0.0296
 4968W        W18382  17.613  15.547  14.030 -0.3111  0.1298 -0.2307
 4969W        W18383   2.918   1.006  14.288 -0.1895  0.0056  0.1443
 4970W        W18384   8.551  11.201   2.702 -0.2797 -0.1086 -0.0603
 4971W        W18385   8.400   9.117  12.623  0.4375  0.1593  0.0534
 4972W        W18386  13.866  15.107   4.281 -0.0593 -0.0575  0.2178
 4973W        W18387  11.432   5.295   1.316 -0.0178  0.1169 -0.0510
 4974W        W18388   6.035  15.597  13.996  0.1779 -0.1489  0.2354
 4975W        W18389  11.919  10.683   3.121 -0.0401  0.1089 -0.0539
 4976W        W18390   5.474  15.883  11.802  0.4728 -0.0938  0.2374
 4977W        W18391  12.095   3.374   3.797 -0.2339  0.1450 -0.2504
 4978W        W18392  16.145  13.208  11.812  0.1080  0.1658 -0.2501
 4979W        W18393   3.587  14.675  14.651 -0.0518  0.1331  0.0770
 4980W        W18394   0.195   3.294  13.237 -0.0660 -0.0594 -0.2102
 4981W        W18395  16.503  17.659  10.514 -0.1306  0.1782 -0.1076
 4982W        W18396   2.083  15.154   0.601 -0.3987 -0.2700 -0.2664
 4983W        W18397  10.700  11.105  13.642 -0.0688  0.0658  0.1394
 4984W        W18398  11.453  13.092   0.490  0.2612  0.0195 -0.1834
 4985W        W18399   5.195   7.179  14.609 -0.0923  0.2430  0.3281
 4986W        W18400  16.608   5.005   6.449 -0.1455 -0.2211 -0.1466
 4987W        W18401  15.861  17.302  14.660 -0.1509 -0.1976 -0.0322
 4988W        W18402  11.616  16.458  12.641 -0.0425  0.0017 -0.3479
 4989W        W18403   2.425   1.351   0.401 -0.0681  0.0145  0.1576
 4990W        W18404  11.903  17.278  10.572 -0.0177 -0.2322  0.0348
 4991W        W18405   2.367   4.724   2.221  0.3361  0.0428  0.1002
 4992W        W18406  16.414   6.370  13.649  0.4369 -0.3962 -0.0405
 4993W        W18407  10.525   9.013  12.127 -0.0573 -0.0585  0.2964
 4994W        W18408   0.605   9.298  11.089 -0.0723 -0.0979  0.1896
 4995W        W18409  10.018  11.724   3.543 -0.1542  0.2038  0.0029
 4996W        W18410   3.081   3.438   2.552 -0.2409  0.4166 -0.1949
 4997W        W18411  12.255   9.462  10.989 -0.1225 -0.0839 -0.0368
 4998W        W18412   5.152   8.557   2.132 -0.0816  0.3125  0.0240
 4999W        W18413   3.547   5.313   2.795 -0.2746 -0.0715 -0.2779
 5000W        W18414   1.938   7.565  15.926 -0.1838  0.0726  0.2849
 5001W        W18415   1.335   6.658   3.954  0.1510 -0.1046  0.0050
 5002W        W18416  13.467   8.262   6.306 -0.0988  0.3156 -0.0538
 5003W        W18417   6.647   7.754  11.742 -0.0189 -0.3873 -0.0259
 5004W        W18418   4.415   2.711   5.050  0.4997  0.3443  0.0420
 5005W        W18419  11.763   4.188   1.116 -0.0990 -0.1350  0.1967
 5006W        W18420   7.852   4.197  10.336  0.1847 -0.0154  0.1903
 5007W        W18421  14.343   1.211   1.877  0.2559 -0.0271  0.1665
 5008W        W18422   1.575  13.810  15.637  0.3073  0.0403 -0.1765
 5009W        W18423  15.762  16.913   0.746 -0.0461  0.2969  0.0135
 5010W        W18424   8.898   5.414  13.336 -0.2004 -0.2484 -0.5378
 5011W        W18425   8.209   3.844  10.569 -0.1187  0.1290 -0.1002
 5012W        W18426   2.051   3.275   5.631  0.3022  0.0786  0.1744
 5013W        W18427  13.155   0.365  13.769  0.3135  0.0453 -0.1411
 5014W        W18428  18.187   9.987  15.945 -0.2989  0.0918 -0.0997
 5015W        W18429   3.698  13.245  14.600  0.0215 -0.1898  0.0327
 5016W        W18430   0.036   6.266   6.144  0.1386  0.2460 -0.2532
 5017W        W18431   9.792   7.904  13.789 -0.2246  0.1449  0.0535
 5018W        W18432   2.588   4.568   2.777 -0.0463 -0.0405 -0.2541
 5019W        W18433  14.436  11.480  13.229  0.3616  0.0670  0.1101
 5020W        W18434   9.878  15.662   3.381 -0.2810 -0.0295 -0.0246
 5021W        W18435   7.660   5.632  12.973  0.2883 -0.1875  0.2304
 5022W        W18436   5.173   4.986  14.810  0.1907 -0.1232 -0.2363
 5023W        W18437   3.665  15.505  11.670 -0.1061 -0.3501 -0.0837
 5024W        W18438   4.978   9.785   1.721 -0.1899 -0.2165  0.0167
 5025W        W18439  11.577   6.033  13.803  0.0893  0.1162  0.0613
 5026W        W18440  10.858   4.128  13.120 -0.1569  0.0625  0.0830
 5027W        W18441  14.519   1.656  16.130  0.1340 -0.3565  0.0281
 5028W        W18442   5.699  10.200  11.966  0.0471 -0.0635  0.1277
 5029W        W18443  15.115  11.315   1.909 -0.0836  0.1230  0.4575
 5030W        W18444   4.750   2.918   1.490 -0.0523 -0.2019 -0.1129
 5031W        W18445   1.927  10.479  15.638  0.0038  0.1536  0.2055
 5032W        W18446   0.434  14.910  15.927  0.0290  0.1120  0.0937
 5033W        W18447   5.329   0.249  13.849 -0.2731 -0.1878 -0.2464
 5034W        W18448   5.691   4.548  11.158 -0.0138  0.1114 -0.1581
 5035W        W18449   8.538   4.378   9.741  0.1052 -0.1587  0.2422
 5036W        W18450  16.562  11.286   2.244 -0.1172 -0.3108  0.0756
 5037W        W18451  14.753   3.397   0.284  0.1267 -0.0933  0.0784
 5038W        W18452   7.258   7.146  12.585 -0.0608  0.1540 -0.2223
 5039W        W18453   5.863  15.442  11.919 -0.0755 -0.0160  0.2554
 5040W        W18454   9.497  13.881   2.266  0.3512 -0.2687 -0.4674
 5041W        W18455  14.520  16.327  15.592 -0.2622  0.2653  0.3047
 5042W        W18456   4.968   0.110  14.149 -0.2271  0.1305  0.0070
 5043W        W18457   7.216  16.511  15.240  0.5927  0.3031 -0.2255
 5044W        W18458   1.442   0.695   1.089  0.0338 -0.2420 -0.1007
 5045W        W18459   9.297   7.100   1.455 -0.0018 -0.5008 -0.1033
 5046W        W18460   1.993   1.636   0.377 -0.1863  0.1189  0.1837
 5047W        W18461   1.944  18.132  13.969 -0.0687  0.0615 -0.2844
 5048W        W18462  15.738  18.000   1.734 -0.1095  0.2883  0.1884
 5049W        W18463   9.821  10.904   0.618  0.2299  0.1202 -0.0116
 5050W        W18464  15.107  17.511   2.402  0.0565 -0.2421  0.3159
 5051W        W18465  16.617  14.211   2.699  0.1831  0.0131 -0.0953
 5052W        W18466   2.405  16.896  11.269 -0.1230  0.2780  0.0553
 5053W        W18467  17.323   1.961  11.517  0.3192  0.0153 -0.1529
 5054W        W18468   9.096   5.015  13.663 -0.1212  0.0915 -0.0259
 5055W        W18469   3.498   3.337  12.531 -0.2129  0.1125  0.0400
 5056W        W18470   2.687  13.114   2.032  0.2099 -0.2274 -0.1412
 5057W        W18471   7.089   7.083   2.405 -0.3623  0.1664 -0.0011
 5058W        W18472  13.611   3.130   1.774 -0.0530 -0.0794  0.2224
 5059W        W18473  17.890   4.536   0.656  0.3126 -0.1215 -0.2626
 5060W        W18474   1.515  11.051  12.211  0.0752 -0.0318  0.2454
 5061W        W18475  15.341   8.803  13.141  0.2087  0.0999  0.0920
 5062W        W18476   8.894  18.248  11.682  0.0340  0.1742 -0.0294
 5063W        W18477   9.391   2.794  11.855  0.1887 -0.1377  0.0637
 5064W        W18478   8.454   0.615   9.951 -0.1079 -0.2687 -0.0653
 5065W        W18479   5.469   0.429   1.588 -0.2115  0.2144 -0.3993
 5066W        W18480   5.366   9.563   0.640 -0.0194 -0.1049 -0.0213
 5067W        W18481  16.482   3.232   5.987  0.1802 -0.0641  0.3698
 5068W        W18482   4.260   7.840  15.851  0.0576  0.0919  0.1199
 5069W        W18483   0.911  10.898  16.060  0.1343  0.1263 -0.1716
 5070W        W18484  15.201  15.497  12.032  0.1173 -0.0506 -0.0860
 5071W        W18485  12.327   7.656  14.959  0.0388 -0.1316 -0.0434
 5072W        W18486  16.450   3.913   5.212  0.0033 -0.4034 -0.3500
 5073W        W18487  15.203  17.477  10.236  0.1601  0.2345 -0.2586
 5074W        W18488   0.411  13.375   0.134 -0.0836  0.1461 -0.1507
 5075W        W18489  14.221   2.263  12.029 -0.2326  0.0370 -0.0553
 5076W        W18490  15.745  16.189   0.228 -0.0572 -0.0194  0.0113
 5077W        W18491   5.775  14.738  11.113 -0.3335 -0.0473  0.3403
 5078W        W18492   1.621  16.568  13.369  0.0716  0.0732  0.0494
 5079W        W18493  10.094   2.474   0.103 -0.0220  0.3225 -0.2387
 5080W        W18494   1.235  11.781   5.014  0.1014 -0.2490 -0.0696
 5081W        W18495  10.269   5.428  14.359  0.0641  0.1141  0.2544
 5082W        W18496   4.023  15.843   1.370  0.1627 -0.1637  0.3968
 5083W        W18497  11.694   9.791   0.313  0.2915 -0.0336  0.0788
 5084W        W18498   3.892   0.896   6.230  0.0686 -0.1163 -0.1366
 5085W        W18499   0.430  16.656   3.011  0.0887  0.1812  0.0100
 5086W        W18500  10.377   3.705  13.894 -0.1264  0.0261  0.0727
 5087W        W18501   6.110   6.321  14.971  0.1014 -0.0989 -0.0820
 5088W        W18502   4.409   5.207  14.145  0.2373 -0.0941  0.0125
 5089W        W18503   4.664  15.944   2.096 -0.0287 -0.3040  0.1951
 5090W        W18504   7.411  11.933  11.252 -0.2685 -0.1439 -0.1150
 5091W        W18505   3.128   3.488  15.348  0.0619 -0.1033  0.3704
 5092W        W18506  10.775   5.736  14.497 -0.0722 -0.2456  0.5455
 5093W        W18507  13.482   1.108  16.005 -0.0349  0.0643 -0.2211
 5094W        W18508  11.556  10.697  13.813  0.1580 -0.2352  0.0448
 5095W        W18509  13.810   3.885  13.351 -0.0149  0.1359 -0.0250
 5096W        W18510   2.324   5.897   1.218 -0.0677  0.3862  0.0916
 5097W        W18511  16.581  17.844  15.933 -0.1441  0.3282  0.4222
 5098W        W18512  12.431   9.952   2.028  0.1178 -0.2437  0.1825
 5099W        W18513   2.206   0.743  11.862 -0.1950 -0.0318 -0.1172
 5100W        W18514  12.354  13.472   2.713 -0.0584 -0.2449 -0.0538
 5101W        W18515   6.797   4.803   3.579  0.1901 -0.0119 -0.0429
 5102W        W18516  14.356   7.946   2.808 -0.0426  0.1555  0.2659
 5103W        W18517  12.179  16.358   4.899  0.0880  0.1262  0.0945
 5104W        W18518   0.379  13.361  14.897 -0.1691 -0.1545 -0.2687
 5105W        W18519  12.374  15.519   5.208 -0.0884 -0.2639 -0.1083
 5106W        W18520   8.495  13.075   1.087 -0.0113  0.0399  0.2104
 5107W        W18521   2.973  13.138   3.811  0.1222 -0.2502 -0.5223
 5108W        W18522  12.526   7.653   3.017 -0.0290 -0.1451 -0.2124
 5109W        W18523   7.776   4.811   1.375  0.2659 -0.3108  0.0365
 5110W        W18524  18.027   2.209  13.784 -0.0041 -0.1875  0.1494
 5111W        W18525   7.252   3.146  12.675 -0.1896  0.1425  0.0967
 5112W        W18526  15.560  16.712   4.659  0.1265  0.0579  0.0578
 5113W        W18527   3.139   0.689   1.866  0.0034 -0.2231 -0.0791
 5114W        W18528  10.689  17.440   4.257 -0.1404  0.2772 -0.1772
 5115W        W18529  11.448  12.251   0.646  0.1280  0.0873 -0.0038
 5116W        W18530  16.335  13.561   4.813  0.0030  0.1517 -0.1774
 5117W        W18531   6.319   1.978  16.241 -0.1289 -0.2108 -0.0066
 5118W        W18532  10.593   1.976  14.892 -0.0468 -0.0298  0.0827
 5119W        W18533  10.892  16.714   4.040 -0.1672  0.0031 -0.1270
 5120W        W18534   4.486   4.340   3.652  0.1642  0.3027  0.0975
 5121W        W18535   4.313   1.105  15.312  0.0135  0.2577  0.1603
 5122W        W18536   7.273   4.272   0.997 -0.0502 -0.1225  0.0202
 5123W        W18537   1.259   2.515  10.844  0.0576 -0.0979  0.0508
 5124W        W18538   8.542  16.214  11.129 -0.2932  0.0787 -0.0312
 5125W        W18539   2.944  14.237  10.928  0.3267  0.1158  0.3263
 5126W        W18540  14.143   1.695  15.680  0.3785  0.0769  0.0950
 5127W        W18541   3.197  18.137  11.585  0.0714 -0.1593  0.2175
 5128W        W18542   7.652  11.983  15.238  0.1249  0.2671 -0.0785
 5129W        W18543   0.904  11.605   3.803 -0.0538 -0.2237 -0.1161
 5130W        W18544  16.082   3.419   3.894  0.2228  0.0595  0.1652
 5131W        W18545   2.468   3.643  15.795 -0.0325 -0.2234 -0.0965
 5132W        W18546   6.671  13.333  14.544 -0.1898 -0.1718  0.0375
 5133W        W18547  14.135  12.315  15.212  0.1006 -0.3243 -0.0678
 5134W        W18548   5.632   0.254   5.719 -0.0356  0.2246  0.1978
 5135W        W18549   5.150   9.598  12.297 -0.1157 -0.0186  0.0111
 5136W        W18550   4.799   2.445   1.597 -0.1414 -0.0028  0.2492
 5137W        W18551   0.515   5.123   0.389 -0.1259 -0.0452 -0.1157
 5138W        W18552   6.014  15.878   0.117 -0.1919  0.2957  0.1817
 5139W        W18553   7.276  13.258  12.430 -0.0226  0.2792 -0.0406
 5140W        W18554   4.713  13.600  11.003 -0.0515  0.0474  0.1878
 5141W        W18555   6.809   3.387   3.911 -0.0145  0.0580 -0.0339
 5142W        W18556   5.131  14.209   3.973  0.0433 -0.1945  0.3870
 5143W        W18557   8.764  17.692   1.151  0.0164 -0.0234  0.2748
 5144W        W18558   2.579  14.336  13.999  0.0845 -0.1541  0.0766
 5145W        W18559   5.427  15.392   3.314  0.1583  0.1496 -0.0394
 5146W        W18560  15.649  14.487   4.955  0.0692 -0.1160  0.0565
 5147W        W18561  15.318   0.505   4.759 -0.0171 -0.2671 -0.1915
 5148W        W18562  14.188   5.383   3.502 -0.2930 -0.0777 -0.0039
 5149W        W18563  12.584  14.187   2.225  0.2138  0.0095 -0.2127
 5150W        W18564   7.383  14.479   2.222  0.1225 -0.0946  0.0314
 5151W        W18565  12.886  13.477  12.416  0.0624  0.1314  0.0841
 5152W        W18566   7.401   7.632  13.173  0.0198  0.4613  0.2133
 5153W        W18567  12.795  18.410  14.185  0.0733  0.4249 -0.1185
 5154W        W18568   5.084  14.987   5.012  0.3792 -0.1585 -0.5345
 5155W        W18569   6.274   0.453   0.774 -0.0692  0.0952  0.2617
 5156W        W18570   0.471   9.374  12.143  0.1708  0.2765  0.3779
 5157W        W18571  15.807   3.635  13.177  0.2892  0.0834  0.0297
 5158W        W18572  17.299  14.567   3.411 -0.3007 -0.1099 -0.0777
 5159W        W18573  12.857  11.074  12.356 -0.2325  0.3045  0.1291
 5160W        W18574   8.839   1.565  10.480 -0.1202 -0.2483 -0.0365
 5161W        W18575  14.817   1.772   5.878 -0.0288 -0.3789  0.0340
 5162W        W18576  14.392  15.956   1.081  0.0813 -0.2542 -0.1413
 5163W        W18577   4.459   9.528   2.978 -0.0973  0.0296 -0.0366
 5164W        W18578  17.181  14.494  11.540 -0.1366 -0.2063  0.0057
 5165W        W18579  18.174   9.507   4.649 -0.0287  0.4884 -0.2483
 5166W        W18580  12.958  10.583   1.191  0.1433 -0.0170 -0.0402
 5167W        W18581   2.990  13.682  11.150 -0.1927  0.1007 -0.1440
 5168W        W18582   6.837  12.172  13.535 -0.1793 -0.0834 -0.1370
 5169W        W18583   7.842  17.346  15.234  0.1006  0.1281  0.0447
 5170W        W18584  18.309  17.636  11.611  0.0175  0.1506 -0.1577
 5171W        W18585  13.511   1.757  15.062 -0.1558 -0.0760 -0.0193
 5172W        W18586  18.435  10.817  10.794 -0.0946  0.1449  0.2774
 5173W        W18587   4.127  17.842   5.720  0.3276  0.0571  0.0374
 5174W        W18588   5.176   7.160   4.209  0.0520  0.0641 -0.0791
 5175W        W18589  15.212  14.782   0.146  0.0366  0.0120  0.3029
 5176W        W18590   7.479  18.305  11.895  0.0846  0.1584 -0.0301
 5177W        W18591   0.141  16.139   0.244  0.0973  0.1359 -0.0943
 5178W        W18592  10.995   0.168   0.803 -0.2265 -0.0049 -0.0514
 5179W        W18593   1.477   1.107   3.179  0.0451  0.1035  0.1281
 5180W        W18594  14.626   2.236   5.524 -0.0783  0.0930 -0.1481
 5181W        W18595  12.443  15.043   4.412 -0.2955 -0.0459  0.1299
 5182W        W18596  16.208  14.737  12.647  0.0856 -0.1962  0.1632
 5183W        W18597  11.021   3.387  13.438 -0.1811  0.3017 -0.1423
 5184W        W18598   4.913  12.220  13.215 -0.0560  0.0256 -0.0118
 5185W        W18599  18.339  16.735  11.944  0.0399 -0.2823 -0.1871
 5186W        W18600   3.122  11.665  10.130 -0.1332  0.1020 -0.0981
 5187W        W18601  18.193  14.526  11.326 -0.0541 -0.0282  0.2903
 5188W        W18602  13.188  15.105   5.078 -0.1776  0.0683 -0.4582
 5189W        W18603  17.727   8.303  10.971 -0.2948  0.4146  0.0757
 5190W        W18604   2.733   4.853  11.661  0.2127  0.0194 -0.0392
 5191W        W18605   0.244  12.988  13.347  0.0110  0.0493 -0.2298
 5192W        W18606   6.519   1.683   3.924 -0.0569 -0.1771 -0.2533
 5193W        W18607  15.408  12.315   3.786  0.1128 -0.0445 -0.0651
 5194W        W18608  13.930   1.649   3.691  0.5060  0.1455  0.2718
 5195W        W18609   4.018   1.108  13.594  0.1236  0.0949 -0.1547
 5196W        W18610  11.642  14.179   3.841  0.0657 -0.2687  0.2389
 5197W        W18611   9.312  12.640  12.164  0.0985 -0.2067 -0.2023
 5198W        W18612   4.827   5.010  14.395 -0.3183 -0.1587 -0.2003
 5199W        W18613   0.513  16.107   2.157  0.0773 -0.0696 -0.1952
 5200W        W18614   0.268   9.402   2.737  0.0746 -0.1900 -0.1914
 5201W        W18615   1.123  11.253   1.145 -0.2637 -0.2630  0.1627
 5202W        W18616   6.455   4.503  15.179 -0.1761  0.0419  0.0628
 5203W        W18617   0.571   0.851   0.010  0.1373 -0.0247  0.1388
 5204W        W18618  11.186   9.780  14.024 -0.1590  0.3279  0.0423
 5205W        W18619   3.749   1.328  12.173 -0.0731  0.0988 -0.2907
 5206W        W18620  10.629  10.384   0.457 -0.0086  0.3651 -0.1384
 5207W        W18621  13.185   2.249   2.376  0.1658  0.2776 -0.2053
 5208W        W18622   1.254   6.545  14.516  0.0311 -0.0089  0.2184
 5209W        W18623  15.064  11.043  11.816 -0.1994  0.1074  0.4509
 5210W        W18624  16.454  17.301  15.241  0.0413 -0.0366  0.2012
 5211W        W18625  12.030   5.172  15.016 -0.0939 -0.0662  0.1310
 5212W        W18626   0.427   6.335  16.115 -0.0421  0.1606 -0.0328
 5213W        W18627  10.683   9.004   2.744  0.1423 -0.0179 -0.2558
 5214W        W18628  16.628   1.293  11.500 -0.0395  0.1467 -0.0345
 5215W        W18629  14.800   4.673   4.813  0.1152  0.2560  0.2264
 5216W        W18630  12.552   2.964   0.841 -0.1144 -0.1450  0.0144
 5217W        W18631  12.430  13.641  12.047  0.1115 -0.2610  0.1256
 5218W        W18632  16.443   6.371  15.814  0.2645 -0.0055 -0.2465
 5219W        W18633   5.767  12.659   4.266 -0.1366 -0.1398 -0.0484
 5220W        W18634   1.233  17.028   5.119 -0.1069  0.1041 -0.1807
 5221W        W18635   7.394   0.312  10.846 -0.1476  0.4108 -0.0680
 5222W        W18636   9.813   6.335   1.110  0.2714 -0.3203 -0.0275
 5223W        W18637   3.541   5.078   4.089  0.2588 -0.1069 -0.0368
 5224W        W18638  11.358  14.108  13.587 -0.1837  0.1502  0.0763
 5225W        W18639   6.454  15.420  13.850  0.1932  0.0104  0.2869
 5226W        W18640   2.142  13.703  14.581  0.0038  0.0638 -0.0736
 5227W        W18641  16.166  11.457  14.214 -0.1668 -0.0569 -0.0475
 5228W        W18642  15.958   6.488  15.444 -0.1295 -0.2499 -0.1380
 5229W        W18643  15.377   9.612   2.918 -0.3288 -0.0105  0.0778
 5230W        W18644  12.599  10.567   0.782  0.2498 -0.0555 -0.0873
 5231W        W18645  15.825   9.036   1.158  0.0578 -0.1695  0.0035
 5232W        W18646  13.383   1.673  14.551 -0.1114 -0.0556  0.0067
 5233W        W18647   2.308  12.383   3.716 -0.2160 -0.2248 -0.0772
 5234W        W18648   1.996   5.057  15.129 -0.0971  0.1768 -0.2483
 5235W        W18649   5.819  17.530  13.127 -0.1109 -0.1540 -0.0341
 5236W        W18650   5.149  10.945   1.642  0.2716 -0.0505  0.2697
 5237W        W18651  15.664   2.843   4.608  0.0570 -0.0530  0.0907
 5238W        W18652  12.984   7.286   1.231 -0.1845  0.2111 -0.2647
 5239W        W18653   2.758   9.451  15.347 -0.3667 -0.3403  0.0837
 5240W        W18654   9.928   7.750  12.746 -0.0032  0.1877  0.3284
 5241W        W18655  15.124   4.049   1.839 -0.2984  0.0993  0.2190
 5242W        W18656  12.190   8.849  11.396  0.2728  0.2234  0.1234
 5243W        W18657  17.498  15.959   3.671  0.1807 -0.1281 -0.2171
 5244W        W18658  16.639   3.099  11.863  0.1651  0.0372 -0.0705
 5245W        W18659   8.492  10.861  13.857  0.2921  0.1213 -0.0427
 5246W        W18660  10.342  17.995   2.472  0.3617 -0.1977 -0.0122
 5247W        W18661   8.542  15.980  13.477 -0.1580 -0.4520  0.1221
 5248W        W18662  15.252   4.254  15.103  0.0111  0.0515 -0.0237
 5249W        W18663   7.587   8.840  11.371  0.0650 -0.1463 -0.0454
 5250W        W18664   6.323   3.290  13.933  0.0164  0.1030  0.0878
 5251W        W18665   0.950   6.809  11.316 -0.0852  0.0706  0.0500
 5252W        W18666   1.097   8.903   1.415 -0.0304 -0.2854  0.0755
 5253W        W18667   0.755   0.170  14.504 -0.0013 -0.1317 -0.0313
 5254W        W18668  13.149  12.287   1.558 -0.0132  0.0647 -0.1339
 5255W        W18669   5.795   9.139   0.442  0.1246 -0.2431  0.2166
 5256W        W18670  14.078   4.073  10.391 -0.1953 -0.0081 -0.2483
 5257W        W18671   2.724  15.027  15.685 -0.1553 -0.0882  0.1267
 5258W        W18672  15.730   4.343  11.728  0.0306  0.2858 -0.2229
 5259W        W18673  16.896  17.265   4.847 -0.0732  0.2855  0.2124
 5260W        W18674  16.002  17.561  12.328  0.1009 -0.2518 -0.2067
 5261W        W18675   2.976  17.701   0.118  0.2303  0.0496 -0.2775
 5262W        W18676  14.498   2.933   0.928 -0.1147  0.1722 -0.2194
 5263W        W18677   4.110   7.012   3.093  0.1253  0.0515 -0.1300
 5264W        W18678   7.446  16.926   0.283  0.0674  0.1296  0.2163
 5265W        W18679   6.839  13.535  11.200  0.3143  0.1288  0.4166
 5266W        W18680  12.805   8.802   3.904 -0.2125  0.1213 -0.0091
 5267W        W18681   8.208  14.619  10.349 -0.0156 -0.0091 -0.0644
 5268W        W18682  14.732   7.413   5.487 -0.4069 -0.0074  0.2033
 5269W        W18683   5.085  18.212   1.330  0.1805 -0.0696 -0.2407
 5270W        W18684  16.396  11.037  10.712 -0.0528 -0.3146  0.1287
 5271W        W18685   7.751  11.679   1.985  0.1017 -0.0182  0.0810
 5272W        W18686   0.976   2.741   3.005  0.0788 -0.2693  0.2663
 5273W        W18687   9.892   3.872   2.639 -0.1380  0.0328  0.0371
 5274W        W18688   8.632  14.901   2.728 -0.0009 -0.1706 -0.0733
 5275W        W18689   7.891  11.334  10.090  0.0201  0.0125 -0.2163
 5276W        W18690  14.256   2.633   5.176 -0.1000 -0.1024  0.2951
 5277W        W18691   7.661  12.294   3.665 -0.1666 -0.1783  0.3370
 5278W        W18692   5.331  13.454  10.923 -0.0930  0.1853 -0.0970
 5279W        W18693   1.252   4.537  15.900  0.2402  0.1538 -0.0754
 5280W        W18694  13.303   8.134   3.589 -0.3005  0.0892 -0.1270
 5281W        W18695   0.570   6.203   0.304  0.0288 -0.0928 -0.3229
 5282W        W18696   0.417  17.907   6.474  0.1997 -0.2200 -0.0320
 5283W        W18697  10.757   8.271   5.902  0.0123 -0.1002 -0.0531
 5284W        W18698   3.174  13.214   4.420  0.0023  0.1838  0.1781
 5285W        W18699   9.892   3.386  11.813  0.1470 -0.2802 -0.2364
 5286W        W18700   2.039   4.107   1.159  0.2917  0.2857  0.0467
 5287W        W18701   3.324  12.730   3.226  0.2153 -0.0072 -0.0010
 5288W        W18702   3.705   5.198  15.038 -0.1969 -0.2634  0.1730
 5289W        W18703   4.601  15.459  13.773 -0.0988  0.1018 -0.1220
 5290W        W18704   4.047  11.361  12.759  0.0556  0.1620  0.2057
 5291W        W18705   0.956  12.475   2.236  0.2433 -0.0889 -0.0659
 5292W        W18706  10.357   6.832  10.046  0.0451  0.0781 -0.1167
 5293W        W18707  11.515   0.415  13.581  0.1025 -0.1370  0.0706
 5294W        W18708   2.230   3.612  15.348  0.2364  0.1005 -0.2622
 5295W        W18709  13.232   6.852   6.059  0.1894 -0.3148  0.3140
 5296W        W18710  17.791   8.032   3.485 -0.2367  0.1792  0.1078
 5297W        W18711   1.130   9.633  16.186  0.3928  0.0248 -0.2947
 5298W        W18712   2.001   5.566   9.989 -0.0451  0.1524  0.0914
 5299W        W18713  15.044  13.702   1.997  0.2067  0.3387 -0.0396
 5300W        W18714   3.974   3.403  12.628 -0.0223 -0.0961 -0.0775
 5301W        W18715   4.378   5.815   2.488 -0.2346 -0.0368  0.2251
 5302W        W18716   5.291   1.322  10.423 -0.1741  0.0467 -0.0765
 5303W        W18717  10.013   1.920   4.314  0.2187 -0.0452  0.1406
 5304W        W18718   6.434   6.308  10.937  0.0179 -0.1330 -0.3728
 5305W        W18719  16.801   4.119  14.066  0.2156 -0.0579 -0.1789
 5306W        W18720   7.110  17.458  12.356  0.0170 -0.1157  0.1619
 5307W        W18721  18.390  14.363  10.887 -0.3555  0.0424  0.2386
 5308W        W18722   9.901   0.508  14.653  0.1936  0.1002 -0.1543
 5309W        W18723  11.899  11.174  15.478  0.0402 -0.1225  0.0664
 5310W        W18724  16.191   5.962   2.440  0.0735 -0.0287  0.2311
 5311W        W18725   3.673  10.832  13.959  0.0382 -0.2990 -0.0819
 5312W        W18726   5.549   4.671  14.701  0.3067 -0.2103 -0.0234
 5313W        W18727   3.418   1.876   4.351  0.1344 -0.0765  0.2703
 5314W        W18728  17.432   8.389  14.718  0.0101  0.3144  0.1804
 5315W        W18729   7.330  10.721   3.361  0.1669 -0.0918 -0.1393
 5316W        W18730  18.147   0.250  15.943 -0.1620  0.2469 -0.1329
 5317W        W18731  13.743   8.392  14.212 -0.1603  0.0392 -0.1534
 5318W        W18732   7.432   3.759   3.023  0.0471  0.0087  0.0233
 5319W        W18733   1.228  16.601   1.744  0.2534  0.3699  0.2573
 5320W        W18734   4.530  14.595   1.779 -0.2931 -0.1228  0.2852
 5321W        W18735  14.306   4.168  10.829  0.1345 -0.1020 -0.0567
 5322W        W18736  15.151   8.038   2.717 -0.1676  0.0519  0.1877
 5323W        W18737   1.728  17.884  10.315  0.2980 -0.0451  0.0654
 5324W        W18738  13.830   1.874  11.518  0.1529  0.0506 -0.0220
 5325W        W18739   5.256  14.665   0.674 -0.1527  0.1225  0.1084
 5326W        W18740  14.650  12.664   3.834 -0.0282  0.1010  0.0837
 5327W        W18741   3.356  14.290  14.431 -0.0082 -0.1298 -0.0681
 5328W        W18742   5.686   4.722   4.215  0.2766 -0.0146  0.0892
 5329W        W18743  16.105  15.503  12.690 -0.0460 -0.2181  0.0890
 5330W        W18744   2.345   7.839  16.114  0.0498  0.0927 -0.0408
 5331W        W18745   6.902  12.684  13.560  0.1026 -0.0340  0.0317
 5332W        W18746  17.752  11.697  14.427 -0.4429  0.1357  0.3234
 5333W        W18747  15.183  10.654  12.418  0.0338  0.0487 -0.1246
 5334W        W18748   4.198  17.633   0.518 -0.3536 -0.1096 -0.0514
 5335W        W18749  14.320   4.907  13.469 -0.2195  0.0218 -0.0455
 5336W        W18750  14.793   6.507   3.115  0.1409  0.0076  0.2060
 5337W        W18751   4.091   1.609   1.718  0.3077  0.4430  0.1702
 5338W        W18752   8.324   4.907  10.102  0.1094  0.1865 -0.1540
 5339W        W18753  12.827   0.307   2.507 -0.4075  0.0102 -0.1148
 5340W        W18754   7.961   2.916   1.727  0.1150 -0.3308  0.1759
 5341W        W18755   6.244  11.445  12.051  0.1311 -0.0661 -0.0985
 5342W        W18756   9.110   1.959   5.274 -0.3435 -0.1267 -0.1251
 5343W        W18757   7.719  17.905   4.639  0.0446 -0.3060 -0.3283
 5344W        W18758   6.702   7.204  11.818  0.1500 -0.0550  0.0867
 5345W        W18759  10.161   7.864  14.644 -0.0030  0.0852  0.1356
 5346W        W18760  10.812  18.026  11.846  0.1372 -0.0013  0.1023
 5347W        W18761  10.692   3.088  10.855 -0.1839  0.1256  0.0185
 5348W        W18762   6.047   8.694   5.153 -0.2207 -0.3681 -0.0286
 5349W        W18763   5.253   4.221  13.617 -0.0748 -0.1124  0.0377
 5350W        W18764   2.582   1.404   4.705 -0.3609  0.3179  0.0165
 5351W        W18765   0.483   2.153  15.790 -0.0884  0.2514 -0.1177
 5352W        W18766   6.784   5.670   2.173 -0.3871  0.0795  0.0172
 5353W        W18767   7.491  11.010  10.882  0.0104  0.0361  0.3174
 5354W        W18768   9.718  11.609   4.433  0.3300  0.0458 -0.5233
 5355W        W18769   5.896  16.428   3.896 -0.2122  0.0630  0.1659
 5356W        W18770  17.677  17.323   0.707 -0.3085 -0.0353  0.2479
 5357W        W18771   3.641   3.957  15.733 -0.1321  0.0963 -0.1594
 5358W        W18772  15.978   2.951   0.957  0.1023  0.3131 -0.0279
 5359W        W18773   7.731   4.713  14.941 -0.1328 -0.0060  0.1904
 5360W        W18774  11.861   7.117   5.206 -0.0666 -0.1254 -0.0123
 5361W        W18775  14.221   1.365  11.292  0.0615  0.0278 -0.1767
 5362W        W18776   0.175  15.895   3.867 -0.1694 -0.1395 -0.0837
 5363W        W18777  11.394   2.010   0.667 -0.0255  0.0148  0.0123
 5364W        W18778   7.511   7.927  11.259 -0.2881 -0.3302 -0.0120
 5365W        W18779   1.370   3.002   4.008 -0.3499 -0.0474 -0.0116
 5366W        W18780  12.737   6.909   4.667 -0.2609  0.0964  0.4152
 5367W        W18781  17.711  12.726   0.553 -0.4104 -0.0979 -0.0881
 5368W        W18782   0.295  10.209   5.146  0.1548  0.0159  0.1412
 5369W        W18783  10.888  15.104   2.111 -0.0558  0.0849  0.0996
 5370W        W18784   7.484   4.366   2.169  0.1476 -0.1110 -0.2465
 5371W        W18785  11.084   7.254   3.591 -0.0590  0.1902  0.1978
 5372W        W18786  12.398   9.615  13.886 -0.0674 -0.2688 -0.3240
 5373W        W18787  12.510   8.495  14.387  0.0500  0.0005  0.1215
 5374W        W18788   3.290   2.782   1.786 -0.0131  0.0248 -0.1531
 5375W        W18789   1.070  15.741  11.351 -0.0926  0.0876  0.2810
 5376W        W18790  16.174  10.415   3.608  0.1793  0.2013  0.0304
 5377W        W18791   6.253  14.568   0.680 -0.1513 -0.2201  0.0488
 5378W        W18792   8.384   1.843   1.169 -0.1096 -0.0055 -0.0234
 5379W        W18793  17.050   2.357  15.431 -0.0700 -0.1900 -0.0160
 5380W        W18794   1.307  17.010  13.237 -0.4297 -0.2254 -0.1017
 5381W        W18795   3.775   5.901  11.520  0.0424  0.1269  0.1894
 5382W        W18796  11.092  11.778  12.855  0.2226 -0.2649  0.0495
 5383W        W18797  12.446   7.651   0.061 -0.1764 -0.1000 -0.3418
 5384W        W18798   2.298   8.144   2.265 -0.0396 -0.2948  0.1311
 5385W        W18799  15.653  13.458   3.222  0.0058 -0.0194 -0.1522
 5386W        W18800  11.154   1.141  12.471 -0.1462 -0.1626  0.2228
 5387W        W18801  11.556  16.859  13.498 -0.1559  0.1787 -0.0400
 5388W        W18802  10.126  11.313   1.725 -0.0018  0.0544 -0.1283
 5389W        W18803   1.105   4.017  15.220 -0.1484 -0.0901  0.0540
 5390W        W18804   7.989  15.207  11.352  0.4132 -0.0972 -0.0491
 5391W        W18805  17.591  17.134   1.156  0.0475  0.4085 -0.0020
 5392W        W18806   8.130  15.601  16.012 -0.0436 -0.2432 -0.0373
 5393W        W18807   8.733  16.028   2.686 -0.2061 -0.0317  0.0547
 5394W        W18808   6.895   6.321  15.293 -0.1580 -0.1828 -0.2983
 5395W        W18809   2.479   2.883  10.463 -0.2413  0.0627 -0.2919
 5396W        W18810  17.256   8.130  16.041  0.1178 -0.1583 -0.0055
 5397W        W18811   2.280  15.216   2.723  0.0776 -0.0745  0.4300
 5398W        W18812   4.990  12.677  10.271 -0.2337  0.0484 -0.2423
 5399W        W18813   2.592   8.017  11.708 -0.0473  0.2441 -0.1669
 5400W        W18814   7.648  10.313  13.435  0.0425 -0.1131 -0.0279
 5401W        W18815  17.216   0.521   6.151  0.1895  0.0387  0.0277
 5402W        W18816  13.700  17.833  13.152 -0.3868  0.3364  0.1464
 5403W        W18817  11.807   1.083   0.961 -0.1099 -0.3332  0.3171
 5404W        W18818   7.096   5.517  14.913 -0.1441 -0.0451 -0.2154
 5405W        W18819   8.621   3.156  15.559 -0.0086 -0.2182  0.0884
 5406W        W18820   7.989  17.503  14.153  0.0519 -0.1631 -0.1690
 5407W        W18821  15.676   7.999  16.239  0.0343  0.0963  0.2466
 5408W        W18822   1.171   5.460  12.107  0.1393 -0.0468 -0.2543
 5409W        W18823   8.346  11.094   4.168  0.1681  0.1604 -0.2087
 5410W        W18824   1.945  15.796  13.905  0.2347  0.2790 -0.1055
 5411W        W18825   6.268  13.920   3.217  0.1090  0.0117 -0.2729
 5412W        W18826   9.830   2.892   5.300 -0.0373  0.0001 -0.0966
 5413W        W18827   9.632  12.024  12.786  0.2384  0.0317 -0.1972
 5414W        W18828  17.878   7.618   4.659  0.0237 -0.2357 -0.0094
 5415W        W18829  10.702  13.151  11.530  0.1374  0.0567  0.1221
 5416W        W18830   0.833   4.885   2.273 -0.1395  0.0473  0.1690
 5417W        W18831  11.891   8.682   2.305 -0.1796 -0.1022 -0.0309
 5418W        W18832   9.515   4.984  14.070 -0.1143 -0.4370  0.1996
 5419W        W18833   7.724   9.752  10.851 -0.3745  0.1701  0.3774
 5420W        W18834  17.845   3.237   6.651  0.2204 -0.0179 -0.1979
 5421W        W18835   3.688  10.835   1.759  0.0624  0.0126  0.0306
 5422W        W18836  11.371   9.501  15.683 -0.0105 -0.1978 -0.0445
 5423W        W18837  17.668  14.789  15.432 -0.1448  0.0845  0.1607
 5424W        W18838  13.092  13.437   5.253  0.0271 -0.1993 -0.1810
 5425W        W18839  18.171  14.180  10.497 -0.3354 -0.4218 -0.2578
 5426W        W18840  11.505   5.080  14.841  0.0855 -0.0845 -0.0462
 5427W        W18841   0.789  12.239   0.478 -0.0972 -0.0507  0.0479
 5428W        W18842  15.728   2.080   1.287  0.0383  0.0819 -0.2703
 5429W        W18843  17.844   3.471   0.332  0.3736  0.0677 -0.4030
 5430W        W18844   7.271  11.987   2.680  0.0768 -0.2033  0.1154
 5431W        W18845   7.796   6.267   4.758 -0.0826  0.2709 -0.1035
 5432W        W18846  13.633   8.852   5.039 -0.0597  0.0496 -0.2010
 5433W        W18847   0.289  13.278   5.889 -0.0884  0.0965 -0.2509
 5434W        W18848  16.407  16.217   4.723  0.1969  0.0464 -0.0078
 5435W        W18849   4.620  11.694   0.204  0.2380  0.1654  0.1163
 5436W        W18850   5.702  15.727   5.125 -0.7138 -0.2409  0.0061
 5437W        W18851   2.460  10.509   0.455  0.0328 -0.1050  0.0921
 5438W        W18852  12.412  17.000   2.304 -0.1895  0.3167 -0.0282
 5439W        W18853  11.681   0.189   4.433  0.2108 -0.2082  0.3039
 5440W        W18854   8.099  16.473  14.891 -0.1323  0.0977  0.2715
 5441W        W18855  13.273  13.265  10.827  0.0405 -0.2224 -0.1561
 5442W        W18856  11.186  14.783   1.842  0.1904  0.0549 -0.2145
 5443W        W18857   6.554   1.140  13.341  0.1011  0.3195 -0.1761
 5444W        W18858  13.872   6.951  15.086 -0.1483 -0.0166  0.3709
 5445W        W18859   1.981   6.485  11.918  0.0103 -0.0621  0.1412
 5446W        W18860  10.448   0.916   2.855 -0.0706 -0.0332  0.1220
 5447W        W18861   2.637  14.268  13.452  0.1375 -0.2625  0.0122
 5448W        W18862  15.243  18.315  13.395 -0.3219 -0.0103  0.1714
 5449W        W18863   9.916   8.138   2.021  0.1412  0.2500  0.1606
 5450W        W18864  18.279   5.183  12.859  0.3085 -0.0031 -0.0010
 5451W        W18865  15.221   7.550   6.305  0.1021 -0.2124  0.0895
 5452W        W18866  16.828   5.831  12.019 -0.0139  0.0581 -0.2136
 5453W        W18867   8.861  12.686   2.871 -0.0353  0.0127  0.0661
 5454W        W18868   4.636   1.621   1.567  0.0249 -0.1079  0.3328
 5455W        W18869  15.752  14.026   5.451  0.0187 -0.2944  0.1525
 5456W        W18870   9.198  15.291   9.760 -0.2385 -0.1894 -0.3334
 5457W        W18871   4.876   1.692  11.479 -0.0327  0.2120  0.0054
 5458W        W18872   0.489   8.322   6.029 -0.0144 -0.2881  0.1061
 5459W        W18873  17.673   7.372  12.022 -0.1063  0.0312 -0.0127
 5460W        W18874  14.148   3.016   2.580 -0.2122 -0.1107 -0.0122
 5461W        W18875  12.425   3.366   3.491  0.0814 -0.0027 -0.0486
 5462W        W18876   4.680   5.720   4.140  0.0263 -0.0952  0.0905
 5463W        W18877   3.130   5.724   0.270 -0.1820  0.0105  0.1294
 5464W        W18878   3.615  16.628  10.837 -0.2681  0.0007  0.1671
 5465W        W18879  14.979   9.664   4.289 -0.2758 -0.0163 -0.0862
 5466W        W18880   1.480  11.611  13.924 -0.1799 -0.4515 -0.0688
 5467W        W18881   8.213   4.026  13.742  0.3183  0.2178  0.2960
 5468W        W18882  16.694   4.606  14.061 -0.0767 -0.1849  0.3382
 5469W        W18883  16.989   7.081   3.540 -0.5177  0.0509  0.0674
 5470W        W18884   8.949   6.333  11.114 -0.0970 -0.0302  0.1547
 5471W        W18885  16.424  14.540   4.201  0.0659 -0.0410 -0.5652
 5472W        W18886   3.500   3.042   5.299  0.0998  0.0884 -0.1646
 5473W        W18887   5.375   7.433  16.129 -0.0089  0.2236 -0.1795
 5474W        W18888  13.911   6.330   5.403 -0.2655  0.1542  0.2006
 5475W        W18889   3.225  10.444   1.154  0.2282  0.1624 -0.4103
 5476W        W18890   5.094  11.377   2.504  0.0475  0.1927  0.2398
 5477W        W18891  13.277  18.419  14.417 -0.1887  0.4359  0.1336
 5478W        W18892  18.194   3.083   1.436 -0.0853 -0.0577 -0.2748
 5479W        W18893   6.440   7.990  15.533  0.1679 -0.0119 -0.3324
 5480W        W18894  12.546  11.363   0.110  0.1851 -0.1030  0.0160
 5481W        W18895  11.181   5.495   1.755  0.0469  0.1351 -0.1695
 5482W        W18896   9.402   8.289  15.762 -0.2221  0.3012  0.0205
 5483W        W18897  10.946   0.482  13.468  0.3616  0.1582 -0.2060
 5484W        W18898  13.827  14.990  15.092 -0.3119  0.0704  0.0501
 5485W        W18899  13.824   2.012  11.008 -0.2032  0.2578 -0.3216
 5486W        W18900  14.588   8.244  13.651  0.2173  0.4068  0.2114
 5487W        W18901   3.428  15.853  13.248 -0.0359  0.0010 -0.1610
 5488W        W18902   5.126   7.449   0.665 -0.1958  0.1764  0.1131
 5489W        W18903  12.144  10.312   1.455 -0.0599 -0.2194  0.0249
 5490W        W18904   7.854  15.830   2.778 -0.0017 -0.0828  0.1931
 5491W        W18905   1.539   2.203   4.615 -0.0460 -0.1494  0.0262
 5492W        W18906   6.279  10.683  15.202 -0.0257 -0.0815  0.0923
 5493W        W18907  12.536   6.680  13.196  0.1286  0.2727  0.2947
 5494W        W18908   0.184   6.803   1.805  0.0302  0.1156 -0.3112
 5495W        W18909  14.460   2.085  15.909  0.2978 -0.0943  0.2609
 5496W        W18910   9.521   3.993   0.789  0.2443 -0.1628 -0.3737
 5497W        W18911  15.383  11.905   1.700  0.0645  0.0827  0.2193
 5498W        W18912   7.006   1.492  13.870 -0.0529  0.0743 -0.0254
 5499W        W18913   0.854   1.907   5.174  0.0176 -0.1001 -0.1670
 5500W        W18914   8.294  15.961  11.977  0.1543  0.0226  0.1215
 5501W        W18915  12.322   8.824   4.414 -0.3081  0.1489  0.0961
 5502W        W18916  16.181   9.712  15.636 -0.1524  0.4698  0.1559
 5503W        W18917  15.977  17.202   1.246  0.0694 -0.3362 -0.1426
 5504W        W18918   6.605  16.221  12.368  0.1952  0.2280  0.0390
 5505W        W18919  15.406  16.450  15.210  0.1528 -0.1358 -0.2985
 5506W        W18920   1.953   6.603  10.645  0.0177  0.5603  0.0474
 5507W        W18921  13.247  17.926   2.704 -0.1955  0.1023  0.2266
 5508W        W18922  14.805   7.726  13.560  0.1636  0.1486  0.0114
 5509W        W18923   6.697   4.692   4.102  0.4751 -0.3363 -0.2992
 5510W        W18924  18.145   5.169  15.230  0.1970 -0.3142  0.0184
 5511W        W18925  14.902   0.187  13.264 -0.1270 -0.1309  0.2413
 5512W        W18926   9.795  13.704  14.127  0.0946 -0.0008  0.1722
 5513W        W18927   2.483  12.308  14.978 -0.0209 -0.1005 -0.1301
 5514W        W18928  15.721   0.060  15.487  0.0094 -0.0828 -0.1493
 5515W        W18929  15.780   3.468   2.521  0.0925 -0.1107 -0.0282
 5516W        W18930  10.917  18.344   0.324 -0.2267 -0.0638  0.0748
 5517W        W18931   8.768  14.200  12.188  0.1363 -0.1520  0.1555
 5518W        W18932   3.636  13.914   1.574  0.2684  0.1552  0.1488
 5519W        W18933   5.092   8.953   1.785  0.0436  0.1786 -0.1674
 5520W        W18934  16.048  17.607  10.281  0.1176 -0.1188  0.0314
 5521W        W18935  15.488  16.885   3.880 -0.0922  0.1695  0.1084
 5522W        W18936   2.108   4.813  13.227  0.3341 -0.2965 -0.0605
 5523W        W18937   2.020   3.301  12.367  0.0190 -0.0344  0.0950
 5524W        W18938  12.604  13.915  14.993  0.3276  0.0677 -0.2670
 5525W        W18939   2.421   0.931   0.758 -0.1888  0.0881  0.1190
 5526W        W18940  12.853   0.144   1.403 -0.1268  0.2971  0.0585
 5527W        W18941   1.858  12.708   2.254 -0.0845  0.0920  0.2107
 5528W        W18942  14.140  13.068  12.842 -0.0345  0.1071 -0.0717
 5529W        W18943  11.203  13.999   1.291 -0.0590  0.1536  0.1230
 5530W        W18944  11.540   4.808   2.514  0.0344  0.0090  0.0410
 5531W        W18945  15.618  11.606   1.298 -0.1720 -0.2284  0.0023
 5532W        W18946   5.208   6.451  10.301  0.1803 -0.2200 -0.2514
 5533W        W18947   4.743  13.731   2.339 -0.0552 -0.0266  0.0768
 5534W        W18948   5.477   7.887  14.214  0.0149 -0.0092  0.1449
 5535W        W18949   8.578   6.303  14.630  0.0205  0.1753  0.2723
 5536W        W18950   1.280   8.753   0.423 -0.0089 -0.0477 -0.3109
 5537W        W18951  14.306  17.874   4.179  0.0450 -0.2817 -0.0317
 5538W        W18952  17.420   0.494   6.593  0.0565 -0.1057 -0.0451
 5539W        W18953   1.447   9.513  13.940  0.0469 -0.0604 -0.1388
 5540W        W18954   7.293  12.850   5.217  0.1515  0.0032 -0.2377
 5541W        W18955   4.221   5.639   4.179 -0.0328 -0.2407  0.1580
 5542W        W18956   7.909   3.790  15.880 -0.3546  0.0435 -0.3507
 5543W        W18957  12.206   2.065   4.719 -0.4195  0.0240 -0.0524
 5544W        W18958  17.046   8.264  11.706  0.2560  0.0548  0.0281
 5545W        W18959  12.453   8.920  13.012 -0.0281 -0.0241 -0.1363
 5546W        W18960   5.427  16.130   5.055  0.1183 -0.2755  0.1641
 5547W        W18961   4.569  10.564   5.661 -0.2482 -0.0812  0.1560
 5548W        W18962  18.362  16.224  11.153  0.1892 -0.2199  0.1949
 5549W        W18963  12.612  16.235   4.520 -0.2043 -0.0044  0.0056
 5550W        W18964   4.109   0.126  14.595 -0.2894 -0.2305 -0.2985
 5551W        W18965  17.054   9.730  11.532 -0.2703  0.3796  0.0462
 5552W        W18966  11.769   5.166  13.838  0.3087 -0.5182 -0.2219
 5553W        W18967  15.411   8.140   5.126  0.2434  0.1920 -0.2192
 5554W        W18968   8.647  17.006   2.966  0.2063 -0.1223  0.0863
 5555W        W18969   5.340  18.047   6.248  0.0556 -0.1671  0.0691
 5556W        W18970  15.847   3.124  11.483  0.1606 -0.1205 -0.0905
 5557W        W18971   8.245  14.828   3.474  0.2421  0.2191  0.0711
 5558W        W18972   8.767   6.954  15.494  0.0896 -0.3381  0.0690
 5559W        W18973   5.516  10.569   1.842 -0.2476 -0.3801  0.0636
 5560W        W18974  10.095   2.110   2.051  0.2599  0.2459 -0.3204
 5561W        W18975   4.658   2.601  16.180  0.1743  0.0280 -0.1698
 5562W        W18976  17.799   2.476   0.849 -0.0666  0.1511  0.1771
 5563W        W18977   6.715   6.368   1.391  0.1928  0.3286  0.1371
 5564W        W18978  15.143  12.155  16.241  0.1635  0.0495 -0.2932
 5565W        W18979   1.886   4.997  12.051 -0.0401  0.0608 -0.0810
 5566W        W18980  12.318  13.519  11.136 -0.1118  0.1502 -0.1107
 5567W        W18981   9.529  10.940   5.111 -0.0146  0.1502  0.0213
 5568W        W18982   0.709   6.475  13.017  0.1052  0.1201  0.1395
 5569W        W18983   0.758   7.687  14.457  0.0144  0.4913  0.1958
 5570W        W18984  10.880  12.138   1.200  0.3037  0.0915 -0.2780
 5571W        W18985  15.867  10.814  10.808 -0.2054 -0.1541 -0.0416
 5572W        W18986   9.166   4.862   3.681 -0.0138  0.3173 -0.3748
 5573W        W18987  13.986  16.076  14.279 -0.0739  0.0817  0.0150
 5574W        W18988   8.615  18.177   6.049  0.0820  0.1355 -0.0723
 5575W        W18989  18.314  16.907  14.627  0.2266  0.2301  0.1937
 5576W        W18990   3.300  14.168   4.274 -0.2214 -0.1345  0.2943
 5577W        W18991  13.991   9.385   4.650  0.2358  0.3048 -0.0202
 5578W        W18992   8.056  16.565   2.036 -0.1865  0.0440  0.0208
 5579W        W18993  16.417  15.171   1.704 -0.1287  0.0860 -0.0145
 5580W        W18994  14.166  14.744  14.713 -0.0890  0.0110 -0.2821
 5581W        W18995  15.090   9.908  14.308 -0.1868  0.4680 -0.0768
 5582W        W18996   2.428   1.117  12.404  0.2871 -0.1292 -0.0111
 5583W        W18997   0.118   3.378  15.157  0.1882 -0.1116 -0.1255
 5584W        W18998   5.032  13.188   0.459  0.2823  0.0499 -0.3172
 5585W        W18999   2.066   5.575   3.485 -0.2262 -0.0704  0.0027
 5586W        W19000   3.318  16.838   5.492  0.2953  0.1031 -0.0261
 5587W        W19001   4.977   3.080   4.575  0.0293  0.2101  0.1438
 5588W        W19002   5.988   9.395  13.287  0.0290  0.0808 -0.1777
 5589W        W19003   3.661   2.735   2.248 -0.0472 -0.2026  0.1701
 5590W        W19004   5.989   5.509   5.507 -0.0077 -0.0026 -0.0884
 5591W        W19005  11.798   1.164   1.816  0.0525  0.1201 -0.3359
 5592W        W19006  16.139  14.286   2.920 -0.2406  0.1124  0.0805
 5593W        W19007   5.585   8.747  14.009 -0.1902  0.1205  0.3227
 5594W        W19008   0.772  15.855   6.060 -0.2490  0.0080  0.1434
 5595W        W19009   6.189  14.880  14.545  0.3050 -0.2531 -0.0296
 5596W        W19010  15.327   8.815  16.207  0.4624 -0.1587  0.0342
 5597W        W19011  10.863   9.258  11.049 -0.1771  0.0378 -0.0111
 5598W        W19012   1.528   0.321  13.158 -0.1607 -0.1386 -0.1287
 5599W        W19013  17.216  17.492  13.097  0.0072 -0.0108  0.0056
 5600W        W19014   8.892   4.415  14.596  0.1511  0.0327  0.0300
 5601W        W19015  13.683  16.017   5.084  0.0731 -0.2347  0.1829
 5602W        W19016  10.093  16.482  14.273  0.1846  0.0679 -0.0158
 5603W        W19017   1.272  18.214   0.399 -0.0240  0.1085  0.0386
 5604W        W19018   5.143  17.164   1.834 -0.0352  0.2424  0.0223
 5605W        W19019   4.993   0.175  13.499 -0.0574  0.1022 -0.1825
 5606W        W19020  14.583   6.903  11.452 -0.2361  0.1495  0.0932
 5607W        W19021  10.164   6.033  15.967 -0.0295 -0.0001 -0.0349
 5608W        W19022   7.009  12.440   0.491  0.1326 -0.2181  0.2100
 5609W        W19023   7.492   0.596   5.610  0.0804  0.4150 -0.2232
 5610W        W19024   8.405  15.477   5.352 -0.0639 -0.1730  0.1498
 5611W        W19025  10.525  16.032   3.676  0.3133  0.0454 -0.1557
 5612W        W19026   6.015  16.752  11.866  0.1216  0.2208  0.0730
 5613W        W19027   3.239  12.518   4.870 -0.2835 -0.1259  0.1661
 5614W        W19028   8.195   2.650  10.729 -0.0601  0.1298  0.2182
 5615W        W19029  15.555  14.060  12.708  0.1260 -0.1747  0.1442
 5616W        W19030   8.235   7.533  14.435  0.0706  0.1298 -0.3909
 5617W        W19031  10.777  18.272   1.063 -0.0685  0.2609 -0.2588
 5618W        W19032   9.019  14.852  10.466  0.1294 -0.1220  0.0364
 5619W        W19033   5.130   9.973  13.720  0.1679 -0.2814 -0.0111
 5620W        W19034  13.282  14.939   4.552  0.1378 -0.1493  0.2040
 5621W        W19035   4.299  17.338   2.380  0.1768 -0.0558 -0.3421
 5622W        W19036  10.000   7.555   4.263 -0.0097  0.0342 -0.2879
 5623W        W19037  11.163  10.560  11.616 -0.2624  0.2008  0.0588
 5624W        W19038  18.112  10.219  11.341 -0.1490  0.2494  0.5726
 5625W        W19039  13.057  16.009  14.827  0.2039 -0.1232  0.4354
 5626W        W19040   1.322   7.395   4.374 -0.1027  0.3508  0.0649
 5627W        W19041   4.421   5.001   1.081 -0.1433  0.1415 -0.1860
 5628W        W19042   4.532   6.107   4.438 -0.0064 -0.0526 -0.2144
 5629W        W19043   2.108   1.665  11.463  0.2223 -0.3086  0.0556
 5630W        W19044   2.607  13.027  13.755  0.1458  0.0674  0.3128
 5631W        W19045  14.638  14.567   1.401 -0.0790  0.0402  0.2072
 5632W        W19046  11.439  14.266  12.230  0.0544  0.2700 -0.0787
 5633W        W19047  14.342  18.349   4.386  0.0422 -0.0099 -0.1483
 5634W        W19048   5.335   9.632   2.708 -0.0666 -0.2610 -0.0638
 5635W        W19049   1.025  10.700   1.446 -0.0078 -0.1051  0.0024
 5636W        W19050   0.726   2.018   0.219 -0.3549 -0.0295  0.1396
 5637W        W19051  13.404  18.362  15.983  0.3703  0.2097 -0.0855
 5638W        W19052   5.368   1.894   4.525 -0.0470 -0.0441  0.2530
 5639W        W19053  12.204  14.290  14.994  0.1106 -0.2733 -0.3914
 5640W        W19054   9.957  10.404   1.879 -0.0630 -0.2372 -0.0258
 5641W        W19055  13.385   9.565  15.636 -0.1559  0.0685  0.3333
 5642W        W19056   9.900  16.082  14.014  0.5392 -0.0209  0.0799
 5643W        W19057   2.483  18.258  12.933 -0.2210  0.0914  0.2655
 5644W        W19058   5.083   8.612  11.744 -0.0805 -0.3801  0.0618
 5645W        W19059  10.573  16.715   9.652  0.1585  0.0702 -0.1871
 5646W        W19060   0.999   3.897   2.104  0.1798 -0.3254 -0.1784
 5647W        W19061   8.448   8.657   0.542  0.0297 -0.1457  0.0059
 5648W        W19062  12.530   1.994  11.573 -0.0331 -0.0911  0.0777
 5649W        W19063  11.448  14.592   2.694  0.0902  0.0626  0.2871
 5650W        W19064  13.931   3.275  16.170  0.1610  0.1493  0.1786
 5651W        W19065  11.224  15.447   5.999 -0.0039 -0.0587 -0.2338
 5652W        W19066  14.171   0.093  10.928 -0.1860  0.0694  0.0972
 5653W        W19067  11.203  14.655   3.074 -0.0168 -0.0128 -0.0520
 5654W        W19068   2.553   9.580   6.558  0.1750 -0.0113  0.2089
 5655W        W19069  16.458   4.821   2.929 -0.2595  0.2893 -0.0420
 5656W        W19070  10.795  14.706  12.493  0.0649 -0.0996 -0.1395
 5657W        W19071   8.412   8.780   1.553  0.1646 -0.2320 -0.1308
 5658W        W19072  12.937  17.806   6.161 -0.0501 -0.2938 -0.2742
 5659W        W19073  15.894   5.632  10.859  0.2651 -0.0838  0.2501
 5660W        W19074   3.079   5.960  10.331 -0.1530  0.0454  0.1603
 5661W        W19075   7.163   2.177  13.221 -0.3264 -0.2050  0.2085
 5662W        W19076   7.687   7.934  16.019  0.3633  0.0644 -0.1089
 5663W        W19077   3.716   2.034   4.704  0.1051 -0.0259 -0.3973
 5664W        W19078   7.183  12.799   1.095  0.0248  0.1633 -0.0404
 5665W        W19079   7.953   4.212   4.949 -0.1242 -0.0400 -0.1001
 5666W        W19080  17.331   4.300  11.036 -0.0578 -0.4635 -0.0589
 5667W        W19081  16.004   1.255   4.092 -0.3969  0.2968 -0.1049
 5668W        W19082   4.505  15.452  11.204  0.1471 -0.1574 -0.1372
 5669W        W19083   3.826   6.974   1.292  0.1897  0.0881  0.2367
 5670W        W19084   2.537  15.232   1.491  0.1231 -0.0598  0.3242
 5671W        W19085   0.780   6.797  12.160  0.1385  0.1962 -0.0181
 5672W        W19086   3.262   7.215  14.159  0.0371  0.3019  0.3500
 5673W        W19087   8.011   2.259   2.439 -0.0091 -0.1277 -0.1941
 5674W        W19088  15.465   4.606   0.972 -0.1415 -0.0757 -0.0544
 5675W        W19089  14.991   9.108  15.854  0.0764 -0.2784  0.1378
 5676W        W19090  16.605   6.765  14.925 -0.0234  0.1155 -0.1612
 5677W        W19091   6.188   5.000   5.672 -0.0978 -0.0767 -0.0911
 5678W        W19092   5.951  16.917   0.589 -0.1544 -0.1602  0.1859
 5679W        W19093  11.278   5.064  11.385  0.0040 -0.1929 -0.1795
 5680W        W19094   9.655   1.325   3.780 -0.0450  0.0069  0.3168
 5681W        W19095  13.193   7.693  15.859  0.0608  0.4036 -0.1647
 5682W        W19096  13.173  18.195   5.495 -0.1233  0.4293 -0.0237
 5683W        W19097   2.578  13.949  14.327 -0.3215  0.1482  0.1845
 5684W        W19098  16.292  17.645   0.640  0.1855  0.1965  0.0979
 5685W        W19099   6.828  14.611  15.090  0.3628 -0.0152  0.1862
 5686W        W19100  17.506   8.816   5.372 -0.0458 -0.2655 -0.0234
 5687W        W19101  13.867  15.605   4.008 -0.4359  0.0003  0.1316
 5688W        W19102   1.657   4.348  10.982  0.3379 -0.4458  0.0655
 5689W        W19103   2.435  16.445  14.399 -0.0931 -0.1728  0.1498
 5690W        W19104  12.021  10.246   3.444 -0.0446  0.1684 -0.1032
 5691W        W19105   9.778   9.008   4.914 -0.0105  0.1355  0.0167
 5692W        W19106  15.332   4.776  15.344  0.1973 -0.2271  0.1667
 5693W        W19107  13.334  15.179  11.694 -0.1805  0.0296 -0.0960
 5694W        W19108   0.966  10.278  12.206  0.0836  0.3796  0.0078
 5695W        W19109  11.151  17.828  11.249  0.1159 -0.0502 -0.0424
 5696W        W19110   1.743   6.693  12.908  0.1593 -0.0480 -0.1334
 5697W        W19111  14.224   9.839  14.781 -0.2693  0.1363 -0.1272
 5698W        W19112  10.209   0.948  10.228  0.0685 -0.0598 -0.0913
 5699W        W19113  13.254   6.500   6.384  0.1067  0.4470  0.0429
 5700W        W19114   2.167   1.562   5.607  0.2574 -0.0160  0.1378
 5701W        W19115   5.963  13.860  11.467 -0.2993 -0.2446 -0.0441
 5702W        W19116  13.046  13.966   4.695  0.0930  0.2004 -0.2959
 5703W        W19117   2.759  14.544  15.676 -0.2118  0.0445  0.0805
 5704W        W19118   9.067  17.784   1.581  0.0385  0.1252 -0.1490
 5705W        W19119  10.190  11.694   2.035 -0.3277  0.4478  0.1377
 5706W        W19120  12.799   1.279   4.916  0.3798 -0.2319  0.0495
 5707W        W19121  12.656   5.029   0.883  0.2802  0.0086 -0.1485
 5708W        W19122   0.936  10.809   5.241 -0.1194  0.0397  0.1964
 5709W        W19123   8.325  17.950   0.450 -0.1490  0.0791 -0.0263
 5710W        W19124   1.093   3.295  13.633 -0.2766  0.0106 -0.0948
 5711W        W19125   7.584   9.122   3.245 -0.0724  0.1215  0.5191
 5712W        W19126  18.299  15.679  11.998  0.3627 -0.1649 -0.1942
 5713W        W19127  10.222  18.159   0.984  0.1136 -0.1479  0.0627
 5714W        W19128  12.196   4.830  12.570 -0.0449  0.3102 -0.0032
 5715W        W19129   1.879   7.204  10.893  0.2085 -0.0518 -0.0464
 5716W        W19130   0.298   6.196   3.751 -0.0904 -0.0530  0.0959
 5717W        W19131  16.769   8.892   3.753 -0.1302 -0.1388 -0.2141
 5718W        W19132  13.711   3.521  15.430 -0.1644 -0.0818 -0.0246
 5719W        W19133  10.079   1.899   1.409 -0.0164  0.2327  0.0907
 5720W        W19134   3.399  12.187  15.177  0.1134 -0.0510 -0.3382
 5721W        W19135  13.887  14.517   9.601 -0.4036  0.0423 -0.3498
 5722W        W19136   6.091   3.173   5.537  0.1250 -0.0941  0.1837
 5723W        W19137  10.191   4.604   1.989 -0.1469  0.2328  0.1785
 5724W        W19138   6.716  18.202  14.057 -0.1804  0.1884  0.1278
 5725W        W19139   5.920  15.162   2.111  0.1592 -0.1520  0.0052
 5726W        W19140  12.821  12.847  12.972  0.2058  0.1473  0.2455
 5727W        W19141   7.652   0.101   5.774 -0.1265  0.1916  0.0346
 5728W        W19142  11.239  11.903   4.622 -0.1992 -0.1003  0.1405
 5729W        W19143   9.039  10.381  12.828 -0.0888  0.0407 -0.1293
 5730W        W19144  11.071  11.048   3.431  0.1518  0.0376  0.0902
 5731W        W19145  10.737   1.319  15.170 -0.3135  0.1681  0.0774
 5732W        W19146   2.491   4.796  11.173  0.1995 -0.1802  0.2220
 5733W        W19147   1.290   3.327   2.761  0.0891  0.0244 -0.1111
 5734W        W19148  14.011  18.177  12.278  0.1115 -0.0548  0.0231
 5735W        W19149  12.597   2.913   3.256  0.2366  0.1440 -0.0813
 5736W        W19150   3.755   8.259  12.991 -0.1978 -0.1195 -0.0125
 5737W        W19151  13.598   5.370  13.181 -0.1670  0.1147 -0.0156
 5738W        W19152  10.732  17.255   1.967 -0.1698  0.1529 -0.0314
 5739W        W19153   3.204  14.285   6.045  0.0069 -0.2351 -0.4122
 5740W        W19154  12.734   9.372   3.731 -0.2047  0.3501  0.0316
 5741W        W19155   7.692  17.625   0.064  0.2126  0.3787 -0.3479
 5742W        W19156   5.953  12.432  10.451 -0.0786 -0.0692  0.1810
 5743W        W19157   0.210  12.197  11.757  0.4396  0.1235 -0.0370
 5744W        W19158   9.921   7.613  10.453 -0.2421 -0.0898 -0.0345
 5745W        W19159  12.175  10.380   0.932  0.0559  0.1565 -0.1143
 5746W        W19160  11.199   2.462  11.703  0.1842  0.0343 -0.0466
 5747W        W19161  14.943   8.809   3.600 -0.4415  0.4154  0.0372
 5748W        W19162  14.834   2.228   0.950 -0.0724 -0.0668 -0.4808
 5749W        W19163  12.873   1.852  11.896  0.2398  0.0366 -0.1962
 5750W        W19164  14.483  10.249   6.022  0.3185 -0.3997  0.1133
 5751W        W19165   2.029   8.042   0.592 -0.3459  0.1849  0.2105
 5752W        W19166   4.656  14.908  16.040 -0.1087 -0.0358 -0.0595
 5753W        W19167   0.410   6.453   5.203 -0.0428 -0.0261  0.1000
 5754W        W19168   0.078  18.149  15.237  0.1918 -0.4062  0.0711
 5755W        W19169   6.923   8.870  11.347  0.0822  0.2533 -0.0913
 5756W        W19170   7.094   3.010   3.745  0.1546 -0.2759 -0.1445
 5757W        W19171  14.942  17.836  15.419  0.1939 -0.1188  0.2525
 5758W        W19172   1.081  10.383   5.428  0.0598  0.0248  0.0863
 5759W        W19173  18.326  11.439  12.910 -0.0510  0.1245 -0.0207
 5760W        W19174  11.438   7.961  15.563  0.3667  0.0614  0.0046
 5761W        W19175   2.526   1.900   2.611 -0.2404  0.1359  0.1340
 5762W        W19176   2.927   9.038  12.233  0.3374 -0.0838 -0.1900
 5763W        W19177  16.619   7.599   3.955  0.0473  0.0701 -0.1155
 5764W        W19178  10.212  10.542   4.486  0.3093  0.0800  0.0414
 5765W        W19179   0.598   0.080   4.267  0.1412  0.1027  0.0254
 5766W        W19180  12.195   0.683   1.707  0.1911  0.1261 -0.0780
 5767W        W19181   9.692  15.200  10.897  0.0849 -0.0941 -0.2701
 5768W        W19182  15.101   2.000   0.387  0.1281 -0.1302 -0.2365
 5769W        W19183  14.810   7.980   3.689 -0.0102  0.0182  0.2190
 5770W        W19184   3.576   1.574   1.641  0.3467  0.0920 -0.0212
 5771W        W19185   4.718  11.589   5.060  0.5047 -0.0808  0.0630
 5772W        W19186  14.424   6.209  12.650  0.1809  0.1923  0.1609
 5773W        W19187  11.655   8.936  10.611 -0.0890  0.0381 -0.3846
 5774W        W19188   2.072  16.525   2.683  0.1004  0.2198  0.1387
 5775W        W19189   4.303  10.017   5.641 -0.1822  0.1557 -0.0833
 5776W        W19190  10.522   9.772   1.106  0.3660  0.1550 -0.0224
 5777W        W19191   5.347  17.597  14.749  0.0461  0.0436  0.0992
 5778W        W19192  14.807  14.020  14.116 -0.2184  0.1703 -0.0925
 5779W        W19193   6.897  14.588   4.946 -0.0702  0.4003  0.1760
 5780W        W19194  10.418  18.322   0.140 -0.1124  0.1096  0.1733
 5781W        W19195  15.078   0.633  10.770 -0.0446  0.0246  0.2500
 5782W        W19196  15.548  10.851  14.404 -0.4651 -0.1926  0.1574
 5783W        W19197   4.333  17.306   4.504  0.0918 -0.0221  0.5121
 5784W        W19198  13.936   7.889  10.576  0.3227  0.0417 -0.3141
 5785W        W19199   7.381  13.430   4.588 -0.1176  0.0076 -0.0050
 5786W        W19200   0.704  14.589   0.580  0.0053 -0.1024 -0.0193
 5787W        W19201  17.709   3.121  15.230 -0.0890 -0.0419 -0.4013
 5788W        W19202   9.782  17.565   3.960  0.0355 -0.0966  0.1925
 5789W        W19203   4.382   2.213   4.437 -0.1362  0.2374  0.0866
 5790W        W19204  17.543   4.506  13.929 -0.2590 -0.0128 -0.0453
 5791W        W19205  15.528  13.026   5.581 -0.0098  0.2681  0.4016
 5792W        W19206   5.850  10.142   9.727  0.0813 -0.0116  0.1671
 5793W        W19207  15.338  17.463  14.647  0.0049 -0.0285  0.0535
 5794W        W19208  11.431   1.904   1.604 -0.1657  0.0780  0.2704
 5795W        W19209   2.204  12.944  11.871  0.2002  0.2262  0.0953
 5796W        W19210   5.194  17.559   6.304  0.0280  0.0064  0.2383
 5797W        W19211   1.037  17.355   3.822 -0.1445  0.1801 -0.0752
 5798W        W19212  12.291  17.012  11.034  0.0012  0.0430 -0.2527
 5799W        W19213  17.781   5.234   4.640 -0.1949 -0.3043 -0.2153
 5800W        W19214  15.371   7.259   4.170 -0.0393 -0.0203  0.1023
 5801W        W19215   5.522  11.015  15.643  0.0121  0.1651  0.2956
 5802W        W19216  18.063  17.356  11.316  0.1320  0.0810 -0.0248
 5803W        W19217   4.620   5.748  13.430  0.2588  0.2207 -0.0525
 5804W        W19218   7.126  15.274  14.626  0.0243 -0.0206  0.2812
 5805W        W19219  18.282  16.142   4.506  0.0372  0.0979  0.3192
 5806W        W19220  15.901  13.672   1.598  0.2248 -0.0003 -0.2611
 5807W        W19221   3.336   1.068  10.492 -0.0280 -0.0397  0.0647
 5808W        W19222   3.755   0.873  13.001  0.1161  0.2127 -0.0054
 5809W        W19223  15.853   4.823   2.036  0.0270 -0.0611  0.1407
 5810W        W19224   8.991   7.509  12.018 -0.1942  0.2102  0.1389
 5811W        W19225  15.569  11.690  10.952 -0.1447  0.0666  0.0872
 5812W        W19226  15.620   7.194  13.021 -0.1879  0.0586  0.0549
 5813W        W19227   5.622  16.425  11.843 -0.0066  0.1657  0.0329
 5814W        W19228  15.346  10.301   1.600  0.1730  0.2774  0.2267
 5815W        W19229   3.365   6.439   4.404  0.1012  0.1897 -0.0119
 5816W        W19230   0.947   4.521  14.269 -0.1704 -0.3444  0.0094
 5817W        W19231   7.013  17.013   0.109 -0.1529 -0.0259  0.1376
 5818W        W19232   4.835   2.562   1.140  0.0763  0.1751 -0.0143
 5819W        W19233   8.491   1.745  12.362  0.0549  0.2088  0.3971
 5820W        W19234   5.976   8.878  13.147  0.0457  0.1770 -0.2520
 5821W        W19235  16.287   6.831   0.851  0.1160 -0.1059  0.0677
 5822W        W19236  17.756   8.806  11.892  0.0260  0.0673  0.0161
 5823W        W19237   2.561   3.650  11.078  0.0884  0.0483  0.0302
 5824W        W19238   1.979   9.662   0.388  0.3296  0.0545  0.1686
 5825W        W19239  16.740   3.206   2.325 -0.1106  0.1067  0.2734
 5826W        W19240  16.645  13.666   5.641  0.0352 -0.0617 -0.1221
 5827W        W19241   7.256  10.917  16.128  0.2216 -0.4586  0.1774
 5828W        W19242  15.957  12.182   2.745 -0.0722 -0.0841  0.0014
 5829W        W19243   7.888  13.151   2.685  0.0730  0.0506  0.0371
 5830W        W19244   5.104  12.331  15.863 -0.0531 -0.0154 -0.0640
 5831W        W19245   5.775  11.515  10.812  0.1170 -0.1007  0.1687
 5832W        W19246   2.992   0.158   4.036 -0.0422 -0.2184 -0.3809
 5833W        W19247  16.680   7.371  11.797  0.1066  0.0600 -0.2577
 5834W        W19248   7.746  11.432   1.539  0.1460 -0.2233 -0.1907
 5835W        W19249  10.949  14.664   4.407 -0.0809  0.1184 -0.0539
 5836W        W19250   4.214   7.775   1.090  0.0682 -0.2017  0.1603
 5837W        W19251   9.199   7.402  12.420 -0.0735 -0.1789  0.0559
 5838W        W19252   3.328   5.104  13.366 -0.0920 -0.1404  0.2092
 5839W        W19253  16.444   9.686   4.190 -0.2040 -0.0674 -0.1485
 5840W        W19254   2.923   3.168   4.953 -0.0343  0.1000 -0.2893
 5841W        W19255  18.147   2.478   3.185 -0.3012  0.0864 -0.0565
 5842W        W19256   0.130   4.259  13.664 -0.1186  0.0437 -0.1894
 5843W        W19257   2.959   7.622   4.403 -0.0491 -0.2575 -0.1343
 5844W        W19258  10.105   4.826   4.262  0.2725  0.0450  0.0755
 5845W        W19259  11.102   8.122  11.558 -0.2526 -0.1211 -0.0722
 5846W        W19260  13.814   1.983   3.211  0.1044  0.1555  0.2362
 5847W        W19261   5.306  13.583  15.316 -0.0483 -0.0549 -0.0133
 5848W        W19262   9.380   4.038   1.837  0.2699 -0.2514 -0.1858
 5849W        W19263  12.924  13.182   1.216 -0.0184  0.0162 -0.2066
 5850W        W19264   4.143  18.195  14.914 -0.0923  0.1094  0.0365
 5851W        W19265   2.925   3.598  13.254  0.1637 -0.0855 -0.2536
 5852W        W19266   4.147   7.793   3.433 -0.0301  0.0273 -0.1521
 5853W        W19267  18.008   6.709   2.169  0.2471 -0.1407 -0.2011
 5854W        W19268   5.194   3.732  12.983 -0.0661  0.4361  0.1141
 5855W        W19269  11.047   5.815   4.815  0.1602 -0.0505  0.0595
 5856W        W19270   1.541  17.868  16.013  0.1317  0.3036  0.0935
 5857W        W19271   5.175  13.061  12.709  0.2026  0.2482 -0.0751
 5858W        W19272   3.924   2.989   5.800  0.1492 -0.2075 -0.0340
 5859W        W19273  13.319   6.899   2.721  0.1086  0.0668 -0.1100
 5860W        W19274  10.866   0.333  12.779  0.2966  0.0720  0.4105
 5861W        W19275  16.520  10.837   6.564  0.1419 -0.1592 -0.3106
 5862W        W19276   9.794   7.996   4.402 -0.1357 -0.0142  0.5337
 5863W        W19277  15.011   3.561  11.323  0.1479 -0.0599 -0.2476
 5864W        W19278  14.868  12.264  12.651  0.2421  0.1910 -0.0494
 5865W        W19279   0.869  10.026  13.206 -0.2701 -0.0768  0.1334
 5866W        W19280   3.049   9.699   3.576 -0.0522 -0.0253  0.4634
 5867W        W19281  17.961   8.002   2.975  0.2885  0.4313 -0.1579
 5868W        W19282   3.090  14.334  13.912  0.0578 -0.0060 -0.1171
 5869W        W19283  15.705   2.462  13.012 -0.2037 -0.3262 -0.2303
 5870W        W19284   8.308  15.296   2.571  0.0598 -0.1006  0.0719
 5871W        W19285   4.882   5.547   3.621  0.1539 -0.0216  0.1840
 5872W        W19286   8.081  11.042   0.610 -0.3164 -0.1150 -0.0413
 5873W        W19287   9.879  14.789   1.268 -0.0642 -0.0815  0.3846
 5874W        W19288  18.182   4.254   5.881 -0.1264 -0.2700  0.1006
 5875W        W19289   0.718   7.174  15.180 -0.0308 -0.0938 -0.2250
 5876W        W19290   9.673   2.584   3.942  0.1188 -0.0362 -0.0350
 5877W        W19291   5.942  10.278  12.479 -0.1347  0.2605  0.1830
 5878W        W19292  18.264   0.183  14.147  0.1053 -0.3062 -0.2793
 5879W        W19293  10.031  11.473   4.733 -0.2635 -0.1110 -0.2914
 5880W        W19294   2.765  13.629   1.721  0.0423 -0.3325 -0.0896
 5881W        W19295   1.026   9.493  10.276 -0.1737 -0.1436  0.1289
 5882W        W19296   7.354  14.580   5.617  0.1095 -0.0104  0.2718
 5883W        W19297  15.327  18.182  11.663 -0.0818  0.0351  0.1558
 5884W        W19298   3.546  13.158   2.233 -0.2014  0.1563  0.2647
 5885W        W19299   8.445  12.178   5.931 -0.0390 -0.2059 -0.2945
 5886W        W19300  17.522  16.708  14.141 -0.1919 -0.2639  0.0417
 5887W        W19301   3.351   8.352  11.114 -0.1506  0.0051  0.0550
 5888W        W19302   8.498  13.724  14.326  0.2705 -0.0282 -0.0105
 5889W        W19303   5.966  13.401   5.314  0.2232  0.0545  0.0696
 5890W        W19304   0.090   2.688  12.005 -0.1193  0.0669 -0.2741
 5891W        W19305   8.728  15.042  15.514 -0.0503  0.0453 -0.4840
 5892W        W19306  12.525  17.361  10.672  0.1154  0.0199  0.1768
 5893W        W19307  16.118   5.402  13.024 -0.5189  0.2071  0.2759
 5894W        W19308   2.710   4.163   4.783 -0.1674 -0.1475  0.1388
 5895W        W19309  18.273   3.636   3.327  0.1061 -0.1742  0.1979
 5896W        W19310   2.508   5.476  12.899  0.3066 -0.3629  0.2605
 5897W        W19311   7.664   0.660   5.127  0.0820 -0.0068 -0.0660
 5898W        W19312  16.102  17.752  11.243 -0.2412  0.0277 -0.0403
 5899W        W19313  17.019  14.835   2.634 -0.0252  0.1438 -0.1851
 5900W        W19314  10.402   6.130  14.975  0.0067  0.1376 -0.3167
 5901W        W19315   6.003   4.151  10.320  0.2665  0.0715 -0.1734
 5902W        W19316   3.740  17.948  12.040 -0.1557 -0.2533 -0.0862
 5903W        W19317   7.619   4.732   0.871  0.0297 -0.0348  0.0199
 5904W        W19318  13.243   3.909   3.116 -0.0549 -0.2851  0.1658
 5905W        W19319   9.755   0.290   2.001  0.1179 -0.1119 -0.2813
 5906W        W19320  14.171  10.732   0.394 -0.1277  0.1307 -0.1411
 5907W        W19321  13.024   1.494  15.823 -0.4164 -0.1683  0.0448
 5908W        W19322  15.351  13.866   0.263 -0.1276 -0.3453 -0.2071
 5909W        W19323   6.494   8.637  12.344  0.2743 -0.0152  0.0329
 5910W        W19324  12.682   9.585  11.952 -0.0231 -0.0093  0.0866
 5911W        W19325  17.183   8.564  12.760  0.2548 -0.2161 -0.1251
 5912W        W19326   2.577  11.633   5.401  0.0683 -0.1020 -0.2322
 5913W        W19327   0.674   5.613  10.649  0.3119  0.2192  0.2004
 5914W        W19328   8.615   5.898   5.837  0.2665 -0.1818  0.0321
 5915W        W19329   4.795   7.784  12.742 -0.1306  0.0966 -0.2848
 5916W        W19330  12.846  14.648   4.221  0.0136  0.0867  0.3699
 5917W        W19331   5.901   9.848  14.146 -0.0391 -0.1122  0.0522
 5918W        W19332  13.732   0.359  13.147 -0.0181 -0.1541 -0.1077
 5919W        W19333   8.658   9.346   2.883 -0.0331  0.1354 -0.2199
 5920W        W19334   4.479   7.521   4.889 -0.0607  0.2454  0.0084
 5921W        W19335  11.207   6.720   0.316 -0.2479 -0.0496 -0.0470
 5922W        W19336  14.203   8.031  13.378  0.1050  0.2651 -0.1033
 5923W        W19337  13.741  11.223  14.599 -0.0854 -0.1024  0.3414
 5924W        W19338  16.062   6.581   4.514  0.0722 -0.2011  0.2194
 5925W        W19339  18.105   7.478   5.427  0.1094 -0.0671  0.1297
 5926W        W19340   3.685  14.990   5.084  0.2262  0.2732  0.0424
 5927W        W19341   5.491  12.924  13.931  0.1239 -0.1554  0.0482
 5928W        W19342   0.282  15.391   0.994  0.0591  0.0717  0.0949
 5929W        W19343   1.465   1.981  15.408  0.1328  0.0101 -0.0492
 5930W        W19344   3.562  12.742  11.335 -0.0816 -0.2101 -0.0162
 5931W        W19345  10.374   0.533   4.698 -0.1677  0.0134 -0.0483
 5932W        W19346  12.788   8.103  10.988  0.3225  0.1077 -0.0407
 5933W        W19347   0.390   4.312   0.210 -0.2685 -0.1409  0.2966
 5934W        W19348  16.043   8.241   1.670  0.0423  0.0388  0.1190
 5935W        W19349   7.135   8.752  14.596 -0.2609 -0.0300 -0.0150
 5936W        W19350  14.277   6.495   6.255 -0.5353 -0.1978  0.2128
 5937W        W19351  11.668   2.206  13.239  0.2159 -0.1930 -0.2077
 5938W        W19352  18.259  14.013   5.621  0.1396  0.0004 -0.2603
 5939W        W19353   7.558  15.048  14.764  0.0550  0.0297  0.0071
 5940W        W19354  10.092   2.371   3.525 -0.2870 -0.1250 -0.1344
 5941W        W19355  10.433  14.737   2.448 -0.0126  0.0369 -0.2064
 5942W        W19356  12.198   2.171   1.838  0.0645 -0.0447  0.1357
 5943W        W19357  13.589  15.185  10.883  0.0069  0.3456  0.0952
 5944W        W19358   8.969   2.836   5.683  0.2301  0.1860  0.0022
 5945W        W19359  17.073   8.930   5.608  0.0380  0.0556  0.0433
 5946W        W19360   2.336  13.426  11.878 -0.1028 -0.0265  0.0605
 5947W        W19361  15.957  11.830   5.563 -0.1845  0.0767  0.0473
 5948W        W19362   3.874   7.092  11.407  0.1642  0.0599  0.0489
 5949W        W19363   3.878  10.786  14.933  0.1391  0.1103 -0.0868
 5950W        W19364  17.760   6.311   1.831 -0.0126 -0.3958 -0.0036
 5951W        W19365   6.878   6.271  11.838 -0.1858 -0.1153 -0.3898
 5952W        W19366  14.696  12.725   1.966 -0.2882  0.1335 -0.1359
 5953W        W19367   1.069   0.679   5.007  0.1297 -0.1908  0.3842
 5954W        W19368   4.806   5.330   1.172  0.2501  0.1446  0.0781
 5955W        W19369  10.713   3.533  16.169  0.0051 -0.0113 -0.0452
 5956W        W19370  10.591   4.427   4.436  0.1847 -0.1247 -0.0962
 5957W        W19371  11.901  11.817   0.749  0.1533  0.2668 -0.1548
 5958W        W19372  13.500   1.753  12.220  0.0270  0.0477 -0.0125
 5959W        W19373  16.067   4.868   0.947  0.0215  0.1930  0.0557
 5960W        W19374   9.482   2.894  12.946 -0.0251  0.0270  0.2210
 5961W        W19375  16.920   2.589   3.866 -0.1174  0.1395 -0.1085
 5962W        W19376   7.822   0.105   2.172  0.0983  0.2638  0.0226
 5963W        W19377   7.914   2.073   4.761  0.1956 -0.0736  0.0341
 5964W        W19378   8.438   7.062   0.404 -0.3621  0.0588  0.1777
 5965W        W19379   2.879   9.658  14.865 -0.1401  0.0432 -0.1203
 5966W        W19380   4.212   7.234  14.038  0.1610  0.0948 -0.0782
 5967W        W19381   7.609   2.105  11.229 -0.1904  0.1284  0.0095
 5968W        W19382   4.139   3.399  13.108 -0.5127  0.1557  0.3377
 5969W        W19383   2.564  10.550   4.785 -0.0294 -0.1970 -0.2072
 5970W        W19384  14.407  10.667   5.578  0.1219  0.1615 -0.1607
 5971W        W19385  14.454   2.827   3.603  0.1193  0.4040 -0.2433
 5972W        W19386   4.729   0.207   5.536  0.2291  0.0196 -0.0630
 5973W        W19387   7.394  11.346   0.665 -0.2746  0.0170 -0.2297
 5974W        W19388  17.418  11.249  10.180 -0.4690 -0.3528  0.2445
 5975W        W19389  12.606   2.559   3.636  0.0926 -0.1703  0.1976
 5976W        W19390  11.483   1.713  15.629  0.0092  0.1253  0.1536
 5977W        W19391   7.028  17.093   1.568  0.1249 -0.0233 -0.0382
 5978W        W19392  12.043   4.071   4.174 -0.1268 -0.1406  0.1324
 5979W        W19393   0.866  14.487   2.122  0.2512  0.0188 -0.2601
 5980W        W19394  15.134   2.349  14.219 -0.2116  0.0314 -0.2698
 5981W        W19395   0.580   9.277  13.537 -0.2762 -0.2246  0.1761
 5982W        W19396  10.033  16.893   0.221 -0.0622  0.1141  0.0922
 5983W        W19397  10.810  16.458  14.734 -0.0301  0.2076 -0.0102
 5984W        W19398  14.727  13.342  12.057  0.0106 -0.1611  0.2976
 5985W        W19399  14.721   3.701   1.080 -0.2146 -0.3022  0.2281
 5986W        W19400  11.988  14.625  14.050 -0.0295 -0.0480  0.2792
 5987W        W19401   0.651  18.175  11.270  0.4709 -0.1959  0.2627
 5988W        W19402  16.611  10.894  13.895 -0.3986  0.2630  0.3044
 5989W        W19403   1.529  14.833  12.601 -0.0151  0.2369  0.2477
 5990W        W19404  18.438  15.115   5.084  0.0894  0.0667  0.0888
 5991W        W19405  11.990  13.117   5.072 -0.0623  0.1320 -0.0588
 5992W        W19406   5.998   3.555  15.675  0.0355 -0.0910 -0.2592
 5993W        W19407  16.781  13.906  14.573 -0.1911  0.0199 -0.1245
 5994W        W19408  10.353  13.070  14.424 -0.0767  0.0591  0.2352
 5995W        W19409  11.914  10.351  14.716  0.1842 -0.2368  0.1414
 5996W        W19410   1.710  11.754  15.128 -0.1635 -0.0930 -0.0046
 5997W        W19411   9.117  16.784   0.576  0.1483 -0.1176 -0.0398
 5998W        W19412  12.984   2.731   1.130  0.0489 -0.3055 -0.1160
 5999W        W19413   8.293  15.786   2.464  0.0533  0.2258  0.1962
 6000W        W19414  12.790  18.048   5.058 -0.1322 -0.2151 -0.0351
 6001W        W19415   3.940  10.180   2.803  0.2149 -0.0056 -0.1503
 6002W        W19416  15.736  15.255   4.281 -0.0367  0.0550  0.1892
 6003W        W19417   8.471  10.215  15.501 -0.0718 -0.2610 -0.1291
 6004W        W19418   9.353  13.803  11.838 -0.1313 -0.0238 -0.0321
 6005W        W19419  17.405  13.122   4.934 -0.0250 -0.0132  0.0038
 6006W        W19420   9.448   6.739   2.281  0.1947 -0.4148  0.2232
 6007W        W19421   7.576   0.741  10.940 -0.0203 -0.1529  0.0167
 6008W        W19422   0.054  17.033   5.081  0.1707 -0.1939  0.2876
 6009W        W19423   5.822   1.202  15.262 -0.2425  0.0343 -0.0889
 6010W        W19424   9.501  10.757  10.279  0.0551 -0.3062 -0.3909
 6011W        W19425  15.774   0.296  14.535  0.2961  0.2224 -0.2342
 6012W        W19426  12.145   3.485   6.285 -0.3707  0.2089 -0.0946
 6013W        W19427   4.669   0.555   5.002  0.0394 -0.1171 -0.0185
 6014W        W19428   3.956  13.461   4.568  0.1604  0.1413 -0.2787
 6015W        W19429   3.048  11.782  14.667  0.1246  0.0494  0.0552
 6016W        W19430  16.674   8.169   2.067  0.1298 -0.0370 -0.1056
 6017W        W19431  12.222  13.783   3.103 -0.2031 -0.2325 -0.0866
 6018W        W19432  17.037   5.637  15.653 -0.0825 -0.1096  0.3517
 6019W        W19433  10.418   1.763  16.169 -0.0641  0.0230  0.0919
 6020W        W19434   2.984  12.325  12.729  0.1503  0.3499 -0.2928
 6021W        W19435   1.796  15.188   1.490 -0.1660  0.0028  0.1738
 6022W        W19436   9.225  10.753   1.938  0.1396 -0.0432  0.1299
 6023W        W19437   0.259   2.604   3.435  0.1205 -0.2646 -0.2213
 6024W        W19438   1.687   6.973   1.929  0.2527 -0.3801 -0.0223
 6025W        W19439  11.313   9.309  11.322  0.1783 -0.0008  0.0075
 6026W        W19440   0.511  18.304   1.943 -0.0317  0.0167  0.3313
 6027W        W19441   8.638  15.697  16.165  0.0976 -0.0917 -0.3049
 6028W        W19442  14.192  15.992   1.619 -0.1537 -0.0975  0.1672
 6029W        W19443  14.124   3.436  15.759 -0.1006  0.0159  0.1187
 6030W        W19444  17.522  11.227  11.712  0.3596  0.0407 -0.1130
 6031W        W19445   8.998  13.407  14.021  0.2145 -0.0753 -0.2423
 6032W        W19446  13.152   6.362   5.928  0.2457  0.2724  0.2476
 6033W        W19447  13.718   9.018  13.845  0.0902  0.1861  0.1492
 6034W        W19448   7.463  13.356   4.052  0.1396  0.2740 -0.0059
 6035W        W19449  13.309  15.229   0.247  0.0947  0.2591 -0.1173
 6036W        W19450   4.249   9.076  12.908 -0.3456 -0.1373  0.2640
 6037W        W19451  17.285   3.547   0.070  0.0135 -0.1784 -0.0987
 6038W        W19452  17.440  14.889  13.685  0.0883  0.0842 -0.0009
 6039W        W19453  16.806   9.980   5.748 -0.0596 -0.1404 -0.3013
 6040W        W19454   5.780   5.888   5.934  0.0562  0.1303  0.0204
 6041W        W19455   6.906   5.777   5.516 -0.2392  0.0761 -0.1299
 6042W        W19456   0.494  13.366  14.304 -0.4062 -0.0334  0.2476
 6043W        W19457   3.118  10.030  14.003 -0.1212  0.2553  0.0902
 6044W        W19458   6.894  14.481   5.845 -0.1179  0.1557 -0.1618
 6045W        W19459  16.464   2.802   0.267  0.2066 -0.1712 -0.1939
 6046W        W19460   5.163   0.956  12.230  0.0520  0.5468  0.1295
 6047W        W19461   9.831   5.413  13.597  0.0893  0.2095  0.1853
 6048W        W19462  10.077   0.290  15.045 -0.0374  0.1185  0.0385
 6049W        W19463   0.331  12.332  11.281 -0.0314 -0.1343 -0.1495
 6050W        W19464  15.760   5.471  14.029 -0.1607  0.2722  0.0314
 6051W        W19465  11.365   8.841  10.986  0.1359  0.1965  0.2875
 6052W        W19466  16.326   3.272  14.700  0.2574  0.1407 -0.2988
 6053W        W19467  12.987  10.696   4.043  0.0006 -0.2560  0.3535
 6054W        W19468   9.068  16.554  15.167  0.1573  0.0358  0.2653
 6055W        W19469  17.795   8.916  12.880 -0.1030 -0.2097 -0.1037
 6056W        W19470  16.245   6.213  12.338  0.0793  0.1388 -0.1420
 6057W        W19471   4.469   7.448  10.742  0.1505 -0.3658 -0.1762
 6058W        W19472   1.765  16.798   4.575  0.2622 -0.4817 -0.1306
 6059W        W19473   9.144   7.931  13.931 -0.0808  0.0144  0.1401
 6060W        W19474  10.270   4.285  14.633  0.2011 -0.2207 -0.1350
 6061W        W19475  16.329  17.246   2.553 -0.0835  0.0643 -0.0699
 6062W        W19476  16.724  16.252  13.648 -0.1651  0.1537  0.0896
 6063W        W19477  11.748   5.416  14.594 -0.0857  0.3945 -0.3554
 6064W        W19478  11.466  15.651   1.632  0.0517  0.0246  0.0316
 6065W        W19479  16.653   6.924   1.781  0.1554  0.1901  0.2832
 6066W        W19480   4.251   9.162   1.869  0.2427  0.0928  0.2376
 6067W        W19481   9.893   5.763   4.055  0.0501 -0.1762  0.2270
 6068W        W19482  14.808   6.923   5.240 -0.2234  0.3421 -0.0657
 6069W        W19483   8.122  15.432   0.257  0.0820 -0.0407  0.0577
 6070W        W19484   2.097  10.361   1.479  0.0606 -0.0876 -0.0891
 6071W        W19485  17.099   0.383  15.457  0.3589 -0.2241 -0.1039
 6072W        W19486   1.465   5.422   0.091 -0.1712 -0.0298 -0.0403
 6073W        W19487  16.396  11.803   4.616  0.0063  0.0388 -0.3317
 6074W        W19488   0.619  15.977   0.448 -0.1441 -0.0221  0.0337
 6075W        W19489  12.035  16.574  14.137  0.2746 -0.0708  0.2054
 6076W        W19490  18.409  11.439  14.752 -0.0339  0.2204  0.0220
 6077W        W19491   8.739   4.965  13.349 -0.1779  0.0210  0.2422
 6078W        W19492   8.865   5.523   0.572  0.0930 -0.2889 -0.1870
 6079W        W19493   9.785  14.251   0.188 -0.3307 -0.0601  0.0036
 6080W        W19494   3.333   5.216   3.223 -0.0643 -0.0438  0.1574
 6081W        W19495   5.751   3.048  13.866 -0.1538  0.0409 -0.1781
 6082W        W19496   4.354  12.441   3.132  0.1896  0.0241  0.1316
 6083W        W19497   3.469  11.158  16.155 -0.0214  0.0530 -0.0611
 6084W        W19498   3.274  10.324  11.063 -0.5317 -0.1346 -0.1178
 6085W        W19499  18.120   6.487   1.007 -0.1666  0.1709 -0.0212
 6086W        W19500  10.670   1.721   3.656 -0.3401 -0.2092  0.1332
 6087W        W19501   9.041  14.182   1.415  0.2248 -0.1060 -0.1946
 6088W        W19502  14.417  14.274  16.232  0.2165  0.1760 -0.0647
 6089W        W19503   4.048  11.804  15.974  0.1806  0.0146 -0.2243
 6090W        W19504   2.190   6.356  11.164 -0.0139  0.1968  0.1399
 6091W        W19505   8.529   9.075   1.118  0.1804 -0.3944 -0.0912
 6092W        W19506   2.044   2.511   1.537 -0.1695  0.0063 -0.3742
 6093W        W19507   8.973   3.791   2.758  0.1231 -0.0866 -0.0344
 6094W        W19508  16.143   1.735   3.848  0.0379  0.0137 -0.0189
 6095W        W19509   8.964  11.970  13.502  0.1122  0.3417 -0.2439
 6096W        W19510  15.809   3.659  12.408 -0.1949  0.0260  0.1593
 6097W        W19511   7.170  13.253   5.584 -0.0754  0.1354  0.2546
 6098W        W19512   7.017  13.316   2.384  0.3488  0.1288 -0.1961
 6099W        W19513   6.344  16.043   1.673 -0.0526 -0.1419 -0.3443
 6100W        W19514  16.631  13.083   0.399  0.0852  0.0893 -0.3416
 6101W        W19515  15.802  13.656  12.507 -0.4202  0.2534 -0.0664
 6102W        W19516  14.044   3.154  15.163 -0.0080 -0.1725  0.2797
 6103W        W19517   3.758   4.887   2.602  0.1243  0.4047 -0.2434
 6104W        W19518  17.812   2.460   1.707 -0.2408  0.1573  0.1846
 6105W        W19519  11.672   1.056   3.436 -0.0254  0.3432  0.0674
 6106W        W19520  18.242  15.608   3.584  0.0545 -0.0340 -0.0343
 6107W        W19521  17.360   5.779  11.922 -0.0796  0.0510  0.0453
 6108W        W19522   7.725  13.904   0.188  0.2820  0.2108  0.0320
 6109W        W19523  11.783   2.268  14.290  0.1212  0.2519  0.3549
 6110W        W19524   5.605  12.045  10.805  0.0042  0.2353  0.0174
 6111W        W19525   0.883   6.687   5.216 -0.2966 -0.2219  0.2317
 6112W        W19526  18.195   3.826  11.306 -0.0345  0.0670  0.0165
 6113W        W19527   1.981  14.145   0.750 -0.0976 -0.1779 -0.2455
 6114W        W19528  16.328   5.534   5.572 -0.2103  0.2546 -0.0469
 6115W        W19529  10.551   0.665  13.017 -0.1932 -0.2026  0.3658
 6116W        W19530  17.045   3.789   2.615 -0.2445 -0.0559  0.2516
 6117W        W19531   1.089  14.211   4.397  0.0526 -0.3836  0.2029
 6118W        W19532  11.851   7.367  14.921 -0.3040  0.1495 -0.1485
 6119W        W19533  11.746   3.044  14.690 -0.4463 -0.1859  0.2760
 6120W        W19534  17.644  16.677  15.089  0.2430 -0.2438 -0.1471
 6121W        W19535   5.078  18.296  15.430 -0.1424  0.0416  0.2553
 6122W        W19536   3.320   7.448   3.903 -0.0681  0.0503  0.0132
 6123W        W19537   6.506   5.830  12.653 -0.2652  0.0836 -0.0173
 6124W        W19538   1.301   2.600   2.557  0.0839 -0.1104 -0.0420
 6125W        W19539  18.037  13.294   2.670 -0.1523 -0.0819 -0.0740
 6126W        W19540   4.700  14.773  14.515 -0.4011  0.0148  0.1166
 6127W        W19541  17.921  15.825  12.828 -0.4760 -0.0566  0.0789
 6128W        W19542   2.993  11.032  10.642  0.2061  0.0136 -0.1991
 6129W        W19543   9.590   2.959   0.507  0.2778 -0.0604 -0.2556
 6130W        W19544  11.115   1.718  12.399  0.1812 -0.1959 -0.3874
 6131W        W19545   9.403   2.372  12.130 -0.1734 -0.3748  0.1718
 6132W        W19546  12.264  12.958   0.824  0.1755 -0.2826  0.2226
 6133W        W19547  13.224   1.394  10.975  0.3030  0.3784  0.1816
 6134W        W19548   9.229  13.722   1.505 -0.1327 -0.0957 -0.2282
 6135W        W19549  11.699  16.106  10.517  0.1010  0.0602 -0.0635
 6136W        W19550  16.084   6.920   4.868 -0.0889 -0.0687 -0.2653
 6137W        W19551  17.679  10.526   5.688 -0.2569  0.3844  0.1266
 6138W        W19552  16.210   6.023  10.788  0.0294  0.2177  0.3026
 6139W        W19553   3.931  13.061  15.291 -0.3412  0.0677 -0.1369
 6140W        W19554   8.591   5.815   0.932  0.2548 -0.0272 -0.1085
 6141W        W19555   9.116  10.766  15.228  0.3047  0.2011  0.0720
 6142W        W19556   9.312   3.555   2.493  0.1937  0.1867  0.1718
 6143W        W19557  10.813   9.047  11.607  0.1476 -0.0494  0.0431
 6144W        W19558   5.701  13.665   0.473 -0.0312  0.2134 -0.3188
 6145W        W19559  12.304   6.616  11.901 -0.0182 -0.2613 -0.2762
 6146W        W19560   4.154   5.763   3.408 -0.3012  0.0978  0.0340
 6147W        W19561  16.349   7.911   0.644 -0.2209 -0.4892 -0.1307
 6148W        W19562  16.185   3.944  13.437 -0.1265  0.1260 -0.0858
 6149W        W19563   7.040   4.281   4.798  0.0501 -0.2634  0.1003
 6150W        W19564  16.448   5.730  14.298  0.1596  0.2679 -0.3768
 6151W        W19565  15.950   4.490  12.713 -0.1553 -0.0960 -0.0775
 6152W        W19566  12.403   1.838  12.793 -0.0987 -0.1830  0.1229
 6153W        W19567   9.636   6.514  15.389 -0.0847  0.1933  0.0749
 6154W        W19568   7.166  17.252  13.520  0.0317 -0.0093  0.1307
 6155W        W19569   5.450   0.782  14.500 -0.3432 -0.1835 -0.0738
 6156W        W19570   8.726   1.237  14.663  0.0589 -0.1684  0.2476
 6157W        W19571  12.337   3.912  14.834  0.0980  0.1128  0.4027
 6158W        W19572  15.624  17.126   0.309 -0.1194 -0.2426 -0.1419
 6159W        W19573   7.532   3.499   2.521  0.1581 -0.0178 -0.3042
 6160W        W19574  16.619  11.312   1.219  0.0388 -0.0475  0.1821
 6161W        W19575   0.835  10.356   2.514  0.0576  0.1251  0.0248
 6162W        W19576   1.804   6.913  12.094  0.1416 -0.1353 -0.0015
 6163W        W19577   6.894  15.577  10.871 -0.0454  0.1524  0.2797
 6164W        W19578   6.034  15.701  12.718  0.2639  0.1947  0.1292
 6165W        W19579   1.894  14.580  12.475 -0.2896 -0.0867  0.0673
 6166W        W19580   3.789   6.758   2.388  0.1094  0.1081  0.3211
 6167W        W19581   1.520  12.487   1.818  0.1870 -0.3871  0.0831
 6168W        W19582  12.838   5.703  10.513 -0.2615 -0.1552 -0.3013
 6169W        W19583  12.409   7.984   3.894  0.0775 -0.2384 -0.1921
 6170W        W19584  16.284  12.017   3.354 -0.3672  0.4354 -0.1605
 6171W        W19585   2.828   3.388  11.942  0.2570  0.1668 -0.1086
 6172W        W19586   3.270  16.453   0.094  0.0893  0.2855  0.0800
 6173W        W19587  13.054  14.745  13.411 -0.0245 -0.3828  0.1269
 6174W        W19588  14.165   8.278   5.681  0.0141 -0.0780  0.0782
 6175W        W19589  12.401  17.898   2.644  0.0582 -0.1193  0.1986
 6176W        W19590   6.420   4.138  14.775 -0.1411 -0.0434 -0.1262
 6177W        W19591  11.511   3.541  13.452 -0.0706  0.0965 -0.1013
 6178W        W19592  17.232   5.415  12.296 -0.1121  0.1237  0.1648
 6179W        W19593  17.153  11.322  16.220 -0.0204 -0.0958 -0.0303
 6180W        W19594  10.091   1.395  15.783  0.1094 -0.1215  0.1256
 6181W        W19595   8.278   4.532   4.623 -0.0665 -0.1839  0.0099
 6182W        W19596  11.195   2.703  13.089  0.2656  0.0481  0.0057
 6183W        W19597   5.116   4.616  14.229 -0.0181 -0.0909  0.0316
 6184W        W19598  11.595  12.361   4.883 -0.1701 -0.0176 -0.2349
 6185W        W19599   1.638   3.066   2.366 -0.0439  0.0206  0.2056
 6186W        W19600   6.715  15.040   4.578  0.2115 -0.0880  0.3320
 6187W        W19601  13.871   8.682   6.263  0.0216 -0.1485  0.0270
 6188W        W19602   5.785  17.213  14.906  0.1788  0.0651  0.0176
 6189W        W19603   3.178  15.549  15.296 -0.1908  0.0641 -0.0073
 6190W        W19604  16.604  12.694  14.281 -0.0319  0.1120  0.0757
 6191W        W19605   9.590  15.412  15.703  0.1766  0.0591 -0.0369
 6192W        W19606  16.256   2.681  13.066 -0.2560  0.1898 -0.1375
 6193W        W19607  12.583   4.078  15.679  0.0510  0.0666 -0.0164
 6194W        W19608   6.104   5.943   3.362 -0.0584  0.1170  0.0342
 6195W        W19609   7.556   5.180  14.724 -0.0162 -0.1181 -0.3608
 6196W        W19610   1.546  16.278  14.893 -0.2577 -0.1201 -0.2126
 6197W        W19611  17.480  16.988   2.074  0.3294  0.2212 -0.2353
 6198W        W19612   8.285   9.890  13.955  0.0242 -0.2086 -0.1082
 6199W        W19613  14.969   0.696   4.506  0.1492 -0.1875  0.2177
 6200W        W19614  10.707  13.950   4.159  0.1007 -0.2130  0.2341
 6201W        W19615   9.537   0.870  11.445  0.0876 -0.1853 -0.0532
 6202W        W19616   1.174   9.804   1.134  0.1257  0.2319 -0.0115
 6203W        W19617  15.541  10.538   3.500  0.1963 -0.1486  0.1037
 6204W        W19618  16.412  10.561  12.973  0.2635 -0.1171  0.2272
 6205W        W19619  16.627  13.282  10.549  0.3165  0.0567  0.0054
 6206W        W19620   9.051  17.640  11.361  0.3984  0.1475  0.2119
 6207W        W19621   7.032  14.040   1.487  0.1038 -0.1265  0.2964
 6208W        W19622   5.783   5.114   1.863 -0.1605 -0.1069 -0.2075
 6209W        W19623   1.825   5.527  15.515 -0.0052  0.0135 -0.0443
 6210W        W19624   4.993  10.584  11.534 -0.1132  0.1763 -0.0748
 6211W        W19625  10.650   2.715  15.690 -0.1066  0.0197  0.1486
 6212W        W19626   7.653   3.342   5.799  0.0571 -0.1267 -0.0443
 6213W        W19627   3.884   9.008   3.859  0.1676 -0.2596  0.3672
 6214W        W19628   8.746  10.153  14.130 -0.3233  0.1785  0.2794
 6215W        W19629   5.236   4.538   1.271 -0.1224 -0.1210  0.2183
 6216W        W19630  13.786  12.926  13.958 -0.2557 -0.1009 -0.1205
 6217W        W19631   1.861   6.125   2.746 -0.3081 -0.2292 -0.1558
 6218W        W19632   5.901  12.803  15.825 -0.1042  0.2534  0.1216
 6219W        W19633   3.765  12.435  11.704 -0.0515  0.1721 -0.2955
 6220W        W19634   7.875  11.231  13.221 -0.0978  0.0450  0.1058
 6221W        W19635  15.645   9.439   1.879 -0.0800 -0.1348  0.2379
 6222W        W19636  15.646   9.153   3.165  0.2127  0.0020 -0.1161
 6223W        W19637  16.906  16.837  10.405  0.0879 -0.1009 -0.0672
 6224W        W19638  11.427   0.809  12.194 -0.2376  0.1117  0.1150
 6225W        W19639   9.245   0.544   1.827  0.0860 -0.1117 -0.0345
 6226W        W19640   2.426   6.435  12.087 -0.0002 -0.2545  0.1651
 6227W        W19641  13.025  13.383   0.002  0.1059 -0.1284  0.0534
 6228W        W19642  16.086   7.529  13.153  0.2125 -0.2232 -0.0435
 6229W        W19643   8.417  13.092   3.202 -0.1169  0.0191 -0.1983
 6230W        W19644  15.994   0.632   4.137 -0.1031 -0.1946  0.3028
 6231W        W19645   2.052   1.548   4.425  0.0186 -0.1274 -0.3287
 6232W        W19646   4.371   8.322  16.078  0.0659  0.1343 -0.1320
 6233W        W19647   4.655   7.856   3.436  0.2364 -0.2229  0.1426
 6234W        W19648   8.184   8.752  16.136 -0.1479  0.1959  0.5944
 6235W        W19649  15.835  11.001   4.195 -0.1226 -0.1536  0.0879
 6236W        W19650   7.202   7.684  10.872 -0.2314 -0.4645  0.2598
 6237W        W19651  14.551   6.293  14.177  0.2712 -0.0806  0.2017
 6238W        W19652  16.081   7.636   5.093 -0.3214 -0.1389  0.4101
 6239W        W19653  13.880  13.098  11.592 -0.1219  0.1649 -0.4072
 6240W        W19654   3.128  14.912  15.992 -0.1162  0.0033  0.2093
 6241W        W19655  14.347   9.207   5.455  0.0755 -0.1281  0.0619
 6242W        W19656   5.655   9.855  13.338  0.0615  0.1759  0.0646
 6243W        W19657   2.220   9.709  12.455 -0.0681 -0.2964 -0.0764
 6244W        W19658  10.801  10.111  14.002 -0.1236  0.2478 -0.0101
 6245W        W19659   6.085  11.429   3.647  0.0347 -0.1910  0.0281
 6246W        W19660   0.105  10.678   0.738 -0.0131 -0.1283 -0.1207
 6247W        W19661  12.190   2.388  14.004  0.3622  0.2352 -0.0413
 6248W        W19662  16.201  16.466  14.976  0.2968  0.0555  0.2811
 6249W        W19663  18.188  18.205  10.852 -0.4719  0.0210  0.1356
 6250W        W19664   0.468  17.601   4.211  0.0275 -0.3063 -0.3527
 6251W        W19665  15.804  14.327  15.811  0.2666 -0.1226  0.4525
 6252W        W19666  17.366   1.024   1.406  0.1712  0.1405  0.2335
 6253W        W19667  13.782   6.831   5.536  0.0386 -0.3554 -0.1290
 6254W        W19668  13.347  16.959   3.823 -0.2707 -0.3600 -0.0805
 6255W        W19669   9.249   0.142   1.109  0.0058  0.2091 -0.0886
 6256W        W19670  11.139   6.828   1.064  0.1452 -0.0886 -0.2800
 6257W        W19671  16.202   5.325  11.377  0.0462  0.0744 -0.0608
 6258W        W19672  11.779   2.570   4.174  0.1246 -0.4705  0.0758
 6259W        W19673   0.752  14.296  14.759 -0.2351  0.1144 -0.4040
 6260W        W19674   2.083   1.136   2.054 -0.1352  0.1666  0.2519
 6261W        W19675  17.218   9.300   2.935 -0.0360 -0.1407  0.2486
 6262W        W19676   3.396  17.663   4.926 -0.1138 -0.4317 -0.4779
 6263W        W19677  15.793  16.199  13.367  0.1679  0.3306 -0.2159
 6264W        W19678  17.420  17.190  16.137  0.1767 -0.3601 -0.0229
 6265W        W19679  16.451  11.280   3.922  0.2203  0.0978  0.5586
 6266W        W19680  15.492   9.888   0.829  0.0907 -0.0252  0.2252
 6267W        W19681  16.440  12.813   3.074 -0.0465 -0.0429 -0.3780
 6268W        W19682   4.098  16.955   5.958 -0.0983 -0.1101 -0.1107
 6269W        W19683  12.520  17.313  10.195 -0.1626  0.2414  0.0365
 6270W        W19684   7.835  12.277   1.023  0.1191  0.1478  0.2397
 6271W        W19685  13.596   7.722  15.519 -0.0099 -0.0495  0.4669
 6272W        W19686   5.633  11.987  13.831 -0.1784  0.0842 -0.5275
 6273W        W19687  15.172  16.614  14.745  0.0604 -0.1609 -0.0955
 6274W        W19688  13.197   0.670   0.687 -0.2484 -0.2425 -0.1571
 6275W        W19689   9.507   4.340  12.050 -0.0208 -0.2327  0.2159
 6276W        W19690   8.767   8.425  13.201 -0.2181 -0.1682 -0.0600
 6277W        W19691  14.359   0.921  11.038 -0.0797 -0.0540  0.0010
 6278W        W19692   6.989  12.719  12.382 -0.0016 -0.2588 -0.1196
 6279W        W19693  16.856  18.325  12.390 -0.1564 -0.0035  0.1543
 6280W        W19694   2.332  17.880   3.887  0.3162  0.1020 -0.2904
 6281W        W19695  11.469   6.784  12.212 -0.0870 -0.0010  0.0953
 6282W        W19696   8.844  15.237  16.011  0.2017 -0.2011  0.3167
 6283W        W19697  15.980   1.756   3.313 -0.1694  0.1737  0.0579
 6284W        W19698  14.403  13.015   4.632 -0.1687  0.3486  0.1520
 6285W        W19699   3.198  13.144   1.859  0.2071 -0.1639 -0.2457
 6286W        W19700   4.864   9.392   2.626 -0.0633  0.4782  0.0934
 6287W        W19701  16.001  12.373  13.359  0.0872 -0.0019 -0.1131
 6288W        W19702   0.293   1.973  15.352  0.0037 -0.4689  0.1694
 6289W        W19703   4.871   0.967  15.299  0.1105 -0.0024 -0.0375
 6290W        W19704  10.531  11.398   0.842  0.3265  0.1148  0.0301
 6291W        W19705  17.879  12.677  12.707  0.0596 -0.1205  0.3457
 6292W        W19706  13.238   8.986  15.029 -0.0552 -0.0328  0.0026
 6293W        W19707   3.928  18.446   1.139  0.1009  0.0723  0.1211
 6294W        W19708   9.051   0.324  12.310  0.3176 -0.2070 -0.0201
 6295W        W19709  10.987   0.398  10.926 -0.1220  0.1923 -0.0733
 6296W        W19710   8.975   9.726   4.172 -0.0806  0.2455 -0.0409
 6297W        W19711  10.596   6.218  14.466 -0.0909 -0.0609 -0.0945
 6298W        W19712   3.326   5.422   2.381  0.1876 -0.0042 -0.1904
 6299W        W19713  12.519  12.605   0.527 -0.2452 -0.0068  0.0617
 6300W        W19714   2.104   9.048  11.208  0.0770 -0.0912  0.3860
 6301W        W19715  18.169  10.325  14.026  0.2745  0.1972  0.0279
 6302W        W19716  15.854  12.256  14.428  0.1254  0.0752 -0.1840
 6303W        W19717   2.449   3.663   4.361  0.2047  0.0248 -0.0877
 6304W        W19718  11.083   0.611  16.137 -0.1982 -0.0144 -0.0660
 6305W        W19719  13.418   2.844   5.302  0.0589 -0.1504 -0.1297
 6306W        W19720   9.864   1.995   3.829  0.3166 -0.0261  0.0457
 6307W        W19721  15.674  12.645  12.504 -0.3377  0.1984 -0.0511
 6308W        W19722   8.554  13.521   1.338  0.3812 -0.2519  0.1223
 6309W        W19723   1.767   7.608  12.465 -0.0744  0.0360 -0.0985
 6310W        W19724   7.245  10.999  13.651  0.4227  0.0742 -0.1769
 6311W        W19725  13.442   7.076   4.128 -0.1406  0.0444  0.2787
 6312W        W19726  17.921   3.486   1.652 -0.1772 -0.3272 -0.0761
 6313W        W19727   7.340  16.287  11.958 -0.0420 -0.0173  0.2278
 6314W        W19728   2.883   8.303   1.594  0.3211  0.2723 -0.1794
 6315W        W19729   1.385   8.341  15.798  0.0484 -0.1102  0.0171
 6316W        W19730   6.116  14.250   1.996 -0.0884 -0.0783  0.4532
 6317W        W19731  14.088   4.520   1.900  0.5563 -0.1934 -0.1041
 6318W        W19732  16.937   7.589   3.526  0.1932  0.1584  0.0838
 6319W        W19733   8.863   4.874  14.920  0.1125 -0.1443  0.0785
 6320W        W19734  10.991  12.100  12.478  0.2354  0.0486 -0.0135
 6321W        W19735   7.084   2.782  13.815 -0.0874  0.1411  0.3540
 6322W        W19736   5.804   0.251  12.527  0.0722 -0.3320  0.0866
 6323W        W19737   7.255   2.074   3.999 -0.1013  0.1499  0.1196
 6324W        W19738   9.996   8.962  11.709 -0.2415  0.2399  0.0781
 6325W        W19739   8.496   0.659   4.299  0.2232 -0.0995 -0.1944
 6326W        W19740  18.246   0.831  10.950 -0.0801 -0.2012  0.2503
 6327W        W19741  10.719   4.295  13.560 -0.2066  0.1497 -0.0857
 6328W        W19742   7.187  16.434   3.687 -0.0283 -0.0228 -0.0510
 6329W        W19743  12.046   9.899  13.202 -0.0493  0.0763  0.0623
 6330W        W19744   6.899   0.533  12.683 -0.2269 -0.0339 -0.0261
 6331W        W19745   2.578  10.503  11.785  0.1278  0.2855  0.1084
 6332W        W19746  10.720  18.171  11.352 -0.1498 -0.1245 -0.0690
 6333W        W19747   0.233  15.432  11.818 -0.1515  0.1156  0.1710
 6334W        W19748  18.420  14.291   4.602 -0.0249  0.1034  0.2924
 6335W        W19749   5.143   6.004   3.345  0.1211 -0.0286 -0.0445
 6336W        W19750   2.217   9.964   3.069 -0.0301 -0.0249 -0.1174
 6337W        W19751   6.487  16.322   1.245 -0.0006  0.0251 -0.2590
 6338W        W19752  10.234  15.867  11.433 -0.0509  0.3161 -0.0706
 6339W        W19753  12.043   6.497   1.405 -0.0503  0.1494 -0.1159
 6340W        W19754   9.254  14.842  10.968 -0.2217 -0.1443  0.1520
 6341W        W19755  14.261  16.510  13.112  0.1943  0.0816  0.0229
 6342W        W19756   3.240   3.148   3.075  0.2168 -0.1962  0.1460
 6343W        W19757   5.341   0.941  13.620  0.1715  0.0724  0.1225
 6344W        W19758  18.409  10.732  14.169  0.0425 -0.2011 -0.0215
 6345W        W19759   2.052   7.026   0.780 -0.2190 -0.2394 -0.0283
 6346W        W19760   1.003  18.252   1.812 -0.1109  0.0606 -0.0950
 6347W        W19761   5.312   5.528  12.211 -0.0118 -0.2559  0.0336
 6348W        W19762   4.922   7.684   1.732  0.0550 -0.0476  0.0433
 6349W        W19763   1.164   5.637   0.794 -0.4264 -0.1160  0.1109
 6350W        W19764   1.801   1.648  15.345  0.2777  0.2025 -0.0686
 6351W        W19765   6.769  12.892   2.239 -0.2733 -0.1637 -0.2098
 6352W        W19766  13.881  15.852   1.985 -0.2799 -0.0641  0.0014
 6353W        W19767  15.181   0.223  12.456  0.0165 -0.0879  0.0027
 6354W        W19768  10.260  16.158   5.238 -0.3056 -0.1108  0.2652
 6355W        W19769   0.125   0.181   1.723  0.0586  0.2179 -0.0912
 6356W        W19770  14.259  16.079  12.885  0.1207 -0.0103  0.0399
 6357W        W19771  17.320  17.299   0.379  0.1856 -0.0882 -0.0594
 6358W        W19772   5.240   7.763   3.630 -0.1922  0.1657  0.0749
 6359W        W19773  12.817   5.443   3.141  0.0183 -0.0540 -0.2728
 6360W        W19774  17.994  10.655  15.935 -0.1542  0.1169  0.1247
 6361W        W19775   3.996  13.177   1.176  0.4972 -0.1085 -0.0768
 6362W        W19776   7.391   1.164   3.798 -0.1896 -0.0503  0.3169
 6363W        W19777   8.598  10.527  15.067 -0.0178 -0.0161  0.0095
 6364W        W19778   0.096  14.156   1.405 -0.0773  0.2393  0.1615
 6365W        W19779  17.368   6.099  13.217 -0.0105 -0.0373  0.0353
 6366W        W19780   2.506   3.881   3.154 -0.3181  0.0316 -0.2159
 6367W        W19781   3.611  17.063  11.753 -0.1240  0.1979 -0.1099
 6368W        W19782  15.723   4.234  10.639  0.0725 -0.0322 -0.0435
 6369W        W19783   0.757  15.579  14.572  0.3051  0.3649 -0.4165
 6370W        W19784  16.822   9.445   1.311  0.1581 -0.2149  0.1323
 6371W        W19785   3.105  11.406  13.289  0.0824 -0.0903  0.2193
 6372W        W19786  10.851   8.013   1.482  0.4093  0.0411  0.1340
 6373W        W19787  11.006   9.174   2.360 -0.0203 -0.0485 -0.3917
 6374W        W19788   2.785   6.929  10.994  0.2174  0.0171 -0.1084
 6375W        W19789  10.985  16.378   3.623  0.1424  0.2477 -0.3993
 6376W        W19790   4.579  11.402  11.374  0.0927  0.0154  0.0830
 6377W        W19791  11.878   1.564  14.944  0.2452  0.1545 -0.0070
 6378W        W19792  15.015   4.035  11.276  0.0619  0.0480  0.0032
 6379W        W19793  11.018  17.551  13.965  0.0312 -0.4055 -0.0397
 6380W        W19794   4.577   4.138   0.162 -0.1067  0.0229  0.0251
 6381W        W19795  13.120   2.914   1.629  0.0933  0.0125 -0.4163
 6382W        W19796   9.355  13.039   3.699 -0.2448 -0.3303 -0.1675
 6383W        W19797  14.131   3.867  16.061 -0.0510  0.3762 -0.3598
 6384W        W19798   2.326  17.846  11.922 -0.1259 -0.0092  0.1545
 6385W        W19799  17.030  18.100  12.849 -0.0663 -0.0983  0.2564
 6386W        W19800  15.476   4.324  15.998 -0.1991 -0.1205  0.1139
 6387W        W19801   1.649   3.576   5.477  0.2258  0.0125  0.3749
 6388W        W19802   6.211  16.956  14.776 -0.0231  0.0585 -0.0826
 6389W        W19803   4.584   3.562  15.883 -0.1088  0.0541 -0.2264
 6390W        W19804  12.065   0.297  11.026 -0.0699 -0.1969  0.3252
 6391W        W19805   1.339  11.488  15.372  0.0024  0.0993 -0.0660
 6392W        W19806  13.900   9.952   5.256 -0.0601  0.0995 -0.0841
 6393W        W19807  11.257   6.670  14.725 -0.0803 -0.0322 -0.2074
 6394W        W19808   8.215  16.380   4.819  0.0227 -0.2026 -0.0964
 6395W        W19809   7.995  15.367   1.102  0.2906  0.0606  0.0006
 6396W        W19810  11.733   4.429   2.997 -0.1602  0.1641  0.1587
 6397W        W19811  13.604   4.256  10.310  0.5186 -0.0057  0.0603
 6398W        W19812  11.369  10.117   0.484 -0.2362  0.1136  0.1944
 6399W        W19813   8.706  11.007  12.619  0.1392 -0.2416 -0.1863
 6400W        W19814   2.595   8.667  14.021  0.2008 -0.2387  0.3145
 6401W        W19815  13.693   1.548   4.633 -0.1979  0.1885 -0.0307
 6402W        W19816   6.412  10.473   1.481  0.1351 -0.0906 -0.0836
 6403W        W19817   1.358   5.520   2.995 -0.1021 -0.0503 -0.1198
 6404W        W19818   7.999   3.260   1.012 -0.1947 -0.1284 -0.2211
 6405W        W19819   4.453   1.690   0.376 -0.0307 -0.1394 -0.2033
 6406W        W19820   1.937   4.915   5.588  0.0780  0.1897 -0.1852
 6407W        W19821   6.296  17.680  12.404 -0.0191  0.0491  0.2227
 6408W        W19822   7.162   1.558  14.795 -0.1602  0.2738 -0.1204
 6409W        W19823  17.955  16.198  11.443  0.2608  0.2536 -0.2834
 6410W        W19824   9.989   3.582  12.311 -0.0752 -0.0955 -0.0692
 6411W        W19825   6.427  15.603  11.259 -0.1115  0.1777 -0.0229
 6412W        W19826   1.674  18.218   6.012  0.2557  0.0648  0.0785
 6413W        W19827  16.729   9.284  12.900  0.0454 -0.1238 -0.1362
 6414W        W19828  10.878   6.140   3.523  0.3404  0.3860  0.2135
 6415W        W19829   2.039   8.930  14.702  0.2132 -0.2189 -0.2052
 6416W        W19830   6.992  17.063   3.913  0.0385  0.0452 -0.1269
 6417W        W19831   0.595   3.571  14.474  0.0206 -0.1181 -0.1004
 6418W        W19832   2.112  15.178   4.041 -0.1896 -0.1504  0.0775
 6419W        W19833   5.687  13.108  11.888 -0.3362  0.1254  0.1019
 6420W        W19834   2.672  16.980   1.602 -0.0569 -0.0039 -0.0611
 6421W        W19835  14.228   0.452   4.334 -0.0614  0.2204 -0.3367
 6422W        W19836   6.599   8.272   3.532  0.1396  0.0862 -0.0574
 6423W        W19837   6.465  12.440  11.288  0.1042 -0.0911 -0.1213
 6424W        W19838  17.030  14.650   1.175  0.1002  0.0496  0.3142
 6425W        W19839   8.461   3.214   0.065  0.1250  0.1071  0.3141
 6426W        W19840   2.678   8.636   4.238 -0.0402 -0.1273  0.0207
 6427W        W19841   6.690  17.508   1.788 -0.1953  0.0756  0.0860
 6428W        W19842   9.172  13.779  12.562  0.0154  0.0436  0.0411
 6429W        W19843  14.265   2.722   1.378  0.2701  0.1262 -0.3054
 6430W        W19844   0.891  13.438   5.097  0.1119  0.0974 -0.0898
 6431W        W19845   4.806   5.848  11.327 -0.3190  0.0595 -0.1061
 6432W        W19846  16.708  10.640  15.297  0.2455 -0.1548 -0.0327
 6433W        W19847   9.323   2.678   2.304 -0.1574 -0.0925 -0.2030
 6434W        W19848  13.010   2.787  13.800  0.1836 -0.1236 -0.1507
 6435W        W19849  11.857   1.861   0.482 -0.2386  0.1171  0.3868
 6436W        W19850   1.698  17.898   0.269  0.0847 -0.3958 -0.1936
 6437W        W19851  10.727  14.333  15.921  0.1248 -0.1554 -0.1112
 6438W        W19852   7.185  17.058   6.257 -0.0462  0.1946 -0.3405
 6439W        W19853   1.310  11.849  11.209 -0.0551  0.1466 -0.3895
 6440W        W19854   8.009  16.362  11.236 -0.0281  0.0319  0.0437
 6441W        W19855  13.654   1.624  13.301 -0.2208  0.2011 -0.0223
 6442W        W19856   8.868   8.662   1.076 -0.0869 -0.0562  0.1774
 6443W        W19857  13.872   5.438  11.256 -0.0827  0.1156 -0.1520
 6444W        W19858  12.005   4.131  11.021 -0.0455 -0.0292  0.2560
 6445W        W19859   8.951   6.313   5.867  0.2471 -0.3741  0.1204
 6446W        W19860   4.172  11.484  14.267  0.1889  0.1532 -0.1009
 6447W        W19861  12.666  14.155   4.410 -0.2840 -0.0710  0.0147
 6448W        W19862  15.648  15.809   5.030  0.1732 -0.0220 -0.0688
 6449W        W19863   2.535   9.585   2.210 -0.2211  0.1096 -0.1082
 6450W        W19864   9.944   9.376  11.392  0.2922 -0.6041  0.2977
 6451W        W19865  15.775   4.670  12.192 -0.1554 -0.0834  0.0551
 6452W        W19866   9.089  15.713   2.849 -0.0869 -0.1287  0.3411
 6453W        W19867   4.108   0.675  15.299  0.0298 -0.1367  0.0667
 6454W        W19868  15.311   8.637   0.550  0.1690 -0.2906 -0.0036
 6455W        W19869  15.050   4.535   1.739  0.0189  0.0514  0.0257
 6456W        W19870  18.382  10.137  14.947  0.0962  0.0992  0.1703
 6457W        W19871   9.841   9.418   2.858 -0.0295  0.2666 -0.1711
 6458W        W19872  10.200   5.583  16.256 -0.1740  0.0413  0.1458
 6459W        W19873  16.877   8.770   5.189 -0.0934  0.0333 -0.1319
 6460W        W19874   7.612   9.593   0.084 -0.0736 -0.2116 -0.1469
 6461W        W19875  10.535   7.608  10.743 -0.3091  0.0255 -0.2317
 6462W        W19876   1.047   1.663   2.255  0.0473 -0.0701  0.2334
 6463W        W19877  13.231   7.013   0.898 -0.0770 -0.2920  0.1176
 6464W        W19878   6.053  15.365  13.101 -0.2956 -0.0639 -0.0355
 6465W        W19879  13.099   0.420  10.911  0.1497 -0.1436  0.0059
 6466W        W19880  12.382   8.616   2.385 -0.2489  0.1705  0.2068
 6467W        W19881   6.384  13.375   3.219 -0.2219  0.2317  0.1446
 6468W        W19882  14.531   1.970  12.365 -0.2796 -0.3641  0.2601
 6469W        W19883  15.907   2.196  14.718 -0.2896  0.2201 -0.1313
 6470W        W19884  11.347   6.872  12.813  0.0274  0.1249 -0.2395
 6471W        W19885   2.064  15.392  12.113  0.1701  0.1470 -0.3956
 6472W        W19886   0.318   9.638   3.887 -0.1510  0.4769 -0.3428
 6473W        W19887   5.451  13.947   1.717  0.2556 -0.2200 -0.1523
 6474W        W19888  12.401   3.758   0.069  0.3338  0.0168 -0.1090
 6475W        W19889   3.929   8.818   2.650 -0.1160 -0.0122  0.0072
 6476W        W19890   1.709   4.911  12.958  0.4192  0.0676 -0.0556
 6477W        W19891   8.294  12.770  10.286 -0.0212  0.1711  0.0048
 6478W        W19892  13.021  15.115  11.287  0.1403 -0.2076 -0.1538
 6479W        W19893  14.290  15.293  13.559  0.1644 -0.1465 -0.0604
 6480W        W19894  15.252   1.274  12.721  0.0132 -0.0706 -0.0393
 6481W        W19895  16.332   8.344  13.489  0.1116 -0.2385 -0.1980
 6482W        W19896  17.932  17.046  14.247 -0.1444  0.1303  0.2279
 6483W        W19897  14.625   0.462  15.481 -0.0276 -0.1681 -0.3109
 6484W        W19898  16.050   1.306   2.405  0.0989 -0.0197 -0.1725
 6485W        W19899   5.965   7.897   1.044  0.2576 -0.1745  0.4419
 6486W        W19900   6.063   3.094  10.192 -0.2699 -0.0288 -0.1466
 6487W        W19901  17.134  14.077  16.219  0.1011  0.0677  0.2816
 6488W        W19902  17.094   0.288  14.516 -0.1080  0.1464  0.1257
 6489W        W19903  16.561   7.426  13.060  0.0574  0.1993 -0.2750
 6490W        W19904   5.614   8.493   9.861  0.0589  0.4071 -0.0753
 6491W        W19905  12.243  12.682  11.416 -0.1623  0.0669  0.1951
 6492W        W19906   1.882   0.074  12.236  0.0040 -0.1766 -0.0542
 6493W        W19907  12.502  17.112  11.502  0.0070 -0.0064  0.0923
 6494W        W19908  16.175   9.325   0.724  0.1652  0.2087  0.2416
 6495W        W19909   0.922  13.743   3.810 -0.0793 -0.2639  0.0263
 6496W        W19910   9.297   8.868   4.961  0.2437 -0.0609 -0.2880
 6497W        W19911   0.998   0.079   2.709  0.1564  0.0837  0.1166
 6498W        W19912  13.453  12.819   2.103 -0.0756  0.3233 -0.1962
 6499W        W19913   6.496  16.948  11.059 -0.1102  0.0387 -0.0535
 6500W        W19914   9.004  10.403  15.519  0.1897 -0.0333  0.5177
 6501W        W19915  13.824  14.875  16.055  0.2001  0.2351  0.0572
 6502W        W19916  13.621  16.922  14.421  0.0652 -0.1308  0.1605
 6503W        W19917   1.316  16.886  13.723  0.0159  0.0883  0.1621
 6504W        W19918   1.606   6.229   4.975  0.0423  0.0442 -0.2014
 6505W        W19919   1.999   2.567  10.528 -0.1088  0.2300  0.2867
 6506W        W19920   4.677   5.188  13.625  0.0506 -0.3362 -0.0846
 6507W        W19921  16.110   8.831   2.489  0.4400 -0.0765 -0.0386
 6508W        W19922   9.353   8.922   0.478 -0.0754  0.1861 -0.3826
 6509W        W19923  10.829  13.470   0.678 -0.1211 -0.0678 -0.1267
 6510W        W19924  17.763  13.988   1.711  0.1182 -0.0701 -0.1293
 6511W        W19925   8.759  15.660   1.401 -0.1555 -0.3158 -0.0887
 6512W        W19926  17.837   5.021   2.904 -0.0693 -0.2846 -0.2521
 6513W        W19927  18.100  16.137   3.647  0.0536 -0.0317 -0.0611
 6514W        W19928  12.106   4.297   0.779  0.0138 -0.1380 -0.3428
 6515W        W19929   9.056   4.528  11.231  0.0259  0.2600 -0.1640
 6516W        W19930   6.796   4.222   0.218  0.0081  0.2901 -0.0393
 6517W        W19931  17.896   8.456   1.880  0.0230 -0.1491 -0.2763
 6518W        W19932   2.934   2.640   3.135 -0.1178 -0.1894 -0.1512
 6519W        W19933   1.009   2.170   0.633 -0.0274  0.0525 -0.1469
 6520W        W19934   9.686   2.070   9.588  0.2308  0.0427 -0.1256
 6521W        W19935   2.147   1.552   2.377 -0.1431 -0.4509  0.1798
 6522W        W19936  11.945  13.378   3.530  0.0659  0.2199  0.3341
 6523W        W19937  18.142  10.046   3.961 -0.0126  0.3076  0.0542
 6524W        W19938  17.763   2.252  11.594  0.1838 -0.2013  0.1088
 6525W        W19939  10.145  12.040   2.349 -0.0274  0.2795 -0.2061
 6526W        W19940  12.144  14.560  13.097  0.2453 -0.1151 -0.1277
 6527W        W19941  14.919   6.101  12.514  0.3678  0.0757 -0.1523
 6528W        W19942   6.141   6.248   2.976  0.0542  0.1159 -0.2713
 6529W        W19943  15.200   6.572  15.029 -0.1351  0.0335  0.2035
 6530W        W19944  13.810   3.246   6.175  0.0149 -0.1604  0.1187
 6531W        W19945  15.626   0.002  11.278 -0.0807  0.0609  0.0343
 6532W        W19946   5.853  10.856  10.358 -0.1644  0.1542 -0.1849
 6533W        W19947   8.206   3.195  12.566  0.0645 -0.0373  0.3260
 6534W        W19948   9.855   4.893   1.141 -0.1785 -0.1282 -0.0318
 6535W        W19949  16.885  18.058   5.018 -0.1089 -0.1883 -0.3437
 6536W        W19950   9.120   7.872   5.129  0.2466  0.1530  0.0091
 6537W        W19951   7.832   9.825  12.631 -0.1291  0.4790 -0.2672
 6538W        W19952   4.127  14.094   5.442  0.2597  0.0746  0.0285
 6539W        W19953  16.241   0.404  12.034  0.2094  0.3157 -0.0127
 6540W        W19954  13.594   0.164   9.651 -0.2657  0.1686  0.2555
 6541W        W19955   9.897  15.380   1.272  0.2249 -0.0583 -0.0747
 6542W        W19956  17.524  15.653   5.336  0.2679 -0.3468  0.1559
 6543W        W19957   0.180  11.614   0.429 -0.1351 -0.1131 -0.1030
 6544W        W19958  17.823   6.058  15.680 -0.0510 -0.0339  0.1139
 6545W        W19959  14.664   6.774   4.337  0.2065 -0.1242 -0.0138
 6546W        W19960   7.151  12.496   2.341  0.0336 -0.0003 -0.2399
 6547W        W19961   2.431  11.312  14.015  0.1089  0.0059 -0.3695
 6548W        W19962  10.016   8.402  11.674 -0.1389  0.1240 -0.0783
 6549W        W19963   8.799  14.127   3.983 -0.1026 -0.1166  0.1771
 6550W        W19964   0.169   7.326  10.602  0.4262  0.1819  0.1601
 6551W        W19965   6.622   2.511  10.232  0.2690  0.2880  0.2003
 6552W        W19966  17.988   0.935  13.056 -0.1435  0.1194  0.1422
 6553W        W19967   4.616   2.621  12.479  0.0753 -0.2474  0.2705
 6554W        W19968  15.388   7.538   1.925  0.1188 -0.2828  0.0206
 6555W        W19969   0.484   6.651  11.680  0.1139 -0.0250 -0.0857
 6556W        W19970  16.090   2.547   5.384  0.2612  0.0770 -0.0809
 6557W        W19971  14.090  11.957  11.009 -0.1035 -0.3533 -0.0177
 6558W        W19972   7.438   8.425   2.636  0.1126  0.0882 -0.4011
 6559W        W19973   2.335   9.096  10.552 -0.1414  0.3567  0.4310
 6560W        W19974   1.419   1.471   1.971 -0.3023 -0.4343  0.0667
 6561W        W19975   7.315   4.176  16.269  0.2563  0.1331 -0.2298
 6562W        W19976   5.048  12.184   4.231  0.0655 -0.1827  0.1343
 6563W        W19977  17.427   4.557   0.372  0.3342  0.0019  0.3815
 6564W        W19978  16.280  12.360   5.523  0.1781 -0.1716  0.2955
 6565W        W19979   4.343  13.799   5.066 -0.1276  0.3011 -0.0755
 6566W        W19980  12.010   4.917   4.091  0.1944  0.0655 -0.2647
 6567W        W19981   8.386  12.615   2.132  0.1804  0.0105 -0.0933
 6568W        W19982   7.791   0.400  15.526 -0.1445 -0.0040 -0.2927
 6569W        W19983  13.533   3.097  14.482  0.0183  0.2845 -0.1876
 6570W        W19984  14.114   9.280  12.434 -0.3450  0.1033 -0.1604
 6571W        W19985   9.542   8.906   3.550 -0.2319  0.0182 -0.0498
 6572W        W19986  16.414   4.469   4.205 -0.2393  0.1092 -0.0205
 6573W        W19987  12.545  11.545  13.920  0.0959  0.0044  0.2369
 6574W        W19988   7.744   4.173   0.216 -0.0297  0.0100  0.3204
 6575W        W19989  14.110  14.180  14.596  0.0211 -0.3091 -0.1572
 6576W        W19990  15.844   3.022  15.084  0.0212  0.3675 -0.1919
 6577W        W19991  10.255   2.225  15.207 -0.0439 -0.1085  0.1607
 6578W        W19992   4.006   4.504  13.712 -0.1631  0.1605 -0.1672
 6579W        W19993   8.410   8.239  12.183 -0.0854 -0.0451  0.1206
 6580W        W19994  14.342  12.393  11.344  0.2622 -0.0535  0.0652
 6581W        W19995  12.575   5.292  11.362 -0.2164  0.0449  0.1103
 6582W        W19996  18.188   9.521  15.709  0.3638  0.0193  0.0653
 6583W        W19997   6.337  17.053  15.236 -0.1722  0.2044  0.0752
 6584W        W19998   7.440   5.379   3.020  0.3031 -0.1076  0.0276
 6585W        W19999  17.211  11.722   2.519  0.0754  0.0882  0.0827
 6586W        W20000   6.094  15.063  15.085 -0.0045  0.2790 -0.0207
 6587W        W20001   5.069  18.130  15.907 -0.1396 -0.2001  0.1430
 6588W        W20002   5.853  15.519  14.902 -0.2631  0.0529 -0.2170
 6589W        W20003  14.266  11.490   4.462  0.0103 -0.0587  0.0347
 6590W        W20004   5.650   7.936  15.045 -0.0513  0.0451 -0.2212
 6591W        W20005  11.192   5.511  13.016 -0.1769  0.0042 -0.1625
 6592W        W20006  12.101   2.677   1.860  0.1318  0.1809  0.1751
 6593W        W20007  17.155   8.340   4.922 -0.0140 -0.0104  0.2850
 6594W        W20008  17.918   2.508  12.049 -0.2490 -0.2321 -0.1516
 6595W        W20009   8.684  15.659  14.861  0.0438 -0.0741 -0.0030
 6596W        W20010   5.063   1.084  12.818  0.1000 -0.0641  0.1688
 6597W        W20011   5.317  14.653  10.190 -0.1534  0.0035  0.5371
 6598W        W20012  10.657  15.164   2.726  0.2148  0.2515 -0.0667
 6599W        W20013  10.515   2.197   1.734  0.0014  0.1552  0.3630
 6600W        W20014  13.434  11.690  15.240  0.0612  0.0566 -0.0495
 6601W        W20015  12.480  17.386   1.992 -0.0165  0.4510 -0.1699
 6602W        W20016  13.339  15.581  12.375 -0.3299  0.3632  0.2654
 6603W        W20017   7.626  14.620   1.003  0.1622 -0.0082 -0.1291
 6604W        W20018  14.332  10.808   2.431  0.3147 -0.3621  0.0105
 6605W        W20019   3.784   0.004  12.074 -0.2719  0.4868  0.1689
 6606W        W20020   1.047  14.069   6.042  0.0727  0.2540 -0.3083
 6607W        W20021   5.870   3.803   3.110  0.0926 -0.1076 -0.1231
 6608W        W20022   6.260   7.615  10.878  0.0126  0.3182 -0.0014
 6609W        W20023   9.397  10.730  14.818 -0.2011  0.0900  0.0028
 6610W        W20024  13.238   9.640   2.812  0.1154 -0.1284 -0.3595
 6611W        W20025   2.454   5.376   2.588 -0.0660  0.0696 -0.0277
 6612W        W20026   0.618   9.634  14.262  0.2336 -0.0875  0.0231
 6613W        W20027   3.551  15.606  15.630  0.1646  0.0291  0.0462
 6614W        W20028   6.585   8.879   2.068  0.1231 -0.2026 -0.1525
 6615W        W20029  10.649   8.820   5.871  0.3037  0.1599 -0.0205
 6616W        W20030  11.672   3.642  15.335  0.0387  0.1469 -0.1587
 6617W        W20031  11.868  15.296   1.492 -0.0868  0.1407  0.3761
 6618W        W20032   4.783  16.992  16.198  0.1234 -0.0337  0.2161
 6619W        W20033   5.681   2.323   1.151 -0.0803 -0.0826 -0.1008
 6620W        W20034  12.709  12.593  14.030 -0.1574 -0.0408 -0.3470
 6621W        W20035   6.899   1.092   5.123  0.1461 -0.1702  0.1802
 6622W        W20036   1.304   0.282   1.478 -0.0290 -0.2636  0.2132
 6623W        W20037   4.396  15.073   4.868  0.2876 -0.0106  0.1781
 6624W        W20038  11.152   3.522   6.309  0.2871  0.1929 -0.3109
 6625W        W20039  16.537   2.213  15.452  0.1261  0.1493  0.2846
 6626W        W20040  16.638  14.649  13.029 -0.0056  0.1599 -0.1747
 6627W        W20041  13.489  17.327  11.165 -0.3024 -0.0559 -0.0671
 6628W        W20042  12.268  14.744  14.434 -0.0707 -0.2634  0.0168
 6629W        W20043   2.904  17.294  13.048  0.3367 -0.2653 -0.3943
 6630W        W20044  11.995   1.810   3.160  0.1460  0.2079  0.3811
 6631W        W20045  10.251  11.123   0.472  0.2074  0.3036  0.0948
 6632W        W20046   4.001  12.696   5.400  0.3295 -0.0119 -0.3099
 6633W        W20047   4.615  12.829  14.519 -0.0719  0.1558 -0.2231
 6634W        W20048   3.700   7.504  12.194 -0.2594 -0.1347 -0.0421
 6635W        W20049  11.033   0.856   0.331 -0.2966 -0.0479 -0.2304
 6636W        W20050   9.369   9.234   0.071  0.1614  0.0611  0.2609
 6637W        W20051  15.261  11.085   2.337  0.1220 -0.1455 -0.0581
 6638W        W20052   6.165   1.781   5.244  0.0799 -0.0960  0.0508
 6639W        W20053  12.490  10.550  11.307 -0.0768 -0.0930  0.0400
 6640W        W20054  14.920   8.587   3.108  0.0167  0.0163  0.0805
 6641W        W20055   3.811  18.039  15.996  0.1373  0.4296  0.0731
 6642W        W20056  12.394  17.199   3.040  0.0857  0.1201  0.0521
 6643W        W20057  18.207  16.661   2.837  0.1539  0.1126 -0.2779
 6644W        W20058  15.663   8.973  12.776  0.3692  0.3240  0.0326
 6645W        W20059  12.852   7.443   6.615  0.3023 -0.1242 -0.2382
 6646W        W20060  18.329  11.364  11.435 -0.0948  0.0925 -0.1477
 6647W        W20061   3.695   3.586  13.777  0.0288  0.0034  0.2097
 6648W        W20062   1.861  13.616  11.624  0.3133  0.0422 -0.0064
 6649W        W20063  10.128  12.986   2.998  0.1955  0.1578  0.0784
 6650W        W20064   1.641   5.995   4.487 -0.1130  0.0621  0.0093
 6651W        W20065   3.584   3.373   3.450  0.0620 -0.0376 -0.0694
 6652W        W20066  14.028  14.085  12.540 -0.2841 -0.2748 -0.0631
 6653W        W20067  16.535   1.444   2.523  0.0955  0.4189  0.1246
 6654W        W20068   2.010   7.120   2.714  0.0108 -0.1335  0.1168
 6655W        W20069   9.056  14.244   2.401 -0.1780 -0.1583 -0.1686
 6656W        W20070  13.520  15.186  15.774 -0.1782 -0.0953 -0.4628
 6657W        W20071  18.254  13.566  11.246  0.0059  0.1286  0.2203
 6658W        W20072  11.906  14.510  11.226  0.0841  0.1131 -0.2309
 6659W        W20073  14.929   3.267  10.551 -0.0920 -0.2542 -0.0240
 6660W        W20074  11.123   4.955   5.689  0.2629  0.0128 -0.1518
 6661W        W20075  10.848  16.801  15.879  0.2201 -0.0090 -0.4039
 6662W        W20076   8.212  12.037  10.723  0.0149 -0.0410  0.1575
 6663W        W20077  15.970   7.661  12.186 -0.0552  0.2948 -0.3826
 6664W        W20078   8.926   9.197   4.397 -0.0267 -0.1281 -0.1833
 6665W        W20079   2.880  16.249  15.092 -0.2321 -0.2980 -0.1299
 6666W        W20080   3.657   6.453   1.306 -0.1427  0.0863  0.0867
 6667W        W20081  17.536  14.433  15.771  0.0519  0.1408  0.0705
 6668W        W20082  10.939  15.963  14.074 -0.2490  0.6097 -0.0242
 6669W        W20083  10.058  10.015   3.958  0.3059  0.2766  0.0683
 6670W        W20084   6.926  14.107   0.025  0.1516 -0.0494  0.1014
 6671W        W20085  12.726   3.638   1.596  0.2388 -0.1731 -0.0628
 6672W        W20086   3.617   5.703   3.268 -0.2172 -0.0025  0.0049
 6673W        W20087   9.231  17.969   1.998  0.1910  0.2574 -0.0375
 6674W        W20088  14.126   9.575   1.302  0.3513 -0.0430  0.2011
 6675W        W20089  15.554   8.994   5.013  0.1551 -0.1803  0.0450
 6676W        W20090  17.840  13.210   1.298 -0.2479  0.2261 -0.0973
 6677W        W20091   6.639   2.015   2.763 -0.2077 -0.0990 -0.0041
 6678W        W20092  16.425   8.341  15.690  0.2771  0.0223  0.2600
 6679W        W20093  11.132   7.726   4.544  0.1653  0.0144  0.4768
 6680W        W20094  17.976  13.584   5.521 -0.0034 -0.0846 -0.2907
 6681W        W20095   1.511   9.075  12.468  0.1247 -0.0828 -0.0073
 6682W        W20096   4.974  13.997  12.707  0.3647 -0.5202 -0.0691
 6683W        W20097   0.389   6.913   1.122 -0.0486 -0.4288  0.2185
 6684W        W20098   0.824   1.855  14.293 -0.2300  0.1064  0.1510
 6685W        W20099  17.422   1.881  10.701  0.1384 -0.0820 -0.0551
 6686W        W20100   0.404  15.051   1.671  0.1638 -0.0264 -0.0952
 6687W        W20101  10.101   7.213   4.903 -0.1777 -0.0805 -0.3570
 6688W        W20102   6.999  12.708  10.772 -0.2015  0.0256  0.2663
 6689W        W20103  18.300  14.961  13.586  0.0271  0.0986 -0.3152
 6690W        W20104   2.883  16.725  16.013 -0.0745 -0.1872 -0.2877
 6691W        W20105   1.029   7.113  16.251 -0.0224  0.0624  0.1190
 6692W        W20106  11.430   9.739  13.506 -0.3648  0.1454 -0.4592
 6693W        W20107   1.962  13.221  13.102  0.1508 -0.4088  0.1573
 6694W        W20108   6.159  10.685  13.484  0.0497  0.0174 -0.3274
 6695W        W20109  14.178  11.578   2.223 -0.3435 -0.0755  0.3431
 6696W        W20110   4.226  10.166  10.899  0.1358 -0.1066 -0.0597
 6697W        W20111   2.458  12.568   4.686  0.1353 -0.0237  0.1779
 6698W        W20112  10.825   4.051  14.027  0.1223 -0.2975 -0.1258
 6699W        W20113   6.047   3.024  12.148  0.3020 -0.0674  0.2103
 6700W        W20114   8.625   5.835  10.145 -0.2597  0.2835  0.1144
 6701W        W20115  16.001   3.691   1.512  0.1378 -0.1208 -0.1889
 6702W        W20116   8.957   9.326  12.640 -0.2375  0.3129  0.1264
 6703W        W20117  14.018   7.757   1.802 -0.1606  0.0796 -0.0078
 6704W        W20118   8.171   6.492   1.902  0.0095 -0.1227 -0.2679
 6705W        W20119   9.936  11.518  15.084  0.1784  0.1173 -0.2042
 6706W        W20120  10.222  14.463   1.491 -0.3362  0.3590  0.0285
 6707W        W20121   8.873  16.828  15.551 -0.0552 -0.0122  0.0984
 6708W        W20122   8.409   3.053  10.831  0.1606 -0.0812  0.0229
 6709W        W20123   2.147   6.192  13.357  0.1649 -0.0463 -0.0857
 6710W        W20124   4.860   9.385   3.175 -0.3259 -0.0651 -0.2182
 6711W        W20125   4.485  10.064   0.858  0.2835  0.0013 -0.1220
 6712W        W20126  11.236   7.218   3.136  0.1133 -0.1291  0.1098
 6713W        W20127   5.861   4.159   2.769 -0.2657 -0.0697 -0.0888
 6714W        W20128  13.363  14.705  12.055  0.1171  0.0243 -0.1385
 6715W        W20129   7.260   2.762   5.058  0.1232  0.0912  0.4782
 6716W        W20130  11.974  11.328  11.602 -0.1024 -0.0294  0.4074
 6717W        W20131   0.148  14.889   0.712 -0.4761  0.5276  0.0775
 6718W        W20132   2.918   2.919  15.319  0.0667 -0.1171  0.0622
 6719W        W20133   0.664  16.387   2.582  0.0818 -0.0696 -0.1595
 6720W        W20134  11.058   1.461  13.376  0.0408 -0.0385 -0.2150
 6721W        W20135   4.500   9.815   4.798  0.1404  0.3603 -0.1050
 6722W        W20136  15.968  14.267   1.975 -0.1175  0.3491  0.0197
 6723W        W20137  10.045  13.811  12.536 -0.0444  0.0257  0.0364
 6724W        W20138  12.326   3.191  15.408  0.2167  0.1158  0.2508
 6725W        W20139  15.542   6.945  10.954  0.0051  0.1248 -0.1200
 6726W        W20140  11.441   1.451   4.318 -0.0314 -0.0963 -0.0383
 6727W        W20141   5.195  12.554  14.045  0.2109 -0.0251 -0.2587
 6728W        W20142   6.655   9.614   4.248 -0.1383 -0.0096  0.1295
 6729W        W20143  17.822  17.841  12.173  0.2682 -0.0565 -0.0487
 6730W        W20144   4.906   9.846  14.134 -0.1833 -0.0507 -0.0180
 6731W        W20145  15.414  16.685   0.361 -0.2465  0.0547  0.0178
 6732W        W20146   2.058  10.646  14.580  0.1032 -0.3292  0.0001
 6733W        W20147  12.761   1.469  16.254  0.3222  0.3006  0.0161
 6734W        W20148  14.513   7.084  12.424  0.3405 -0.0555 -0.3489
 6735W        W20149  11.252  11.432   4.328 -0.0751  0.2593  0.0134
 6736W        W20150  14.667   3.056   1.708  0.0480  0.1873 -0.1797
 6737W        W20151   5.221   1.972   2.684  0.0234 -0.0833 -0.0635
 6738W        W20152   4.824   6.353  11.406  0.0458 -0.0902 -0.1306
 6739W        W20153   6.118   6.605  13.308 -0.0739 -0.3099  0.1459
 6740W        W20154  11.404   8.684   4.603 -0.0857 -0.1621  0.5040
 6741W        W20155   7.413   2.000  16.085  0.0754  0.2820 -0.0582
 6742W        W20156  12.604  17.381  13.886  0.2406  0.6348 -0.2652
 6743W        W20157   3.449   5.552  14.424  0.0690 -0.1393  0.0308
 6744W        W20158   7.971   5.115   5.253 -0.2501 -0.1201  0.1336
 6745W        W20159  12.725  18.306   9.717 -0.1205  0.0590 -0.0344
 6746W        W20160   6.775  11.271   4.481 -0.1554 -0.0721 -0.2890
 6747W        W20161  13.383  15.469  11.266 -0.0976 -0.0261 -0.0226
 6748W        W20162  15.642   5.167   5.223 -0.0071  0.0562  0.4426
 6749W        W20163   6.559   2.413  13.996  0.1118  0.0371 -0.0150
 6750W        W20164   7.827  14.847  14.394  0.2262 -0.1391 -0.1678
 6751W        W20165   8.693  17.699   3.082  0.2113  0.1627  0.1011
 6752W        W20166   1.681  17.425   0.444  0.0038 -0.0829 -0.0842
 6753W        W20167  17.401   6.617  11.387  0.2493 -0.0635  0.0258
 6754W        W20168  16.857   8.030   3.744  0.0587  0.0202  0.0299
 6755W        W20169  13.425  12.766   5.354  0.1292 -0.0326 -0.1600
 6756W        W20170   9.109   3.074  13.243  0.3685 -0.0895 -0.0227
 6757W        W20171   1.445   1.191   5.389 -0.0330  0.1764  0.4814
 6758W        W20172   5.211   1.542  12.955  0.3343 -0.2389 -0.2308
 6759W        W20173  13.988   3.554   1.860 -0.1019  0.1415 -0.0844
 6760W        W20174   7.653   2.728  10.785 -0.3727 -0.2735  0.1082
 6761W        W20175   8.641   2.318  10.430  0.0403 -0.1499 -0.1127
 6762W        W20176  13.309  17.486  12.321 -0.1255 -0.3081 -0.0024
 6763W        W20177  10.424   0.082  10.161  0.0978 -0.1994  0.2803
 6764W        W20178   1.074   6.993   0.489 -0.0031  0.1602  0.1238
 6765W        W20179   6.236   7.606   2.800 -0.0148  0.0590  0.0584
 6766W        W20180   8.944   9.770  12.381  0.3852 -0.1073 -0.1179
 6767W        W20181   1.504  15.345   1.114 -0.2562  0.0780 -0.1637
 6768W        W20182   7.146   7.612  12.273  0.0407  0.1075  0.0462
 6769W        W20183  14.198  12.254   4.157  0.3534  0.2727  0.0032
 6770W        W20184  11.480  14.894   2.324  0.1464 -0.3600 -0.0698
 6771W        W20185   2.280  18.169   6.114  0.1884  0.3379 -0.1927
 6772W        W20186   9.155  14.658   1.523  0.1119  0.2082  0.0192
 6773W        W20187  11.757  13.419   1.608 -0.1608  0.2472  0.2535
 6774W        W20188   6.888   0.056   1.552 -0.0930  0.1797 -0.1540
 6775W        W20189   1.094  12.964  10.568 -0.1798  0.1170  0.0632
 6776W        W20190   8.475   7.837   5.817 -0.2224  0.0046  0.0506
 6777W        W20191   7.257   4.014  13.556  0.2669  0.1420 -0.0479
 6778W        W20192  16.110   7.588   0.309  0.3444  0.0255  0.0002
 6779W        W20193   2.457   8.867   4.707 -0.0148  0.2510 -0.0784
 6780W        W20194  13.044   2.381   2.855  0.1206  0.1881 -0.4567
 6781W        W20195   4.939  18.040   3.462  0.2349  0.0409 -0.2286
 6782W        W20196   5.630  11.323   0.133  0.2668  0.0301 -0.1968
 6783W        W20197   5.951   8.808   2.982 -0.0456 -0.4402 -0.1027
 6784W        W20198   1.108  12.210  14.134  0.3109  0.0863  0.1304
 6785W        W20199   7.752  11.682  14.774 -0.2465  0.0299 -0.2093
 6786W        W20200  15.708   0.506   0.800 -0.0220  0.3060 -0.0286
 6787W        W20201  16.028  15.680  12.157  0.1091  0.4082 -0.0331
 6788W        W20202   0.253  13.583   2.746  0.1540 -0.0667 -0.0059
 6789W        W20203   4.761  17.872  15.471  0.4037  0.0215 -0.2434
 6790W        W20204   4.048  11.638   0.855 -0.0496  0.1138  0.2155
 6791W        W20205   7.196   1.575  15.771  0.0612  0.0355  0.0177
 6792W        W20206  10.881   8.978   1.863 -0.0683  0.0868 -0.1050
 6793W        W20207   4.144   8.235   4.200  0.0646  0.0767  0.1153
 6794W        W20208   5.251   9.644   1.142 -0.0087 -0.1295 -0.3118
 6795W        W20209   5.257  10.089   2.089  0.2035  0.0977 -0.2139
 6796W        W20210   8.289  11.548  10.872 -0.1546  0.1323 -0.2117
 6797W        W20211   4.904  10.927   2.439 -0.2371 -0.1114  0.1305
 6798W        W20212  15.459   7.209   2.589 -0.2287 -0.0029 -0.2900
 6799W        W20213  17.513  12.774  11.937 -0.1003  0.2878  0.1283
 6800W        W20214   8.997   6.871  11.140 -0.0415  0.1117  0.1475
 6801W        W20215   4.032   5.720  12.299  0.0561 -0.1106 -0.1819
 6802W        W20216  17.289   4.460   4.655  0.1090 -0.2960  0.0621
 6803W        W20217   4.475   6.071  15.744  0.2918 -0.2275  0.0878
 6804W        W20218  13.163  17.807  13.654  0.0304 -0.0169 -0.1335
 6805W        W20219  15.007  14.641  11.839 -0.0102 -0.1083  0.2943
 6806W        W20220   3.238   3.271   4.039 -0.3174  0.1523 -0.1315
 6807W        W20221   0.042  11.104   5.333  0.0614 -0.0074 -0.3643
 6808W        W20222   2.261   7.652  11.815  0.2113 -0.1347  0.0868
 6809W        W20223   0.086  10.271  15.780  0.0001  0.0349  0.0724
 6810W        W20224   2.907   3.839   1.147 -0.0394  0.0328  0.0862
 6811W        W20225  10.529  15.864  15.875 -0.0147 -0.0586  0.0391
 6812W        W20226  15.018   2.461   2.255  0.0182  0.0996 -0.1159
 6813W        W20227   7.811   7.957  13.371  0.4536  0.1247  0.1470
 6814W        W20228   7.857  16.721   0.667 -0.0960  0.3553 -0.0689
 6815W        W20229   2.674  16.437  15.680  0.3669  0.0838  0.2140
 6816W        W20230  10.474  15.564  10.840 -0.1702  0.1265  0.0333
 6817W        W20231  12.966   6.402  13.934  0.0053  0.0707 -0.1943
 6818W        W20232   0.934   1.214   6.295 -0.2688  0.0852 -0.0403
 6819W        W20233  14.680   2.901   2.631  0.3831  0.0733  0.2354
 6820W        W20234   9.438   5.439  13.843  0.4045 -0.1965 -0.1478
 6821W        W20235  18.390   6.529  13.002  0.4178  0.0066 -0.1149
 6822W        W20236   1.285   6.313   3.432  0.0171  0.1295 -0.1999
 6823W        W20237   6.738   4.984   1.049 -0.0527 -0.1127 -0.1187
 6824W        W20238   7.780  16.800   4.293  0.2260  0.2045 -0.1917
 6825W        W20239  15.503   5.666  13.342 -0.2812 -0.1899  0.0640
 6826W        W20240  10.745   5.550  13.364 -0.2401  0.3541  0.1801
 6827W        W20241  15.673  11.330  14.322  0.2737 -0.0509  0.0217
 6828W        W20242  15.824  13.663   2.572 -0.0376  0.2793  0.2154
 6829W        W20243   8.534  13.228  14.144 -0.0753  0.3118 -0.2363
 6830W        W20244   5.246   4.852  11.399  0.0885  0.1302 -0.0802
 6831W        W20245  14.749   8.874  16.220  0.2905 -0.0854 -0.6939
 6832W        W20246  18.248   4.106  10.802 -0.0671  0.0801  0.1112
 6833W        W20247  17.207  13.176  12.289  0.0562 -0.0643 -0.0559
 6834W        W20248  11.468  14.127  13.130  0.3808 -0.2272  0.1659
 6835W        W20249   9.082   7.930  12.268 -0.0230  0.2329  0.1504
 6836W        W20250   9.128   3.738   1.518  0.1473 -0.0530 -0.1059
 6837W        W20251   9.910  11.805   0.769  0.4794 -0.1666  0.1280
 6838W        W20252   8.654   4.522  15.083 -0.2254  0.1916  0.1707
 6839W        W20253  11.642   0.609   1.805  0.0706  0.0125  0.2322
 6840W        W20254   4.080   2.056   0.481 -0.3264 -0.0378 -0.0718
 6841W        W20255   6.641  12.887  14.778 -0.0060 -0.1311  0.1957
 6842W        W20256   2.442   2.072  12.823  0.0648  0.0511 -0.3297
 6843W        W20257   4.731   8.675  12.199  0.0768 -0.0398 -0.3611
 6844W        W20258   6.836  16.864  15.187  0.1212 -0.0058 -0.0925
 6845W        W20259   8.346  11.350  13.594 -0.1607  0.0194 -0.0592
 6846W        W20260   4.636   1.279   0.618  0.3372 -0.0390 -0.0892
 6847W        W20261   0.188  14.878  10.126  0.1313  0.2098  0.2156
 6848W        W20262   9.773  13.392  10.920  0.0766  0.1254  0.1954
 6849W        W20263   4.208  17.217   5.168  0.0776  0.0349  0.1878
 6850W        W20264   1.477   7.161  12.776  0.1377 -0.1295  0.0386
 6851W        W20265  17.356  10.472   3.700  0.0619 -0.1396 -0.0059
 6852W        W20266  10.056  10.415  13.594  0.1890  0.1587  0.1723
 6853W        W20267  10.775  17.644  15.980 -0.0874  0.1517 -0.1577
 6854W        W20268   8.214   3.439  14.349 -0.0472  0.1832  0.2637
 6855W        W20269   8.724  17.222   3.397  0.0413 -0.2390  0.0757
 6856W        W20270  11.417   1.735  10.088  0.0378 -0.2228  0.1425
 6857W        W20271   8.267  12.230  11.668  0.0589  0.0464 -0.3532
 6858W        W20272   2.152   8.615   2.153 -0.0762 -0.0500 -0.0588
 6859W        W20273   0.649  13.291  12.220 -0.0618 -0.1657 -0.1120
 6860W        W20274   0.011  10.018  10.935  0.1577  0.1604  0.0852
 6861W        W20275  14.953  18.045  13.894  0.1475  0.2047  0.1605
 6862W        W20276   5.206  10.187   1.599  0.1436 -0.0170 -0.0527
 6863W        W20277  17.344  17.563   4.988 -0.0365 -0.0361  0.0683
 6864W        W20278  13.905  10.748   1.224  0.1797 -0.0978 -0.2018
 6865W        W20279   3.448   2.825  12.718  0.0524 -0.1225  0.3554
 6866W        W20280  18.315   3.671  10.580  0.1187  0.0979 -0.1229
 6867W        W20281  18.203   1.494   0.934  0.1820 -0.0982  0.0711
 6868W        W20282   3.430   9.341   0.232  0.0185  0.1131 -0.1764
 6869W        W20283   4.966  11.789   0.553  0.0682  0.2296  0.0902
 6870W        W20284  17.243   3.007  12.166 -0.0549  0.3034 -0.0592
 6871W        W20285  11.446   5.623  15.765 -0.0076  0.1297  0.1988
 6872W        W20286  14.927   5.580   4.478 -0.4522 -0.0236  0.1154
 6873W        W20287   4.814  17.476  14.402 -0.1192 -0.1746  0.1907
 6874W        W20288   7.565   6.906  12.010  0.2267 -0.0232  0.0605
 6875W        W20289   9.473  11.440  14.307  0.1269  0.1848  0.6464
 6876W        W20290   7.936   1.626   1.441 -0.0319  0.3810  0.2167
 6877W        W20291  12.247   6.129  11.297 -0.0883  0.1560  0.2309
 6878W        W20292  13.821   5.994  15.413 -0.3373 -0.3414  0.0058
 6879W        W20293  16.768   3.153  12.448  0.0486  0.1800  0.0107
 6880W        W20294   5.738   4.414   3.175  0.1565 -0.1973  0.3110
 6881W        W20295   7.960   7.320   0.404  0.0952 -0.1839  0.5024
 6882W        W20296   5.017  13.873  11.773 -0.0197 -0.0532  0.3477
 6883W        W20297   6.898  10.192  14.487 -0.0255  0.0957 -0.1259
 6884W        W20298  10.271   7.609  16.122  0.0849  0.1536  0.0599
 6885W        W20299   7.567  13.246   1.093  0.2125 -0.2364  0.2341
 6886W        W20300   3.652   6.935  12.436  0.1557 -0.4866  0.1726
 6887W        W20301   4.988   0.126  11.483 -0.2877 -0.0013 -0.0022
 6888W        W20302  16.265  17.338   4.763 -0.0318  0.3458 -0.3668
 6889W        W20303  16.770   0.110   2.889  0.0978 -0.0504 -0.0022
 6890W        W20304   1.463   6.794  10.608  0.0227  0.2461 -0.0612
 6891W        W20305  16.084   3.011  13.781 -0.1978 -0.0229  0.0760
 6892W        W20306  11.933  13.214   4.553 -0.0569  0.0385  0.2271
 6893W        W20307   4.256   2.683   5.572 -0.0358  0.2169 -0.0601
 6894W        W20308  15.290   5.599   5.993  0.0771 -0.1128 -0.1457
 6895W        W20309  16.567   7.093   6.378  0.0949  0.1180 -0.0033
 6896W        W20310  13.429   7.597  13.398 -0.2971 -0.2225  0.1766
 6897W        W20311  15.409   3.264   2.202 -0.0789  0.1459 -0.0737
 6898W        W20312  14.706  11.432  11.957  0.3129  0.3271 -0.3382
 6899W        W20313   2.577   6.501  14.215  0.0826  0.0085 -0.0555
 6900W        W20314   5.807   3.655  11.239  0.0771 -0.1791 -0.1047
 6901W        W20315   0.866  16.938  13.423  0.3403  0.1539 -0.2222
 6902W        W20316  13.453  11.226  10.777  0.0450 -0.5761  0.1959
 6903W        W20317   0.961   1.626   5.658 -0.1935  0.1098 -0.0368
 6904W        W20318   9.401   1.751  12.411  0.0366 -0.1364  0.0749
 6905W        W20319  12.222  14.985   0.051  0.0390  0.0966 -0.1459
 6906W        W20320   1.732   2.383   0.863 -0.2558 -0.1441 -0.1792
 6907W        W20321  12.030  14.855   4.662 -0.0320 -0.1954  0.1549
 6908W        W20322  16.268  13.821   1.317 -0.2215 -0.5730 -0.2494
 6909W        W20323  10.342   5.128   2.289 -0.0419  0.0182 -0.0804
 6910W        W20324  10.386   3.656   4.825 -0.0975  0.0465 -0.0370
 6911W        W20325  17.195  15.347   5.534 -0.1715  0.1496  0.1574
 6912W        W20326   7.914   9.002   1.688 -0.2422  0.1429 -0.3475
 6913W        W20327  11.971   5.171   3.176  0.4760 -0.0289  0.0622
 6914W        W20328  12.828   8.391  13.567  0.3562 -0.0232  0.0440
 6915W        W20329   9.223   8.533   1.453 -0.2426 -0.3752  0.1728
 6916W        W20330  15.393   2.144   2.262 -0.1749 -0.2651  0.0052
 6917W        W20331   4.490  14.204  14.504 -0.2147  0.0645 -0.0482
 6918W        W20332  14.134   5.249   4.426 -0.0909 -0.1261  0.0364
 6919W        W20333   2.456  14.262   0.353 -0.0949  0.2861 -0.3037
 6920W        W20334   2.055   7.276  11.408 -0.0798 -0.2037 -0.2424
 6921W        W20335  16.464  12.457   3.423 -0.3501 -0.2300  0.2672
 6922W        W20336  15.980   6.999   3.081 -0.1233  0.3801  0.3514
 6923W        W20337   8.100   4.281   5.433 -0.0354  0.0131  0.0297
 6924W        W20338  15.331   9.441  13.955 -0.1645 -0.0938  0.2432
 6925W        W20339   9.558   7.858  12.418  0.4503  0.0152  0.2452
 6926W        W20340   9.647   2.582   4.926  0.1285 -0.1098  0.0312
 6927W        W20341   6.362   7.964   5.268 -0.0620  0.0378  0.0852
 6928W        W20342  17.333  12.406  13.975 -0.0770  0.3715 -0.0896
 6929W        W20343  11.920  16.007  12.857 -0.1047  0.1729  0.0822
 6930W        W20344  11.426   0.453  15.069 -0.2194  0.1333  0.1901
 6931W        W20345   3.083  11.553   5.381  0.3944 -0.0199 -0.1399
 6932W        W20346   1.272  18.023  12.142 -0.2673  0.3000  0.0518
 6933W        W20347  15.477  16.501   2.537 -0.0771 -0.0101  0.2160
 6934W        W20348   9.162   7.310  14.316  0.2292 -0.0231  0.2113
 6935W        W20349   5.516   7.586  13.774  0.3067  0.1296  0.2295
 6936W        W20350   4.195   2.526  11.635  0.0097 -0.1798 -0.0072
 6937W        W20351   4.767  16.499   3.934 -0.1682  0.1909 -0.1342
 6938W        W20352  12.426  14.314  10.299 -0.0804 -0.0976 -0.1820
 6939W        W20353  12.363   6.846   4.292  0.0088 -0.1773 -0.1351
 6940W        W20354  16.482   1.481  10.976  0.0153 -0.1135  0.2092
 6941W        W20355   9.957   2.349  11.449 -0.1050 -0.4174 -0.1496
 6942W        W20356  13.962  18.157   5.249 -0.1846  0.0990  0.0749
 6943W        W20357   8.657   7.389   4.716  0.1529 -0.1896 -0.0935
 6944W        W20358  16.135   7.534   1.054 -0.0583 -0.1620  0.1444
 6945W        W20359  15.244  12.867   0.546 -0.1266  0.0045 -0.1362
 6946W        W20360   9.521   5.665   5.806 -0.1298 -0.0489  0.0642
 6947W        W20361   7.306  15.976  15.844 -0.2707  0.1575  0.0973
 6948W        W20362   7.573   5.862  10.926  0.1828  0.2545 -0.0441
 6949W        W20363  17.719  14.621  11.469 -0.3285  0.1673 -0.0234
 6950W        W20364   9.036   8.340  13.681 -0.0575  0.0363  0.3622
 6951W        W20365   1.668  18.308   0.612  0.1155 -0.0965 -0.0955
 6952W        W20366  17.327  12.231  13.005 -0.0580  0.1181 -0.0273
 6953W        W20367  18.152  10.501   2.189  0.1358  0.1168 -0.1579
 6954W        W20368   3.173   0.256  10.687  0.0888 -0.1659 -0.0087
 6955W        W20369   0.539   5.753   2.353 -0.3173 -0.0322 -0.1343
 6956W        W20370   4.224   0.970  13.131 -0.3579  0.0585  0.0754
 6957W        W20371  14.477   6.166  15.196 -0.1694 -0.2081 -0.0143
 6958W        W20372   8.285   6.719  10.648  0.0334 -0.0701 -0.1805
 6959W        W20373   4.324  17.996   0.960  0.1693  0.0240 -0.1632
 6960W        W20374  14.336   9.438  10.823 -0.0636  0.0348  0.1413
 6961W        W20375  12.261   5.237   2.690 -0.0021  0.1001  0.0037
 6962W        W20376   0.231   8.608  15.004 -0.0506 -0.1080 -0.1562
 6963W        W20377  14.155  17.013  15.172  0.0257 -0.1663 -0.0190
 6964W        W20378   0.642  18.092   3.246 -0.0177 -0.1253 -0.1947
 6965W        W20379  12.301   1.371  10.984  0.2078  0.3040  0.1541
 6966W        W20380   2.751  16.608   3.240  0.0766 -0.1270  0.1892
 6967W        W20381  13.125   0.148   9.514  0.0723 -0.3238  0.0484
 6968W        W20382  18.442   2.161  10.589  0.0566  0.0607 -0.3742
 6969W        W20383  17.947   0.037   5.923  0.2433 -0.0233  0.0026
 6970W        W20384   8.682   8.912  16.006 -0.0024  0.1243  0.3282
 6971W        W20385   5.240   0.934   3.439  0.2936  0.1757  0.0461
 6972W        W20386  16.876  15.246  12.868 -0.0695  0.0227 -0.3276
 6973W        W20387  10.833   8.325  12.535  0.0428 -0.1979  0.2333
 6974W        W20388   2.520  15.619  13.164  0.0370  0.1305 -0.3029
 6975W        W20389   3.987  12.664  13.460 -0.1571  0.2317 -0.0727
 6976W        W20390  10.415   1.980  14.339  0.2978  0.2421 -0.2197
 6977W        W20391  13.358  15.606  13.640  0.2067 -0.1615  0.3770
 6978W        W20392  12.790  16.001   5.398  0.1067  0.1044  0.2851
 6979W        W20393   2.963   4.617   3.567 -0.0797 -0.0012 -0.2315
 6980W        W20394   5.922   0.051  15.513 -0.1122 -0.0410 -0.0384
 6981W        W20395   7.158   9.964   2.484 -0.0806  0.0130 -0.3686
 6982W        W20396  12.810  17.841   5.534 -0.1273 -0.0387  0.1607
 6983W        W20397  10.088   2.520   9.669  0.1516  0.1889  0.3137
 6984W        W20398  15.565   5.674   3.811 -0.1400 -0.3564 -0.1698
 6985W        W20399  17.259   3.260   2.492 -0.3759 -0.2624  0.0111
 6986W        W20400   5.471  15.372   1.254  0.4270 -0.2989 -0.2923
 6987W        W20401  10.499   8.647   3.568 -0.1093  0.0896 -0.0347
 6988W        W20402   5.229  17.836   5.405  0.2735  0.5607  0.3284
 6989W        W20403  16.035  16.045  14.626 -0.1990 -0.1039  0.0233
 6990W        W20404   9.159  17.612   0.010 -0.0606 -0.0358  0.0548
 6991W        W20405  15.834  13.980  10.043  0.2051 -0.0984  0.0979
 6992W        W20406   0.536   7.426   0.890 -0.2900  0.0105  0.2496
 6993W        W20407   7.253  18.099  13.350 -0.0147 -0.1836 -0.0176
 6994W        W20408   5.564  11.052   0.654  0.2551 -0.2231  0.0983
 6995W        W20409  18.128   7.933   2.134 -0.0761  0.2609  0.0622
 6996W        W20410   2.149   5.487  14.118 -0.0798  0.1846  0.0901
 6997W        W20411  11.884  10.286  12.047  0.1101  0.1740  0.1694
 6998W        W20412   8.839  12.684  16.181 -0.1023  0.0681 -0.2118
 6999W        W20413  15.986   5.909  13.288  0.0666 -0.0515  0.1621
 7000W        W20414  12.705   1.347   1.742 -0.0246 -0.1350 -0.0045
 7001W        W20415  17.145  11.213   2.386 -0.1176 -0.1386 -0.0363
 7002W        W20416   6.052   5.763  14.021 -0.1979  0.0138  0.1228
 7003W        W20417   8.035   0.139   0.094  0.0529  0.3538  0.0972
 7004W        W20418   3.372  10.891  12.525 -0.1857  0.0463  0.0950
 7005W        W20419  10.852   0.324  10.023 -0.0081  0.1274 -0.0720
 7006W        W20420   6.327  13.222   0.349  0.1856  0.0872  0.2416
 7007W        W20421  15.708  15.590  14.823  0.7867  0.0377 -0.3194
 7008W        W20422   0.819   5.471  13.374  0.1192 -0.3316  0.0926
 7009W        W20423  15.048   2.734  11.752 -0.0771 -0.0730  0.0350
 7010W        W20424   9.167   5.595   2.344 -0.0192  0.0509 -0.0037
 7011W        W20425   2.011  12.079   4.061  0.4700 -0.2348 -0.0315
 7012W        W20426  16.473  10.890   3.436 -0.3124 -0.0344  0.0022
 7013W        W20427  13.288  12.002  14.452  0.2197  0.1884  0.0979
 7014W        W20428  14.217  12.919  11.249  0.1576  0.0399 -0.0603
 7015W        W20429  17.807  14.470   0.007  0.2895  0.3387  0.1152
 7016W        W20430  14.181  14.574   6.016  0.0892  0.1231  0.0077
 7017W        W20431   3.262  12.268  15.637 -0.1275 -0.2192  0.0556
 7018W        W20432  12.589  15.324   3.727 -0.1484  0.0361 -0.1917
 7019W        W20433   8.658  10.731   5.045 -0.0222 -0.2399 -0.0170
 7020W        W20434  15.810   4.691   5.212  0.0816 -0.2387  0.4595
 7021W        W20435  14.314  17.531  14.163 -0.0556 -0.1108  0.0626
 7022W        W20436   8.696   6.027  12.638  0.1077  0.1700  0.1430
 7023W        W20437  12.078   9.223   3.220  0.1635  0.0600 -0.0031
 7024W        W20438  10.962   2.056  14.518  0.0276  0.0663  0.2288
 7025W        W20439   2.481   7.174   5.265  0.2311  0.0915  0.1624
 7026W        W20440   4.328  11.333   5.030  0.1718  0.4324  0.1348
 7027W        W20441  12.377  14.240  16.076 -0.0502 -0.3511  0.1958
 7028W        W20442  16.597   1.963  13.273 -0.2456  0.0596  0.0889
 7029W        W20443  12.529   2.797  14.145 -0.0292  0.1597  0.2436
 7030W        W20444   4.117   1.481   3.966 -0.3394 -0.1740  0.2224
 7031W        W20445   5.277   6.070  11.487  0.2644  0.1561 -0.1351
 7032W        W20446  12.910   7.269   5.530 -0.1890  0.0416 -0.1999
 7033W        W20447   9.355   0.794   3.817 -0.3240  0.1208 -0.0875
 7034W        W20448   0.640   7.358   5.114 -0.0407  0.0458 -0.1449
 7035W        W20449   3.062  17.515  15.488  0.0975 -0.0875 -0.0088
 7036W        W20450  10.916  17.427  11.629 -0.2322  0.2552 -0.0031
 7037W        W20451   8.937   2.192  13.428  0.2971 -0.1742  0.0100
 7038W        W20452  14.784  10.975  12.307  0.1763  0.1450  0.1122
 7039W        W20453  18.058   7.082   0.381 -0.4558  0.0004  0.2558
 7040W        W20454   4.297  11.815   5.252  0.1673  0.1092 -0.0817
 7041W        W20455  14.407   6.560   1.310  0.1307 -0.0612  0.1867
 7042W        W20456   6.070  10.625   5.227 -0.1633  0.1242  0.0618
 7043W        W20457  10.694  14.389  15.344  0.3405 -0.0288 -0.0158
 7044W        W20458  10.574   5.793   0.894 -0.3777 -0.1068 -0.1442
 7045W        W20459  16.399   2.885  11.467  0.1085 -0.1956  0.2885
 7046W        W20460   8.797  14.487  14.432 -0.2463  0.5315 -0.1236
 7047W        W20461   4.043  14.374   1.982  0.1162  0.0701  0.2250
 7048W        W20462  17.905  10.340  15.118 -0.1397  0.1170  0.0360
 7049W        W20463  18.085   3.553  13.982  0.0527 -0.0319 -0.2217
 7050W        W20464  13.265   7.707   0.101  0.0859 -0.0057 -0.1061
 7051W        W20465  12.863   6.286  15.999 -0.0001 -0.3066  0.1708
 7052W        W20466   5.633   0.955   3.769  0.1550 -0.1732 -0.0242
 7053W        W20467  10.805  10.845  14.347  0.2176  0.2633 -0.2040
 7054W        W20468  13.666  16.777   2.603  0.2156  0.1419  0.0131
 7055W        W20469   0.324   4.521  12.182 -0.1444 -0.1280 -0.1646
 7056W        W20470  13.412   5.223  13.953  0.0060  0.3212 -0.1765
 7057W        W20471  17.503   9.063   2.078 -0.1070  0.4334  0.0098
 7058W        W20472   9.015   6.051  14.651 -0.2484 -0.1076  0.3784
 7059W        W20473   6.021  16.385  11.535  0.0670 -0.0006 -0.0248
 7060W        W20474   2.543  14.840   4.110  0.0241  0.2391 -0.0051
 7061W        W20475  11.606   1.796  16.189  0.1414  0.0074 -0.2568
 7062W        W20476   2.346   4.673  13.635 -0.1018  0.0096  0.1502
 7063W        W20477   8.513   7.560   0.006 -0.5000 -0.0060  0.2840
 7064W        W20478  16.589  16.888   1.915  0.0408 -0.0023  0.2784
 7065W        W20479   9.602  10.531   2.294  0.2042 -0.2703 -0.0341
 7066W        W20480  16.876   2.669  12.075 -0.3381  0.1775  0.1346
 7067W        W20481  14.173  16.558  16.217 -0.0790 -0.0584 -0.0210
 7068W        W20482   7.044   0.659   5.346 -0.1694 -0.1250  0.2237
 7069W        W20483   4.082  12.319   2.070 -0.1857 -0.2240 -0.0962
 7070W        W20484   7.954   2.752  14.782 -0.0790 -0.3394 -0.0899
 7071W        W20485   6.509  15.897  13.023  0.2138 -0.0979 -0.2612
 7072W        W20486   7.881   1.020  11.439  0.1180  0.0707 -0.3449
 7073W        W20487   1.108   2.592   6.308  0.1003  0.1486  0.1396
 7074W        W20488  12.568  17.369   2.576  0.1192  0.2819  0.1613
 7075W        W20489   0.032   0.315   5.002 -0.1729  0.0238 -0.0593
 7076W        W20490  17.680  17.205  10.786 -0.0107 -0.1102 -0.0375
 7077W        W20491  10.917   3.767   5.125 -0.1086 -0.1654  0.1885
 7078W        W20492  17.712   9.343   4.512  0.0096  0.0099  0.0641
 7079W        W20493  11.981  17.617   1.956 -0.0653 -0.1546  0.0907
 7080W        W20494  17.346   0.406  13.561 -0.1220 -0.0369 -0.0413
 7081W        W20495   7.443  10.404   5.886 -0.0694 -0.3188  0.2160
 7082W        W20496  13.414  16.224  11.658  0.3178  0.1910  0.1473
 7083W        W20497  15.958   3.798   0.619  0.3483 -0.0233  0.2107
 7084W        W20498   5.211  16.105  14.242  0.0807  0.4072 -0.2211
 7085W        W20499  12.653  11.587  15.122  0.3053  0.0711  0.3528
 7086W        W20500   9.876  17.962  13.905  0.1079  0.0978 -0.0051
 7087W        W20501   9.698   6.383  13.592  0.1107 -0.0184 -0.1081
 7088W        W20502   4.436  13.488  10.564  0.1181  0.3494 -0.2468
 7089W        W20503   5.936   0.970  16.214 -0.0902  0.2202 -0.2511
 7090W        W20504  16.854  14.701   3.487  0.1066  0.2679  0.2904
 7091W        W20505  10.360  17.883  16.228  0.0424  0.3107  0.2960
 7092W        W20506  13.360  11.900  16.126 -0.0334 -0.3928 -0.0910
 7093W        W20507   5.847   8.680   3.551  0.1254 -0.0859  0.2473
 7094W        W20508   0.130  12.462   1.167 -0.1310  0.2019 -0.1166
 7095W        W20509   3.990  18.011  10.600  0.0022 -0.2321 -0.1461
 7096W        W20510   2.657  17.365  13.912  0.4130  0.2474  0.1544
 7097W        W20511   4.711  16.155   1.010  0.1695  0.2212 -0.4561
 7098W        W20512   3.790  14.777  10.858  0.1006  0.2475  0.0756
 7099W        W20513   3.586   2.292  15.135  0.0034  0.1801  0.3677
 7100W        W20514  13.901   1.639   1.351 -0.3064  0.1830  0.1195
 7101W        W20515   9.802   5.504   5.440  0.0124 -0.2386 -0.2133
 7102W        W20516  11.146   8.982   2.905  0.0428  0.0586  0.0932
 7103W        W20517  10.906   4.092   1.589  0.0619  0.5861 -0.1840
 7104W        W20518   7.097  18.283  12.223  0.0721 -0.0087 -0.1161
 7105W        W20519   6.957  18.243  10.405 -0.0492  0.1767  0.0089
 7106W        W20520   0.970   9.517  13.253  0.1645  0.0707  0.0085
 7107W        W20521   3.729  17.047   5.291 -0.0556  0.2779 -0.2060
 7108W        W20522  11.729  11.875   4.433  0.1818 -0.0838  0.0863
 7109W        W20523   9.105  14.701  15.360  0.5208  0.1080 -0.1302
 7110W        W20524  13.016   5.317   0.170 -0.2513 -0.0283  0.3239
 7111W        W20525  15.968  18.236   1.354  0.1874 -0.2836  0.4008
 7112W        W20526   7.665  17.487   2.306  0.0331  0.1047 -0.1896
 7113W        W20527   7.520  14.969  11.383  0.0866  0.0733  0.0577
 7114W        W20528   4.036  15.081  12.890 -0.1195  0.2367 -0.1647
 7115W        W20529  17.520   1.471   2.369  0.1321 -0.1435 -0.0212
 7116W        W20530   5.006   5.557   3.070 -0.0834  0.3871  0.1870
 7117W        W20531   2.736   1.064  11.100  0.3807  0.0986 -0.1693
 7118W        W20532  11.167   1.875   3.551 -0.0335 -0.0626 -0.0755
 7119W        W20533   3.880   3.277   5.012  0.2542  0.0972 -0.0350
 7120W        W20534  13.263  17.721   5.659 -0.2282  0.1676 -0.2244
 7121W        W20535   7.452  16.710  14.080  0.0010  0.1489  0.2454
 7122W        W20536  10.939   9.809  15.948  0.1743  0.0794 -0.1487
 7123W        W20537   3.973  16.704   0.155 -0.1553 -0.0049  0.3241
 7124W        W20538  17.525   6.889   4.109 -0.0607  0.0989  0.0670
 7125W        W20539   1.980  12.242  15.461 -0.0014  0.0576 -0.1392
 7126W        W20540  15.429  13.911   5.044  0.1365 -0.2365  0.0821
 7127W        W20541  17.087  12.844   1.856  0.0123  0.0012 -0.0310
 7128W        W20542   4.239   6.937  11.135 -0.0195  0.0128  0.1590
 7129W        W20543   9.356  14.793   1.095  0.0103 -0.1681  0.3055
 7130W        W20544   0.995   0.079   0.063  0.0571  0.0324 -0.0193
 7131W        W20545  10.440   1.512   1.160 -0.0545  0.1724  0.0994
 7132W        W20546  11.143   8.767  16.057  0.0608 -0.3541  0.0702
 7133W        W20547   6.203  17.980  10.809  0.0305 -0.0341 -0.0332
 7134W        W20548  10.299   1.236   3.343  0.2435 -0.1431 -0.0772
 7135W        W20549  12.485   5.690  11.659  0.0246  0.0161 -0.4365
 7136W        W20550  13.607  13.517   1.093  0.0351 -0.1480  0.2181
 7137W        W20551  12.760  15.556  15.621 -0.1718  0.2824  0.1501
 7138W        W20552   4.809   4.486  12.922 -0.0186  0.2615  0.1045
 7139W        W20553  13.626   6.244  15.791 -0.2168  0.1766  0.1867
 7140W        W20554  17.701  15.584  10.569 -0.0901 -0.0488  0.0835
 7141W        W20555   2.763  18.259  13.544 -0.1710 -0.1216 -0.1769
 7142W        W20556  10.737  10.663   4.217  0.4079 -0.1753 -0.1061
 7143W        W20557  16.735  11.132   2.891 -0.0490 -0.0027 -0.0874
 7144W        W20558   1.342  12.513  13.529 -0.1589  0.1353  0.1534
 7145W        W20559   8.507  14.388   4.773 -0.0174  0.1432 -0.2367
 7146W        W20560   0.273   9.577   2.261  0.4054  0.1604  0.2032
 7147W        W20561   9.054  10.634   3.436  0.1955  0.0857 -0.2027
 7148W        W20562   8.394   4.345  11.982 -0.1638 -0.0614 -0.4025
 7149W        W20563  11.056   8.798   3.469 -0.1538 -0.1906  0.2087
 7150W        W20564   3.339   2.636  11.714  0.0464 -0.1231 -0.0219
 7151W        W20565  12.138   5.652   2.432 -0.0924  0.0519 -0.1282
 7152W        W20566   8.132   5.747   2.376 -0.0698  0.0990 -0.3534
 7153W        W20567  14.515   2.054   0.658  0.0619 -0.0042 -0.4110
 7154W        W20568   8.002   5.077   9.773 -0.0987 -0.3628 -0.0783
 7155W        W20569  16.753  18.413  11.095 -0.2027  0.0472 -0.0047
 7156W        W20570   1.790   6.233   4.093 -0.0971  0.3418 -0.0885
 7157W        W20571   1.449   4.822   1.418  0.0163 -0.2108  0.2200
 7158W        W20572   2.230   6.919   4.929  0.0053  0.1490  0.1863
 7159W        W20573   6.484   9.487  12.262 -0.3224 -0.1393  0.1632
 7160W        W20574  12.243   8.680   0.760 -0.1012  0.1864 -0.1788
 7161W        W20575   8.013   8.792   2.555 -0.1587  0.3244 -0.0521
 7162W        W20576   8.140  15.964  11.524  0.2129  0.1773  0.0546
 7163W        W20577   6.017  11.066  12.406  0.1834 -0.2588 -0.0407
 7164W        W20578   8.146  14.754   4.654  0.3475 -0.5476 -0.0654
 7165W        W20579  10.332   4.065  13.355  0.1511  0.0274  0.1023
 7166W        W20580   4.732  14.853   3.187 -0.0017 -0.0434  0.1601
 7167W        W20581   1.486   6.650   3.007  0.0321  0.0411  0.0210
 7168W        W20582  12.710   7.442  12.209  0.0172 -0.2952  0.1081
 7169W        W20583  10.300   9.460   1.909 -0.1546 -0.1654  0.1397
 7170W        W20584   5.374   3.845   5.359  0.3190  0.3463 -0.2406
 7171W        W20585   6.363   3.031   5.118  0.5527  0.1756 -0.0527
 7172W        W20586  18.316   4.817   3.057 -0.0673 -0.0418  0.0045
 7173W        W20587  13.884   0.623  15.219 -0.1059 -0.0470 -0.1604
 7174W        W20588  14.068   9.861  10.940 -0.2408 -0.2814  0.1401
 7175W        W20589   4.952  16.996   2.551 -0.0367  0.1763 -0.1069
 7176W        W20590   9.099   2.885   0.788 -0.0234  0.2530  0.1942
 7177W        W20591  12.284   3.422   2.000 -0.2805  0.3461  0.1222
 7178W        W20592   4.321  17.939   3.974  0.1841  0.1396  0.1703
 7179W        W20593   3.483  12.513   6.002 -0.0618  0.2136  0.3660
 7180W        W20594   0.284  10.975  10.254  0.1320 -0.0617 -0.3052
 7181W        W20595  16.862   2.809  15.726  0.1779  0.0922  0.1258
 7182W        W20596  12.846   4.208  15.183 -0.0770  0.0414  0.2802
 7183W        W20597  14.655  15.494   4.019  0.0800  0.0146  0.2714
 7184W        W20598  16.961   7.756   1.372  0.1733 -0.0871  0.0534
 7185W        W20599  14.491   4.305  12.771 -0.0099  0.2495  0.2504
 7186W        W20600   3.546  10.429  11.836 -0.0503 -0.0629 -0.0223
 7187W        W20601  17.328   6.794  16.050  0.1083  0.4018 -0.1833
 7188W        W20602   9.938   4.953   1.713  0.0837 -0.0480  0.1049
 7189W        W20603   1.994  12.165   2.986 -0.0484 -0.0594  0.2315
 7190W        W20604  15.067  15.114  15.507  0.1396 -0.1426 -0.0982
 7191W        W20605  17.544   2.317  15.664  0.1200  0.4368  0.3857
 7192W        W20606   3.256   0.710  10.841  0.0462 -0.0769  0.0669
 7193W        W20607  17.711  13.609  11.483 -0.0513 -0.3160  0.1134
 7194W        W20608   7.734   7.632  15.069 -0.3734  0.0523  0.1732
 7195W        W20609  16.531   0.944  11.159  0.1149  0.0598 -0.2684
 7196W        W20610  11.761  15.560   3.835 -0.0015  0.1971  0.0225
 7197W        W20611   9.332   7.441   0.698  0.1541 -0.0923  0.1707
 7198W        W20612  12.071   6.945   0.980 -0.1571  0.0392 -0.2021
 7199W        W20613   2.576   9.539   4.592 -0.0446  0.2708  0.2044
 7200W        W20614  14.662   3.347   0.735  0.2921 -0.1667 -0.2405
 7201W        W20615   4.399  15.589  10.604 -0.1151  0.1113 -0.0575
 7202W        W20616  12.857   4.263   2.437  0.0452 -0.1565  0.1044
 7203W        W20617   2.787  15.311  12.729 -0.0089 -0.1368  0.3966
 7204W        W20618   8.331  15.722   1.059  0.1552  0.0880 -0.1523
 7205W        W20619  10.364   9.154  11.336 -0.0755 -0.3637 -0.1917
 7206W        W20620   7.673  13.502  12.132  0.2713  0.3493 -0.1453
 7207W        W20621   7.664   9.760   3.453 -0.2190 -0.2304  0.1143
 7208W        W20622   8.699  14.946   1.610 -0.0391  0.0520  0.0654
 7209W        W20623  16.838   6.395  12.310 -0.0168 -0.0311  0.1561
 7210W        W20624   3.879  14.596   0.340 -0.0098 -0.0625  0.1533
 7211W        W20625   4.167  12.608  14.460 -0.1141 -0.0161  0.2707
 7212W        W20626   0.891  14.841   1.731 -0.0589 -0.4331 -0.1179
 7213W        W20627   4.080  16.133  14.406  0.0434  0.0650 -0.0193
 7214W        W20628   4.766   3.039   5.572  0.1780  0.0199  0.0394
 7215W        W20629  17.473  13.765   3.092  0.2227 -0.1448 -0.0948
 7216W        W20630   6.067  11.871   4.472  0.0196 -0.0010  0.1300
 7217W        W20631  18.408  11.866   1.465  0.0974 -0.4262 -0.1625
 7218W        W20632  14.963   2.069  14.796  0.1435  0.0650  0.5605
 7219W        W20633   9.427  14.811  15.054 -0.0440 -0.3185  0.0273
 7220W        W20634  10.470   2.498   2.144  0.2684 -0.1258  0.2026
 7221W        W20635   1.727  14.506   3.711  0.1911  0.2237 -0.1711
 7222W        W20636   7.126   8.266  16.110  0.4071  0.0452  0.0088
 7223W        W20637  14.781  11.438  12.924 -0.1519  0.1012  0.2256
 7224W        W20638  12.354  14.687  12.318 -0.0189  0.2827  0.2193
 7225W        W20639  12.739  16.957  12.910 -0.0974  0.2254 -0.2097
 7226W        W20640  13.733  12.390  12.107 -0.0742 -0.1327 -0.1255
 7227W        W20641  11.854   3.651  16.131  0.1544  0.1222  0.0996
 7228W        W20642   0.931   9.016   5.721 -0.0471  0.1984  0.3283
 7229W        W20643   9.779   2.750   3.488 -0.0984 -0.2028  0.1677
 7230W        W20644   5.781  10.649   0.442  0.2357 -0.3722  0.0196
 7231W        W20645   7.511   8.729   0.240  0.1062  0.0563 -0.3644
 7232W        W20646  17.700  16.622  11.399 -0.2035  0.1766  0.2773
 7233W        W20647  13.123  15.195   3.392  0.0330  0.0524  0.2522
 7234W        W20648  17.560  10.246  12.609 -0.1781  0.0977 -0.2654
 7235W        W20649  12.537  10.469  10.823  0.1560 -0.2267 -0.3460
 7236W        W20650   1.790   3.484  13.625 -0.1219  0.0883  0.1236
 7237W        W20651  17.783   1.256   6.030 -0.0080  0.3143 -0.3521
 7238W        W20652   2.021  17.744  13.647 -0.0156 -0.0458 -0.2562
 7239W        W20653   6.297  15.376   0.488 -0.1420  0.1792  0.1633
 7240W        W20654  14.680   3.325   3.350 -0.3053  0.1607  0.0360
 7241W        W20655  10.058   9.034   3.439  0.0995 -0.0285  0.0698
 7242W        W20656  12.712   9.766   4.999  0.2676 -0.0207 -0.0989
 7243W        W20657   5.502   2.755   3.897 -0.1217 -0.3745 -0.0535
 7244W        W20658   2.647  16.616   5.923  0.0687  0.0819  0.0361
 7245W        W20659  14.101   5.685  12.788  0.0105 -0.3388  0.0722
 7246W        W20660  12.774  10.670   5.764 -0.1462  0.0467 -0.2045
 7247W        W20661  10.415  17.229  13.873 -0.1796 -0.0049 -0.1106
 7248W        W20662  12.159   7.275   0.421 -0.0267 -0.2314  0.1625
 7249W        W20663   4.604  16.073   1.606  0.2840 -0.0502  0.1091
 7250W        W20664   0.165   1.342   0.622  0.0276 -0.1123 -0.1491
 7251W        W20665   2.113   5.351   2.963  0.1540  0.0627  0.0629
 7252W        W20666   1.338  14.679   1.896 -0.2154  0.0165 -0.1425
 7253W        W20667  11.099   8.101  12.114  0.1287 -0.1161  0.0519
 7254W        W20668   9.902  11.585  14.026  0.4539 -0.2526 -0.2167
 7255W        W20669   3.562  16.830   3.721 -0.0972  0.1119 -0.1259
 7256W        W20670   7.799   5.725  13.930  0.2041 -0.0920 -0.1200
 7257W        W20671   1.640  16.381  11.661 -0.2278  0.0311 -0.1137
 7258W        W20672  13.070  15.244  15.936  0.2803  0.2483 -0.1726
 7259W        W20673   5.242  12.983   0.894  0.1786 -0.1955 -0.1635
 7260W        W20674  16.281   7.901  16.175  0.0386  0.1204 -0.3964
 7261W        W20675   2.817  11.434   0.482  0.0088 -0.2797  0.1174
 7262W        W20676  16.855  15.163  12.320 -0.2705  0.1454  0.2129
 7263W        W20677   3.188  14.302  15.296 -0.1022  0.1627 -0.2881
 7264W        W20678  13.995   4.120   0.234  0.1060  0.0211  0.3488
 7265W        W20679  11.165   0.110  16.202  0.0864 -0.2253 -0.0984
 7266W        W20680  10.201   3.677   1.705 -0.0414 -0.0526 -0.2872
 7267W        W20681  13.409   9.504   0.713  0.1196  0.0140 -0.0926
 7268W        W20682  10.333   4.066  11.060 -0.2724 -0.0852  0.0857
 7269W        W20683  15.123  10.330  13.853  0.1721  0.0170  0.1470
 7270W        W20684   7.529  17.771   0.612  0.3427  0.0771 -0.2848
 7271W        W20685   3.439   6.777  11.382 -0.0818  0.1115 -0.3097
 7272W        W20686   0.402  11.424   5.012  0.1003 -0.1085  0.2340
 7273W        W20687  12.248  12.845  14.720  0.2871  0.1255  0.0764
 7274W        W20688   8.649  16.370   3.034 -0.1682  0.0903  0.0474
 7275W        W20689   6.762   3.950   5.229  0.0546  0.1538  0.2038
 7276W        W20690   1.750   0.200   1.290 -0.1035 -0.3841  0.2177
 7277W        W20691  11.204   3.829   9.872 -0.0067 -0.2930 -0.1598
 7278W        W20692   8.886   9.671  14.770  0.1731 -0.0817 -0.3233
 7279W        W20693   0.799  13.059   5.738  0.0744 -0.4018  0.1001
 7280W        W20694  14.926   7.269  13.513 -0.2723  0.1219 -0.2135
 7281W        W20695  16.245   6.469   2.305  0.1176  0.0990 -0.0338
 7282W        W20696   8.243  14.083   5.279  0.2316  0.1893  0.0923
 7283W        W20697   9.310  10.167  12.364 -0.2523  0.0824 -0.0035
 7284W        W20698   9.118   3.306   4.975 -0.1568 -0.0122 -0.1195
 7285W        W20699   6.552   1.625   0.289 -0.0106 -0.1302 -0.2927
 7286W        W20700   7.894   4.742   2.872  0.0903  0.0080 -0.2924
 7287W        W20701  15.484   3.184   5.707  0.0111 -0.1033  0.3029
 7288W        W20702   1.527   0.722  12.806 -0.2045 -0.0252 -0.0608
 7289W        W20703   4.363  13.525   3.766 -0.0281  0.0375 -0.3702
 7290W        W20704   8.485   2.491  13.619  0.1173  0.1780  0.2658
 7291W        W20705   3.284  17.624   1.748  0.0661  0.2081 -0.0394
 7292W        W20706  12.234   8.955   5.535 -0.0890 -0.1813  0.1256
 7293W        W20707   5.514  13.451   2.109  0.1985  0.1127 -0.4281
 7294W        W20708  13.588   9.778   0.270 -0.2710  0.3879  0.1288
 7295W        W20709   6.239   2.095   2.353  0.1352 -0.0392 -0.0214
 7296W        W20710   1.501  14.238  10.917  0.0056 -0.2499  0.0832
 7297W        W20711  13.008   5.492  14.377  0.0081 -0.1484  0.0089
 7298W        W20712   2.789  15.959   1.897  0.0262 -0.2299 -0.4662
 7299W        W20713  16.879  15.622  12.068 -0.0418  0.0112 -0.0768
 7300W        W20714   5.924   7.193   4.098  0.0959  0.2268  0.1254
 7301W        W20715   6.224   9.223   5.156  0.2903 -0.0823 -0.1242
 7302W        W20716  17.661   0.432   2.787 -0.4153  0.0000 -0.2055
 7303W        W20717  12.288  14.350  10.778 -0.2028 -0.2283 -0.0733
 7304W        W20718   3.532  15.238   2.065 -0.1025  0.1046 -0.1924
 7305W        W20719  13.045   4.672   1.085 -0.0949  0.0803 -0.1234
 7306W        W20720  16.018   2.546  15.136  0.2803 -0.0663  0.0704
 7307W        W20721  12.257   6.814  13.763  0.2496 -0.0037  0.0743
 7308W        W20722  14.094  18.335   2.941  0.0808 -0.3722  0.1021
 7309W        W20723  16.655  17.748   1.547 -0.0189 -0.0561 -0.0138
 7310W        W20724  11.762  18.388  11.864 -0.0233  0.0393  0.0692
 7311W        W20725  12.875  12.404  10.858 -0.3482  0.3182 -0.2368
 7312W        W20726  15.555  10.012   1.272  0.3470  0.5192  0.2059
 7313W        W20727   3.648  18.109   3.747  0.1876  0.1486 -0.1317
 7314W        W20728   6.739  11.542   2.379 -0.0401 -0.1911  0.1212
 7315W        W20729  10.756  13.460  13.536 -0.1719  0.2516 -0.1008
 7316W        W20730  15.963  13.699  11.492  0.0803  0.1140 -0.2330
 7317W        W20731  10.484   8.458  13.845  0.0199  0.0160 -0.1418
 7318W        W20732  10.963   8.340   5.396  0.1291  0.4483 -0.0877
 7319W        W20733   5.214  13.616  12.455 -0.0069 -0.0176  0.1315
 7320W        W20734   3.802  18.123  11.114  0.1884 -0.0362  0.0991
 7321W        W20735  16.384  12.631  15.263  0.0068 -0.1071  0.1770
 7322W        W20736   9.267  17.007  14.260 -0.1355 -0.1178  0.0570
 7323W        W20737  11.253   8.959  14.052  0.0327 -0.1468  0.0659
 7324W        W20738  17.933  17.037  11.631 -0.0939  0.2914 -0.2230
 7325W        W20739  18.240  18.351   4.877 -0.2993  0.1304 -0.0497
 7326W        W20740   9.583  15.206  14.111 -0.1743 -0.2505 -0.0354
 7327W        W20741   3.973   0.542   0.713 -0.4727  0.0410 -0.0190
 7328W        W20742   3.568  15.942   4.948 -0.0911 -0.0614  0.1432
 7329W        W20743  13.732   6.436   1.824 -0.2350  0.0070 -0.2044
 7330W        W20744  17.029   4.196   2.934 -0.4612 -0.1388  0.1178
 7331W        W20745   8.878   5.044  12.424  0.1038  0.3416  0.0796
 7332W        W20746  13.540  18.190   0.958  0.2653  0.1635 -0.0344
 7333W        W20747  11.172  15.634   0.267 -0.2896  0.0124 -0.0053
 7334W        W20748   6.521   8.911  10.946  0.0078  0.1602 -0.1194
 7335W        W20749   5.852   8.237   6.252 -0.2093  0.3670 -0.1706
 7336W        W20750   0.783  16.244  16.230 -0.2854 -0.1453  0.1230
 7337W        W20751  12.518   6.518  14.042 -0.0178  0.0563  0.3973
 7338W        W20752  13.480  18.124  15.547 -0.2047 -0.0109 -0.0199
 7339W        W20753  16.832   1.112   2.854 -0.1438 -0.0335  0.1113
 7340W        W20754  17.520  13.378  13.617  0.1093 -0.0217  0.0975
 7341W        W20755   8.551   1.906  13.649  0.1025 -0.3135  0.0816
 7342W        W20756   8.287   8.855  14.805  0.1775 -0.3891  0.2121
 7343W        W20757   9.282  10.826   5.556 -0.1702 -0.1595 -0.2074
 7344W        W20758  15.447  10.894   1.941  0.0714 -0.1331  0.0971
 7345W        W20759   0.409   2.897   5.671  0.1211 -0.3218  0.1005
 7346W        W20760   0.747   2.015  13.282  0.0674  0.1173  0.0441
 7347W        W20761   6.652  14.356  15.913 -0.2169  0.2174  0.3119
 7348W        W20762   6.048   3.521  12.038  0.3358 -0.3878 -0.3384
 7349W        W20763   3.842  13.375   3.624 -0.3798  0.0786 -0.1254
 7350W        W20764   6.378   4.581   4.630  0.2862 -0.0834 -0.0673
 7351W        W20765   6.367   1.633   2.507  0.1856  0.1716  0.1892
 7352W        W20766  11.109  10.692   5.242 -0.0083  0.2642  0.1400
 7353W        W20767   8.890   4.035  13.789  0.1138  0.1901  0.0220
 7354W        W20768   4.006  13.124  10.713 -0.1102 -0.1542 -0.2699
 7355W        W20769  14.741   7.300   1.746  0.1041 -0.0628  0.1382
 7356W        W20770  13.386   3.781   3.979  0.0912 -0.1178  0.0582
 7357W        W20771   5.535   0.499  15.555 -0.0583 -0.4735 -0.1210
 7358W        W20772  12.780   5.386   6.812  0.2246 -0.2043 -0.1893
 7359W        W20773   0.308   4.016  10.592 -0.4580 -0.0054  0.2105
 7360W        W20774   7.157   5.550   0.329 -0.1501 -0.0821 -0.1812
 7361W        W20775   2.233   2.567  10.015  0.0507 -0.0571  0.0527
 7362W        W20776  17.097  15.575   5.097 -0.0204 -0.0864  0.0826
 7363W        W20777   8.784   7.573  14.645  0.1029  0.0021  0.0814
 7364W        W20778   5.821   7.143  12.060  0.0977 -0.2258  0.2241
 7365W        W20779  17.121   0.261   0.441 -0.3624  0.0744  0.2513
 7366W        W20780  14.843  11.144  10.848 -0.0990 -0.1443  0.1710
 7367W        W20781   9.200  16.334   0.989 -0.0383  0.2825  0.1181
 7368W        W20782  17.186   0.764   2.729  0.0690  0.0819 -0.0589
 7369W        W20783  14.212   1.445  10.833 -0.1337 -0.0510 -0.0958
 7370W        W20784   0.709  13.317   4.639 -0.0643 -0.1403  0.0925
 7371W        W20785   3.378  10.038   4.344  0.1293  0.0864  0.3574
 7372W        W20786   3.004  16.640   1.539  0.0306  0.0607  0.1688
 7373W        W20787   4.845   1.876   2.323  0.3113  0.1135 -0.2774
 7374W        W20788  18.332   0.271   0.845 -0.1963  0.0369  0.0437
 7375W        W20789   1.410  10.502   3.164  0.1063  0.2563 -0.1477
 7376W        W20790   0.699  13.658   0.644 -0.0096  0.1984  0.0838
 7377W        W20791  16.015  16.376   2.582 -0.1234  0.0433 -0.2626
 7378W        W20792  12.190   1.046   3.323 -0.1797 -0.2463  0.2486
 7379W        W20793  17.729   6.474   6.440 -0.1017  0.0928  0.0565
 7380W        W20794  12.910  16.407  12.332 -0.0621  0.5533  0.0640
 7381W        W20795   4.344   3.072  15.447  0.2798 -0.3185 -0.1672
 7382W        W20796  11.391  13.669  14.908  0.0773  0.3205 -0.0724
 7383W        W20797   8.648  17.359  11.522 -0.2069  0.1395 -0.1998
 7384W        W20798   5.220  17.737  12.084  0.0679 -0.1024 -0.1049
 7385W        W20799  16.924   1.205  11.073  0.1609  0.2138  0.0789
 7386W        W20800   5.104   9.500   6.469 -0.1738  0.0022  0.1774
 7387W        W20801   0.955  14.697  13.161 -0.1445  0.2061 -0.1048
 7388W        W20802  16.456   4.676  11.438  0.0025 -0.1204 -0.1830
 7389W        W20803  14.515   0.046  13.794 -0.2014 -0.1356  0.1241
 7390W        W20804   2.820  15.341  13.736 -0.0108 -0.0232 -0.2416
 7391W        W20805   6.313  14.787  11.839  0.5573  0.2184 -0.3333
 7392W        W20806   1.057   4.693   5.758  0.1311  0.0887  0.2274
 7393W        W20807   3.786  13.940  15.831  0.0886  0.1953  0.0861
 7394W        W20808  15.608   0.371  12.704  0.1900 -0.0540 -0.1756
 7395W        W20809   1.486   9.969   5.610 -0.1158  0.0983  0.1007
 7396W        W20810  13.973  11.668  11.393  0.3031  0.0666 -0.2302
 7397W        W20811   0.921   3.678  14.047 -0.3229  0.4020 -0.1792
 7398W        W20812  14.605  14.214   2.753 -0.2441  0.0169  0.0007
 7399W        W20813  12.464  17.629   3.480  0.4316 -0.0404  0.1024
 7400W        W20814  16.589   4.884   0.858  0.1397  0.2173  0.1702
 7401W        W20815   9.261  17.565  15.380 -0.0627  0.1967 -0.2838
 7402W        W20816   6.486   4.820  10.763 -0.1124  0.0041 -0.0549
 7403W        W20817  11.898   6.578  12.458  0.2584  0.2014  0.3315
 7404W        W20818   1.656  13.340   2.876  0.3260  0.0091  0.0636
 7405W        W20819   5.309  17.674   1.366  0.0962  0.3018 -0.0022
 7406W        W20820  12.000  16.746  11.370 -0.1318  0.2876 -0.0392
 7407W        W20821  10.001   3.316   5.118 -0.1210 -0.1626 -0.0451
 7408W        W20822   7.067   1.085  14.260  0.2491  0.1970  0.0856
 7409W        W20823  13.266  11.438  12.988  0.0608  0.0057  0.0724
 7410W        W20824  13.039   0.434   4.960 -0.0452  0.1988 -0.0184
 7411W        W20825  15.952  10.938   1.747 -0.2306  0.2151 -0.1007
 7412W        W20826   0.700   4.057   5.806 -0.3240 -0.2550  0.1647
 7413W        W20827   7.828  16.085  14.668  0.1776  0.1096  0.0277
 7414W        W20828  15.469   0.009   6.014 -0.2455 -0.2345 -0.0321
 7415W        W20829   2.578   3.959  13.386  0.3461  0.1314  0.1748
 7416W        W20830   6.973  14.240   2.762  0.0306  0.3618  0.1665
 7417W        W20831   5.717   7.313   3.618  0.1911 -0.1572  0.0121
 7418W        W20832  11.773   4.027   1.562 -0.0141  0.0264 -0.1026
 7419W        W20833   2.019  13.279   2.139 -0.1500 -0.1618 -0.1788
 7420W        W20834  12.229   0.747  14.904 -0.3813  0.2351  0.1976
 7421W        W20835  14.409  17.460   9.715  0.3729  0.1067 -0.1467
 7422W        W20836   3.131   7.252  11.747 -0.0729  0.1349 -0.0322
 7423W        W20837  16.302   8.292   4.379  0.1061 -0.0423 -0.0127
 7424W        W20838   1.015   2.234   1.835 -0.2020 -0.0401  0.1701
 7425W        W20839   0.552  17.576  15.561 -0.1465  0.0108  0.1964
 7426W        W20840  15.153   2.319  15.209  0.1567 -0.1187  0.2115
 7427W        W20841   1.742   1.391  16.260 -0.0994  0.1640  0.0821
 7428W        W20842   5.646  15.878  14.153  0.1152 -0.0402 -0.1927
 7429W        W20843   5.323  12.118  14.277  0.0769  0.0070  0.0472
 7430W        W20844   6.906   5.240  10.150  0.0295 -0.0508 -0.0614
 7431W        W20845   6.718  12.055   3.782 -0.4227  0.1704 -0.0283
 7432W        W20846  10.515   7.081   0.617 -0.1101  0.0144 -0.1768
 7433W        W20847   2.131  11.516   5.195 -0.1822 -0.2587 -0.0969
 7434W        W20848   7.763  10.600  11.087 -0.0213 -0.0988  0.0076
 7435W        W20849  13.247   7.638   5.174  0.0666  0.1266 -0.0452
 7436W        W20850  10.000  10.222   5.447  0.0131 -0.0881  0.1057
 7437W        W20851   3.444   2.700  13.287  0.0019  0.1036 -0.0343
 7438W        W20852   9.231   7.246   2.101 -0.1620 -0.3282  0.0059
 7439W        W20853   2.333   8.318   6.095  0.2217  0.2179  0.0954
 7440W        W20854  13.682  17.976  15.084  0.0804  0.0583  0.1133
 7441W        W20855  10.451  16.824   1.926 -0.4374 -0.2247  0.0171
 7442W        W20856  17.230   3.903  10.719  0.0439  0.0540 -0.0850
 7443W        W20857   0.407  12.852  15.010 -0.1551 -0.1904 -0.1343
 7444W        W20858  10.017  18.351   1.889 -0.0433 -0.1896 -0.1001
 7445W        W20859   8.134   9.636  11.361  0.0229  0.1421  0.0209
 7446W        W20860   6.258  15.071   3.933 -0.1867  0.3045  0.2321
 7447W        W20861  11.942   1.748  13.433 -0.3583 -0.1697  0.0983
 7448W        W20862  17.072   3.489  12.204  0.1939 -0.0509 -0.0926
 7449W        W20863  16.312   8.210  10.079 -0.0141 -0.0147 -0.1746
 7450W        W20864  15.482   9.905   2.161  0.2859 -0.0458  0.0695
 7451W        W20865   3.876  14.812   4.434 -0.1008  0.0379 -0.2970
 7452W        W20866  12.948  10.835   3.460  0.2792 -0.0603 -0.1075
 7453W        W20867   0.692  15.544  11.630  0.2322  0.2331  0.0927
 7454W        W20868   5.785  12.408  15.136  0.3732  0.1572  0.0139
 7455W        W20869  12.743   0.176   0.423  0.2282 -0.1062  0.2889
 7456W        W20870  11.211   2.503  12.193 -0.1319  0.0757 -0.0363
 7457W        W20871  14.430  15.524   1.221 -0.0166 -0.0791 -0.3584
 7458W        W20872  11.401  10.614  11.210  0.2529 -0.1013  0.0654
 7459W        W20873  12.181  11.191  13.689 -0.0754  0.3031 -0.1905
 7460W        W20874  15.177   1.448  11.591  0.0380  0.0528 -0.1204
 7461W        W20875  16.205   6.907   2.058 -0.1944 -0.0997  0.0324
 7462W        W20876  16.108  15.577   1.889  0.1479 -0.1565  0.2593
 7463W        W20877   9.542  15.141   0.314  0.0522  0.0900  0.0751
 7464W        W20878  10.985   1.102  15.974 -0.2185 -0.1476  0.1160
 7465W        W20879  11.490  17.778   1.032 -0.3607  0.0071  0.1375
 7466W        W20880   3.080  14.919   5.324 -0.2996 -0.1167 -0.4711
 7467W        W20881  16.998  15.440   0.681 -0.4552 -0.0846  0.1613
 7468W        W20882  17.021   2.986   0.798  0.0740  0.2379  0.1137
 7469W        W20883   0.806   2.105  12.677 -0.3860  0.0246  0.2216
 7470W        W20884  10.360  16.672   1.475 -0.0693  0.2097  0.0113
 7471W        W20885  12.289  10.910  13.232  0.1717 -0.4035 -0.1771
 7472W        W20886  11.527   9.923  14.440  0.0075 -0.0610  0.0588
 7473W        W20887   7.699   2.762  11.641 -0.0413 -0.0139  0.2930
 7474W        W20888   7.261  10.834   4.950  0.1143 -0.1866  0.1128
 7475W        W20889   7.472   1.264  15.456 -0.0036 -0.1373  0.1852
 7476W        W20890  10.039  14.093   1.912  0.2790 -0.0569 -0.0255
 7477W        W20891  17.966   8.993   5.489  0.1903 -0.1887  0.3479
 7478W        W20892  17.995   3.940   1.479  0.2067  0.0586  0.0929
 7479W        W20893   9.953   0.830   1.110 -0.1118  0.2455 -0.1620
 7480W        W20894  18.033  14.509   4.243  0.0713 -0.1425  0.0154
 7481W        W20895  13.797  13.732   4.048  0.1582  0.0334  0.0184
 7482W        W20896   1.496   3.155  13.413  0.1520 -0.1209  0.1921
 7483W        W20897  13.892  17.726   1.836  0.0708 -0.2396 -0.0117
 7484W        W20898   6.937  14.193  12.428 -0.0338  0.0894  0.0949
 7485W        W20899   4.483  13.913   4.030 -0.2903 -0.0026 -0.2198
 7486W        W20900   9.877  14.327   3.490 -0.2790  0.1712  0.6186
 7487W        W20901   8.590  18.201   3.867 -0.2069  0.2274  0.3667
 7488W        W20902   1.305  10.458   4.976  0.1601  0.1010  0.0125
 7489W        W20903   0.451   0.229  11.280 -0.2534 -0.2740 -0.0863
 7490W        W20904  11.822  13.962   1.299  0.0901  0.1270 -0.3044
 7491W        W20905  15.351   6.694  13.594 -0.3204  0.2625  0.1199
 7492W        W20906  15.490  12.398  14.014  0.2155 -0.1380 -0.0188
 7493W        W20907   6.880   3.235   2.410 -0.2597  0.2595 -0.0947
 7494W        W20908   2.040   6.836  14.222  0.0527  0.0134  0.3769
 7495W        W20909  14.463   3.493  16.143  0.0509 -0.2474 -0.0511
 7496W        W20910   9.281  11.922  14.304 -0.0364 -0.2343  0.0386
 7497W        W20911  16.044  12.284  15.864  0.1178 -0.0096  0.3478
 7498W        W20912  11.215   7.459   5.818 -0.1985 -0.1148  0.0383
 7499W        W20913   6.103   9.977  11.033 -0.1651  0.1715  0.0881
 7500W        W20914   5.463   5.270  13.848 -0.2949  0.2343  0.0715
 7501W        W20915   4.012  18.201   4.750 -0.2551 -0.1246 -0.1663
 7502W        W20916  13.834   2.683  14.700  0.1496  0.0045 -0.2072
 7503W        W20917   6.797  12.530  14.463 -0.2087 -0.0087  0.1998
 7504W        W20918   8.646   5.665   2.197 -0.0652 -0.1830  0.1421
 7505W        W20919   4.000   7.884  12.700 -0.0484  0.0788  0.1487
 7506W        W20920   9.620  13.566   4.934  0.0808  0.0511  0.0670
 7507W        W20921   3.644   0.160   5.919 -0.2258 -0.0855 -0.0195
 7508W        W20922   6.142   8.571  16.174  0.1006 -0.4039 -0.1127
 7509W        W20923   0.715  13.932   4.961  0.3174 -0.0349  0.0589
 7510W        W20924  13.488  13.266  16.250 -0.3682  0.5360 -0.1640
 7511W        W20925   6.143  11.547   4.982  0.0858 -0.1131  0.1317
 7512W        W20926  10.793   1.435   4.450 -0.2456  0.0468 -0.0384
 7513W        W20927  17.218   4.723  15.918  0.1725  0.0963  0.0347
 7514W        W20928   3.083   8.977  11.405 -0.1723 -0.0847  0.2727
 7515W        W20929   8.447   1.354  15.669 -0.0785 -0.3071  0.0670
 7516W        W20930   8.704   0.661  12.540  0.2004  0.1218 -0.1307
 7517W        W20931  17.827  15.108  10.484 -0.0291 -0.2221 -0.0570
 7518W        W20932   6.341   7.565   2.079  0.0934 -0.0118  0.2620
 7519W        W20933   2.106  17.800   1.064 -0.5752  0.0125  0.0331
 7520W        W20934  14.117   7.581  15.793 -0.0839 -0.0453 -0.1686
 7521W        W20935   7.406   0.110   2.972 -0.0007  0.2610 -0.2517
 7522W        W20936  11.810  13.010  13.093 -0.1391  0.0573 -0.0869
 7523W        W20937  12.840   5.962  11.339  0.1451  0.2123  0.3392
 7524W        W20938  10.751   2.241  11.868  0.0282  0.0920  0.2408
 7525W        W20939   0.076  16.863   3.974  0.1134 -0.2335 -0.0121
 7526W        W20940   4.952   7.999   2.856  0.0369  0.1799  0.1540
 7527W        W20941   3.803   1.222  15.158  0.1453  0.0488 -0.0445
 7528W        W20942   1.705   2.481  11.329  0.1351 -0.2664  0.0515
 7529W        W20943   2.951  11.321   0.015 -0.1188  0.1957 -0.2920
 7530W        W20944   9.457  17.795  12.728 -0.1716 -0.1389  0.2008
 7531W        W20945  15.940   8.543  13.171  0.0927 -0.0466  0.2644
 7532W        W20946  10.715   3.410   0.367  0.0401 -0.0680 -0.1644
 7533W        W20947   2.064   9.503  10.336  0.1146 -0.2942 -0.0317
 7534W        W20948   8.870  15.333   5.412  0.1797 -0.1332  0.0958
 7535W        W20949  11.895   3.980  12.417 -0.0000  0.1692  0.0202
 7536W        W20950   5.314  10.825  12.927  0.0697  0.0016 -0.1234
 7537W        W20951  18.394  14.060  13.752 -0.0131  0.2595  0.2411
 7538W        W20952  10.010   1.016  12.962  0.2036 -0.1245  0.4138
 7539W        W20953   6.246   9.289   0.583 -0.2102  0.4829 -0.0947
 7540W        W20954   3.445  18.351   2.003 -0.1631  0.1449 -0.0426
 7541W        W20955  14.742   1.629  15.607  0.0834  0.2022 -0.0137
 7542W        W20956   8.833   6.225  15.094 -0.1306 -0.2267  0.1147
 7543W        W20957  17.794  15.843  14.467  0.0736 -0.1001 -0.0425
 7544W        W20958  10.391  15.464  12.415  0.3419  0.2615 -0.3141
 7545W        W20959   5.053   8.830   4.000 -0.3274 -0.2846 -0.1442
 7546W        W20960   1.874   2.122   2.611  0.0736  0.1125  0.0026
 7547W        W20961   9.763   7.439  11.293 -0.3654 -0.0654  0.1656
 7548W        W20962   1.627   9.294   0.341 -0.2064 -0.1365 -0.1303
 7549W        W20963   2.548   0.573  11.483  0.0582  0.0689  0.2196
 7550W        W20964  10.236   8.781  14.865  0.3843 -0.1116  0.3570
 7551W        W20965   7.396   0.247   5.237 -0.2178 -0.0291 -0.0124
 7552W        W20966  15.613   6.318  15.096  0.1486  0.2758  0.2053
 7553W        W20967   6.043   6.767   3.791  0.0806  0.3544 -0.0821
 7554W        W20968   8.552  17.324   4.526  0.2452 -0.3776 -0.0541
 7555W        W20969  17.678  14.262   4.082  0.0942  0.3106  0.1675
 7556W        W20970   8.294  14.832  14.847  0.3060  0.4540  0.0123
 7557W        W20971   4.354  16.565   2.672 -0.0383 -0.1147 -0.3435
 7558W        W20972   2.255  15.010   1.827  0.2900 -0.0956  0.0631
 7559W        W20973  11.248   9.528  14.829 -0.1175  0.1791 -0.0851
 7560W        W20974   6.011   8.122   3.726 -0.0667  0.1367 -0.0766
 7561W        W20975   9.713  16.240   4.067 -0.1597 -0.0650  0.2399
 7562W        W20976   2.494  18.091   0.812 -0.1543 -0.0771 -0.0386
 7563W        W20977   8.025  13.558  10.295 -0.0023 -0.0206 -0.0587
 7564W        W20978  11.888  17.259   0.241  0.2840  0.3438  0.1588
 7565W        W20979   3.327  14.784   1.038 -0.0843  0.0991 -0.0589
 7566W        W20980   1.361   8.024  11.136  0.0725 -0.3629  0.3468
 7567W        W20981   4.331   5.791  16.130 -0.0072 -0.0808 -0.0437
 7568W        W20982  13.885  17.272  14.148 -0.0542 -0.0549 -0.0098
 7569W        W20983   2.961   2.259  12.018 -0.2049 -0.2909 -0.3670
 7570W        W20984   3.532   6.569   3.979 -0.3637  0.0872 -0.1202
 7571W        W20985   1.615  16.584  13.912 -0.1084 -0.3145 -0.0392
 7572W        W20986  14.556   1.271   0.878  0.2390 -0.1072 -0.4111
 7573W        W20987  15.591  13.080   5.104  0.1596 -0.2035  0.3066
 7574W        W20988   3.817   8.270   4.572 -0.4448  0.0835 -0.1538
 7575W        W20989   5.825   5.149  15.779  0.0375 -0.0847  0.0423
 7576W        W20990   9.659   9.351   1.153  0.2255 -0.2006 -0.3854
 7577W        W20991   2.175   1.641  10.798 -0.0731 -0.1670 -0.2062
 7578W        W20992  14.991  17.103   4.354 -0.0932 -0.0221  0.0477
 7579W        W20993   2.180  16.646  16.020  0.1503  0.2117 -0.1937
 7580W        W20994  13.447   7.060   0.056  0.4507 -0.0873  0.1748
 7581W        W20995  15.607   9.992   4.897 -0.2815  0.0352  0.0600
 7582W        W20996   3.979   1.386  11.729  0.1789 -0.0422  0.1328
 7583W        W20997  12.027   7.555   1.001 -0.4694  0.0153  0.2214
 7584W        W20998   5.041  14.979  10.538 -0.0082  0.0773  0.3185
 7585W        W20999   0.102  16.414   6.364 -0.0874 -0.2748  0.1168
 7586W        W21000   1.757  12.163  10.176 -0.0112 -0.0901  0.1924
 7587W        W21001   3.761   0.453   5.428 -0.2577 -0.4850  0.0268
 7588W        W21002  16.280  12.228  11.520 -0.2318  0.0462  0.1013
 7589W        W21003  15.676  17.016  13.572 -0.0063  0.0333 -0.1041
 7590W        W21004   3.423  18.069   4.595  0.1742  0.1092 -0.2564
 7591W        W21005   6.725  18.266   3.090  0.3350 -0.0285  0.0244
 7592W        W21006  18.139  12.453   3.407  0.1036  0.0367  0.2315
 7593W        W21007   4.753  15.800  11.456 -0.2561  0.0220  0.0047
 7594W        W21008   4.221  17.797  12.776  0.0160  0.1402 -0.0825
 7595W        W21009  13.417  13.462  14.530 -0.2199 -0.4921 -0.0536
 7596W        W21010   6.823  14.991  12.146 -0.1990  0.1380  0.1164
 7597W        W21011  10.591  13.079   3.795 -0.1648 -0.1292 -0.2322
 7598W        W21012   9.039   1.841   2.665 -0.1766  0.1523 -0.3281
 7599W        W21013   2.491  13.711   3.303  0.1080 -0.1874 -0.1752
 7600W        W21014  12.703   4.127   1.375 -0.1313 -0.1375  0.1664
 7601W        W21015   1.216   3.536   0.937 -0.1520  0.1948  0.0480
 7602W        W21016   2.501  10.512   7.018  0.1741 -0.0525 -0.1314
 7603W        W21017   2.906  17.733   2.219 -0.1446 -0.2361 -0.1069
 7604W        W21018   9.745   1.392   2.262 -0.0991  0.2357  0.0533
 7605W        W21019   3.695  12.827   1.893  0.1190 -0.0704  0.0482
 7606W        W21020   0.520  10.837   2.377  0.1271  0.3997 -0.0095
 7607W        W21021   3.409  15.813   2.877 -0.5691 -0.0092  0.3843
 7608W        W21022   5.364   5.501  15.661 -0.0326  0.1427 -0.0405
 7609W        W21023  13.270   0.462  15.880 -0.3896 -0.1592  0.4646
 7610W        W21024   7.135   8.360  14.292  0.0477 -0.1874 -0.2080
 7611W        W21025   8.763   6.503   0.153 -0.1522  0.0302  0.3460
 7612W        W21026   7.070  10.537   0.883 -0.0333 -0.2877  0.0981
 7613W        W21027   4.776  13.294   4.149  0.3916 -0.1573  0.1122
 7614W        W21028  16.283  13.786   0.158 -0.0243 -0.0789 -0.0061
 7615W        W21029  10.579  11.408   1.389  0.3116 -0.1141  0.2785
 7616W        W21030   0.592  13.944   2.851 -0.0302 -0.2630  0.1925
 7617W        W21031  12.860   8.306   3.878 -0.1955 -0.2044 -0.0212
 7618W        W21032  11.793  13.084  12.041  0.0469  0.0369 -0.2533
 7619W        W21033   5.555  11.461  13.745 -0.0107 -0.1441 -0.0368
 7620W        W21034   7.707  18.235  13.558  0.2713 -0.1909  0.0336
 7621W        W21035  12.757  11.302  11.519 -0.2466 -0.0686 -0.2526
 7622W        W21036  16.497  11.877  13.174  0.0887 -0.1477  0.3272
 7623W        W21037  12.724   9.175   0.119 -0.1271  0.0011 -0.0952
 7624W        W21038  13.904   2.839   5.444 -0.1135  0.1166 -0.2526
 7625W        W21039   7.062   5.682   1.716  0.1694  0.1532 -0.1121
 7626W        W21040   0.459   6.985   3.747 -0.2010  0.0974 -0.1009
 7627W        W21041  10.192   3.173  10.877  0.1123 -0.2508 -0.1973
 7628W        W21042  16.661   9.659  12.606 -0.0298 -0.2652 -0.2933
 7629W        W21043   9.794  10.704   1.073  0.1857  0.3075  0.1700
 7630W        W21044   3.265  17.787  13.985 -0.0102  0.0920  0.3551
 7631W        W21045   3.769  10.275   6.230 -0.3596  0.1751  0.1207
 7632W        W21046   6.851  14.229   2.248  0.0033 -0.2097  0.1241
 7633W        W21047  17.766  11.621  15.590 -0.1273 -0.0285  0.2086
 7634W        W21048   3.120  16.957   1.123  0.1065 -0.1639  0.0069
 7635W        W21049   3.236   6.980  10.818 -0.1449  0.0814  0.0862
 7636W        W21050   5.790  15.423   0.072  0.0078 -0.0087 -0.2466
 7637W        W21051   8.286  17.153   0.491  0.2876  0.2113 -0.0257
 7638W        W21052   8.691  14.449   5.268 -0.1397 -0.0599 -0.0140
 7639W        W21053   8.262   3.252   2.041 -0.1864  0.2714 -0.2675
 7640W        W21054   6.251   7.940   5.894  0.1078 -0.0861  0.1947
 7641W        W21055   5.614  15.159  11.502  0.1924 -0.0878  0.0123
 7642W        W21056   3.304  12.157   5.432 -0.0079 -0.0989  0.3017
 7643W        W21057  11.367  11.631  14.488  0.2993 -0.1838 -0.0344
 7644W        W21058   4.926  15.170   4.162 -0.2504 -0.0536 -0.1071
 7645W        W21059   8.610   2.260  14.346  0.0821 -0.0434 -0.2305
 7646W        W21060  11.956   0.292   2.012 -0.5436 -0.2214 -0.0432
 7647W        W21061   2.423   9.546   5.101  0.1960  0.0177 -0.3434
 7648W        W21062  13.833  14.453   3.117  0.0789 -0.1099  0.3173
 7649W        W21063  18.379   6.372   1.848 -0.1221  0.0322  0.1313
 7650W        W21064   9.538   3.531  11.533  0.0593  0.1107  0.0929
 7651W        W21065  15.913  17.750   0.345 -0.5131 -0.3346 -0.0875
 7652W        W21066   6.916   1.629   0.722  0.1220  0.2218  0.1222
 7653W        W21067   8.874  13.115   0.665 -0.0127  0.3069 -0.1445
 7654W        W21068   7.298  16.605   3.144 -0.0644 -0.2632  0.1321
 7655W        W21069   5.303   6.284  16.242  0.1953 -0.1978  0.1324
 7656W        W21070  11.563  13.215   4.255 -0.1082  0.5573 -0.0234
 7657W        W21071  15.217  12.608  11.161 -0.3296  0.0046  0.3566
 7658W        W21072  10.981   9.859  14.470  0.1567  0.0246  0.1921
 7659W        W21073  15.703   7.335   5.326 -0.0150 -0.1265 -0.1024
 7660W        W21074   4.636  11.658  10.420 -0.0810  0.0993  0.2428
 7661W        W21075  14.974   7.752   5.905  0.3324  0.1458  0.2294
 7662W        W21076  15.072  11.586   2.357 -0.3101 -0.0868  0.2950
 7663W        W21077  15.736  16.990   1.662 -0.0184 -0.1228 -0.2944
 7664W        W21078  15.219  17.855  13.531  0.1402 -0.0069 -0.0419
 7665W        W21079   7.624   7.753   2.247  0.0492  0.0136  0.0220
 7666W        W21080   2.276   4.099  12.880  0.0390 -0.1536  0.1551
 7667W        W21081   0.742   7.991   0.740  0.0215  0.0590 -0.0841
 7668W        W21082   6.044   8.888   0.836  0.1346 -0.0268  0.3924
 7669W        W21083  18.053   0.812  15.864 -0.0453  0.0865  0.0876
 7670W        W21084   3.114  15.394   1.150  0.0659  0.0446 -0.0901
 7671W        W21085   3.123   0.068  15.371  0.2847  0.1102  0.0241
 7672W        W21086  14.064   4.037   1.843 -0.0529  0.0979 -0.4503
 7673W        W21087  14.183  13.777   3.214  0.0394  0.1612  0.4643
 7674W        W21088  15.870   0.406  16.134  0.1523  0.0490 -0.2274
 7675W        W21089  13.679   6.025  14.926 -0.1424  0.1108  0.1459
 7676W        W21090   7.520   7.060   0.635  0.0582 -0.1651  0.3792
 7677W        W21091  15.431   3.780  16.069  0.0895  0.0232  0.2146
 7678W        W21092  13.277  15.329  14.055 -0.1879  0.1792 -0.4239
 7679W        W21093   8.967   5.840  11.067 -0.2029 -0.1361  0.2580
 7680W        W21094   3.515   3.382   2.221 -0.0198 -0.5464  0.3082
 7681W        W21095   6.100   5.045  12.492 -0.0466 -0.0576  0.2979
 7682W        W21096  13.720   4.527  12.332  0.6068 -0.2094 -0.1877
 7683W        W21097  16.894  15.802  10.441 -0.2703 -0.4263  0.1851
 7684W        W21098   0.298  13.495  12.598  0.4508 -0.1053 -0.0032
 7685W        W21099   1.464  10.021  11.462 -0.1388 -0.1163 -0.0925
 7686W        W21100  14.360  14.032   1.349  0.0188 -0.3505  0.1046
 7687W        W21101   3.323  14.121  15.792  0.3024  0.0703 -0.0020
 7688W        W21102   6.297   1.126  10.660 -0.1691  0.4466 -0.2308
 7689W        W21103  16.689  13.201  11.057  0.0471 -0.2945  0.2437
 7690W        W21104  12.080  11.424   3.634 -0.0373  0.4413 -0.0086
 7691W        W21105   6.428  14.921   0.329  0.1925  0.0373  0.0915
 7692W        W21106  11.327  15.280   3.796 -0.0785  0.1914 -0.4618
 7693W        W21107  15.655  17.298  12.148 -0.0612 -0.1314 -0.2416
 7694W        W21108   1.781   6.559   1.636 -0.1023  0.0052 -0.1755
 7695W        W21109  17.934   0.403   2.302 -0.2235 -0.1275 -0.1447
 7696W        W21110   1.674  10.798  11.770 -0.2302 -0.1165  0.0754
 7697W        W21111   9.823   1.077   0.217 -0.3667  0.2375 -0.0097
 7698W        W21112  10.681   6.372  15.327 -0.0772 -0.1086 -0.1467
 7699W        W21113   2.138   6.374  15.784  0.0520 -0.0562  0.0522
 7700W        W21114   5.396  16.515   0.530 -0.0531  0.0731 -0.0416
 7701W        W21115   0.610   3.550  13.069 -0.0846 -0.1580 -0.1925
 7702W        W21116   9.233  17.260  10.012  0.0468  0.2086  0.1442
 7703W        W21117   3.205   6.523  11.047 -0.0510  0.0115  0.0210
 7704W        W21118   8.881  18.429  16.200  0.1667  0.2091 -0.0820
 7705W        W21119  16.211  14.964   0.255  0.2234 -0.2216 -0.0262
 7706W        W21120  17.477   7.289   6.346  0.0776  0.1523  0.2255
 7707W        W21121   6.591   4.292  12.423 -0.1675  0.1360  0.1645
 7708W        W21122  13.683  11.167  13.138  0.0553  0.1613 -0.1623
 7709W        W21123  10.569  17.363   0.866 -0.4379 -0.1786  0.0597
 7710W        W21124   1.676  10.793   4.899 -0.0077  0.0737  0.1342
 7711W        W21125  15.000   9.319   3.805  0.0085 -0.2355  0.0080
 7712W        W21126   6.841  18.287  13.567 -0.0661 -0.2318 -0.0272
 7713W        W21127   4.234  17.810   4.449  0.0691 -0.2157  0.0848
 7714W        W21128   9.701  18.409  14.816 -0.2619 -0.2414  0.3423
 7715W        W21129   0.024   4.995  11.976 -0.2119 -0.0504  0.2503
 7716W        W21130   8.144   6.072   4.398  0.1526  0.6187  0.0116
 7717W        W21131   9.526  14.480   2.315 -0.0405  0.3477  0.0024
 7718W        W21132   9.126  14.240  11.716 -0.0569 -0.1164  0.2023
 7719W        W21133   7.053   9.444  15.543  0.0461  0.0305  0.0076
 7720W        W21134   4.311  10.596   4.361  0.2189 -0.0085 -0.1009
 7721W        W21135   1.184   2.773  15.986  0.0494  0.1152 -0.3692
 7722W        W21136  14.300  15.283   3.191  0.0994  0.0697 -0.0363
 7723W        W21137  11.398  10.445  10.741 -0.1828 -0.2541  0.1366
 7724W        W21138   2.143  15.636  12.533 -0.0581  0.0360 -0.1785
 7725W        W21139   8.360   7.669   1.108  0.3211 -0.2574 -0.2849
 7726W        W21140  10.705   9.383   5.185 -0.2406 -0.4030  0.1335
 7727W        W21141   2.118   0.100   0.643  0.2946 -0.2883 -0.0138
 7728W        W21142  15.867  14.895  13.023 -0.3404  0.0088 -0.0638
 7729W        W21143  13.644  13.477  10.523  0.0378 -0.0553 -0.0574
 7730W        W21144  13.143   2.827  15.172 -0.1478  0.0081 -0.2184
 7731W        W21145   9.079  17.784  14.924 -0.1883 -0.1944  0.0381
 7732W        W21146   1.639  14.301   4.584 -0.2751  0.1380  0.1121
 7733W        W21147  17.978   9.417  15.259  0.1295 -0.0191  0.0327
 7734W        W21148   6.452   0.883   5.371 -0.2168  0.1431 -0.2687
 7735W        W21149  10.087  15.996   4.794 -0.2492  0.2663  0.0778
 7736W        W21150  13.445   9.564  11.424 -0.1510  0.1870  0.1720
 7737W        W21151   4.452   6.327   0.925 -0.3243 -0.0797  0.2293
 7738W        W21152  11.036  17.230  15.043  0.1409  0.1158 -0.1999
 7739W        W21153   5.849   5.751   5.089  0.1420 -0.0471 -0.2100
 7740W        W21154  14.028  13.263  12.036 -0.1094 -0.0011 -0.0804
 7741W        W21155   7.353   0.974   1.221  0.1000  0.0892 -0.2952
 7742W        W21156  11.806   1.462  11.766  0.1783 -0.1546 -0.0510
 7743W        W21157  15.735   0.761   5.558 -0.0890  0.1323 -0.2398
 7744W        W21158   5.517   2.227  10.861 -0.1430 -0.3616  0.3077
 7745W        W21159   6.145  18.060   4.527  0.0369 -0.1585 -0.0451
 7746W        W21160  10.806   6.431   0.101  0.0375 -0.0907  0.1268
 7747W        W21161   9.201  13.801  14.186 -0.0792 -0.1210  0.1028
 7748W        W21162  15.858   7.132   3.885  0.0442 -0.2555 -0.1784
 7749W        W21163   3.247  11.086   0.480  0.1187 -0.1368 -0.1090
 7750W        W21164   3.960  13.139   4.924 -0.0960  0.0609 -0.3272
 7751W        W21165  10.574   5.341  12.555  0.2275 -0.0765  0.1934
 7752W        W21166   0.955   6.570  11.753  0.0698  0.1560 -0.0643
 7753W        W21167  14.886  10.046   3.925  0.3243 -0.3248  0.1473
 7754W        W21168   2.797  17.737   4.020 -0.0815 -0.2248  0.4689
 7755W        W21169  14.056   3.493   1.092 -0.0618 -0.1442  0.1544
 7756W        W21170  11.762   4.760   1.511 -0.0720 -0.0166  0.1064
 7757W        W21171   6.833   4.477   0.764 -0.2189  0.1885  0.4131
 7758W        W21172  17.554  18.242  11.942 -0.0110  0.2214 -0.1063
 7759W        W21173  17.544  15.888  13.298  0.0788 -0.2313  0.0343
 7760W        W21174   8.469   0.125  10.136 -0.2051 -0.1814 -0.2689
 7761W        W21175   7.151  17.424   0.988 -0.1308  0.0927 -0.0855
 7762W        W21176   1.143  16.743   1.177  0.3273  0.2391 -0.1308
 7763W        W21177  13.395  17.702  14.626  0.1163 -0.1008  0.1497
 7764W        W21178   7.772   4.164  15.552 -0.2133  0.0902 -0.0370
 7765W        W21179  14.937   3.524   2.002  0.0967 -0.1092  0.1943
 7766W        W21180   2.836  15.742   3.525 -0.0433 -0.0351  0.0057
 7767W        W21181  14.136   5.040  16.236 -0.0267  0.1646  0.1258
 7768W        W21182   7.110   0.863  13.334  0.0363  0.4441  0.0127
 7769W        W21183  17.695   9.342  14.807  0.0737 -0.1187 -0.1098
 7770W        W21184  15.853   0.850  11.357 -0.0673  0.2893 -0.1078
 7771W        W21185   3.844   1.581   5.880  0.1973  0.1644 -0.2158
 7772W        W21186  10.229  11.884   5.652  0.4314  0.0391 -0.0067
 7773W        W21187  17.534  17.640   6.111  0.1118  0.0565  0.3427
 7774W        W21188   1.956   4.550  10.622  0.3431  0.2780  0.1902
 7775W        W21189  12.242   9.129   4.872  0.3709 -0.2412 -0.0473
 7776W        W21190   3.950  10.615  10.345  0.1469 -0.1563 -0.1872
 7777W        W21191  10.921   4.866  14.869 -0.1059  0.2011 -0.0476
 7778W        W21192   3.753   2.524   5.596 -0.0427 -0.2077 -0.3142
 7779W        W21193   8.897   2.450  11.918  0.1379 -0.1316 -0.0447
 7780W        W21194   1.154   4.710  13.358  0.0143  0.0113  0.2440
 7781W        W21195   9.287  16.573   3.405  0.2492  0.1288  0.0417
 7782W        W21196   7.596  10.146  11.687 -0.1515  0.1398  0.2692
 7783W        W21197  14.785  18.331   3.067 -0.0492  0.3065  0.1395
 7784W        W21198  15.304  16.929  10.376  0.1059  0.0182 -0.1772
 7785W        W21199   8.673   8.716  13.613 -0.1784  0.1550 -0.1075
 7786W        W21200   4.991   0.469   6.327 -0.0058  0.0580  0.2015
 7787W        W21201  14.806  18.239   4.115  0.1769 -0.0451 -0.1754
 7788W        W21202   8.437  12.847  13.790 -0.0074 -0.2601  0.2870
 7789W        W21203   4.163  16.777   1.487  0.4039  0.1481  0.0162
 7790W        W21204  11.365  11.451   2.094  0.0481 -0.1106 -0.3503
 7791W        W21205  11.397  15.609   9.829  0.0395  0.1058  0.1130
 7792W        W21206   9.975   3.236   3.491  0.2721  0.0864 -0.0015
 7793W        W21207   3.004   1.206  15.684  0.1407  0.3341 -0.0482
 7794W        W21208   4.835  12.551  13.623 -0.1126 -0.0121  0.1649
 7795W        W21209   6.851   6.729   3.195  0.0953 -0.0210 -0.0827
 7796W        W21210  18.228   9.794  14.429 -0.1296  0.0093 -0.2771
 7797W        W21211   2.041  12.574  15.105  0.4290 -0.0736 -0.1294
 7798W        W21212   4.800  17.447  13.489 -0.3248  0.0544  0.1000
 7799W        W21213   0.934   2.636   4.063  0.0853  0.0585 -0.0152
 7800W        W21214   6.162   5.555   4.214 -0.0661 -0.1204 -0.1797
 7801W        W21215  10.995  14.219   5.080 -0.0990 -0.2862  0.3496
 7802W        W21216   0.802   7.896  11.210 -0.1726 -0.0215  0.1588
 7803W        W21217   5.418  16.368   4.618 -0.0449 -0.0483 -0.2303
 7804W        W21218  11.455   4.425   0.156 -0.0192  0.1037  0.2281
 7805W        W21219  17.213  15.161   0.109  0.0859  0.0000 -0.0549
 7806W        W21220   1.228   1.141   0.839  0.1791  0.1361 -0.1344
 7807W        W21221   7.746   3.956  11.317 -0.5153 -0.1507  0.2065
 7808W        W21222   4.344  10.664  15.185  0.0700  0.0923  0.0593
 7809W        W21223   0.951  15.561  15.555  0.1065 -0.1521 -0.0977
 7810W        W21224  12.954  18.031  14.495 -0.1250  0.1577  0.2117
 7811W        W21225  14.137   2.268   1.684  0.0453 -0.0198  0.3335
 7812W        W21226   3.998   6.089   4.283  0.0232  0.0537 -0.0539
 7813W        W21227  14.151  12.537  12.926 -0.4750 -0.0054  0.0900
 7814W        W21228  16.272   9.501   6.427 -0.0855 -0.1384  0.2684
 7815W        W21229   0.591   9.884   3.539  0.1588 -0.0224 -0.2021
 7816W        W21230  13.108   2.520   0.650  0.0864  0.0257  0.0946
 7817W        W21231  12.929   7.274   6.165 -0.0818 -0.1002  0.1035
 7818W        W21232   6.992  17.969   1.851  0.2641  0.1837  0.2820
 7819W        W21233   2.595  13.741   3.856 -0.1624 -0.2770 -0.1619
 7820W        W21234   7.420  16.137  14.239 -0.2711  0.0641 -0.2786
 7821W        W21235  16.296  13.392  11.313  0.2612 -0.3335  0.1322
 7822W        W21236   9.296   6.787   5.011 -0.1524 -0.1115 -0.2899
 7823W        W21237   1.571   4.555  11.954 -0.2421 -0.1749 -0.0761
 7824W        W21238  17.845  13.740  10.986  0.0926  0.0238 -0.1612
 7825W        W21239  13.038   8.593   4.903  0.1185  0.0073  0.0794
 7826W        W21240  16.160  16.822   3.809 -0.1886  0.0926  0.0452
 7827W        W21241   6.965  14.701   0.126  0.1946 -0.0096  0.0154
 7828W        W21242   3.076   0.914   5.368 -0.1158  0.1325 -0.2156
 7829W        W21243   0.563   7.453   5.623 -0.0285 -0.0720  0.2515
 7830W        W21244  13.999   8.016  15.743  0.0279  0.1005 -0.4672
 7831W        W21245   3.147   9.790  15.293 -0.1179 -0.1009 -0.1342
 7832W        W21246  10.875   9.750   5.538 -0.1839 -0.0652 -0.3114
 7833W        W21247  10.689   8.808  11.164 -0.2906  0.1469  0.2149
 7834W        W21248  10.858  17.286  10.340  0.0094  0.1110  0.3139
 7835W        W21249   5.648  11.192   1.764  0.2143 -0.5201 -0.0967
 7836W        W21250  10.033   4.090  13.745 -0.2461 -0.0159 -0.0779
 7837W        W21251   2.491  10.840  16.191  0.3079 -0.1877 -0.5093
 7838W        W21252  17.920   9.252   2.226  0.1176 -0.2822  0.1378
 7839W        W21253   1.922  17.585  15.641 -0.1163 -0.1506 -0.1733
 7840W        W21254  10.862   5.973  16.262  0.2003 -0.0887 -0.2364
 7841W        W21255  14.304   2.983   3.134 -0.1657  0.1907  0.1615
 7842W        W21256  16.372   8.020   3.962  0.1352  0.2877  0.0742
 7843W        W21257  10.383   0.870   0.493 -0.0585 -0.4588 -0.2503
 7844W        W21258   5.291   3.219   3.971  0.2735 -0.2441 -0.3942
 7845W        W21259  12.050  17.991  12.726 -0.2430 -0.2649 -0.2900
 7846W        W21260   5.899  14.972   4.835  0.1970  0.0907  0.0114
 7847W        W21261   2.800  10.448  15.938 -0.0593  0.1031 -0.0766
 7848W        W21262  10.614  10.551  10.531  0.0052 -0.2159 -0.3807
 7849W        W21263  11.259   4.764   0.521 -0.0779  0.0256  0.0049
 7850W        W21264   6.320  10.149  10.003  0.3724 -0.2105 -0.0581
 7851W        W21265   6.958  11.311  12.316 -0.2631 -0.2081  0.0489
 7852W        W21266   7.167  11.842   1.636 -0.3638 -0.2075 -0.0674
 7853W        W21267   0.421  12.074   1.337  0.2039 -0.0825  0.0204
 7854W        W21268  10.960   4.551   1.802 -0.1752 -0.0824  0.2493
 7855W        W21269  16.071   4.733  11.029 -0.2973  0.2417  0.1884
 7856W        W21270  18.418   4.793  12.426 -0.2407 -0.2216  0.0964
 7857W        W21271  17.559  10.386  10.866  0.0695  0.0630 -0.3653
 7858W        W21272   0.052   1.350   3.572 -0.0102 -0.0526 -0.2174
 7859W        W21273   9.392   5.581   3.255 -0.0203  0.2797 -0.2805
 7860W        W21274   4.285   2.042  13.861 -0.2532 -0.1402 -0.0466
 7861W        W21275  10.028  12.698   1.115 -0.1379  0.1947  0.4304
 7862W        W21276  11.572   8.240   4.268  0.4701  0.3618 -0.0127
 7863W        W21277   8.978   3.939   4.141 -0.1049 -0.0731  0.0049
 7864W        W21278   2.718  17.747  12.271  0.2757 -0.2133  0.0460
 7865W        W21279   7.791   1.347  15.847  0.1276  0.1729  0.1527
 7866W        W21280   7.232   3.875  11.960 -0.1024 -0.0172 -0.0976
 7867W        W21281  14.219  17.306   2.631 -0.0996 -0.1237  0.1955
 7868W        W21282  16.109  18.378  14.930  0.1545 -0.1088  0.1944
 7869W        W21283  18.066  10.822  15.347 -0.1373  0.0043  0.0753
 7870W        W21284   6.075   4.726   2.111 -0.2031 -0.1968 -0.0386
 7871W        W21285   8.141   7.960  12.526 -0.3178  0.0979 -0.1372
 7872W        W21286  11.385  11.573  13.596 -0.4363  0.0344  0.2543
 7873W        W21287   4.683  11.647  14.198 -0.0627 -0.0535 -0.2039
 7874W        W21288  11.509   1.622   3.269 -0.2187 -0.0006  0.1227
 7875W        W21289   1.052  17.981   2.959 -0.0815 -0.0433 -0.2331
 7876W        W21290  14.837  12.882  12.190  0.2974  0.1693  0.1485
 7877W        W21291  15.667  17.945   4.501 -0.0832  0.1050 -0.2042
 7878W        W21292   2.079  18.231   5.178  0.2167  0.0541 -0.2592
 7879W        W21293   9.845   9.705   4.267  0.0030 -0.0971 -0.0649
 7880W        W21294  14.534  18.281   5.620  0.1678  0.0258 -0.3361
 7881W        W21295   6.215  13.415  10.389 -0.0562  0.3998 -0.0781
 7882W        W21296   0.898   1.671   6.156 -0.4020  0.0780 -0.0166
 7883W        W21297   7.883   6.418  13.691 -0.0433 -0.0163 -0.1207
 7884W        W21298   8.438   2.646  14.915  0.0069 -0.1007  0.0632
 7885W        W21299  10.370  13.478   5.509 -0.0806  0.2484 -0.2923
 7886W        W21300  14.611   6.170  15.703 -0.1940 -0.1683 -0.2426
 7887W        W21301   0.519  16.887   5.148  0.1549 -0.1828  0.1047
 7888W        W21302  11.599   2.367   2.817  0.1325 -0.2045  0.2288
 7889W        W21303   0.746   0.988  12.889  0.0284  0.1497 -0.2661
 7890W        W21304  12.617  11.097  11.033 -0.0133  0.0404 -0.0089
 7891W        W21305   4.442   1.960  15.487  0.0309 -0.0895  0.1654
 7892W        W21306  10.963  12.478   2.717 -0.2313  0.2011 -0.1787
 7893W        W21307   4.936   5.332   4.157  0.4135 -0.1412  0.0801
 7894W        W21308  15.569   6.184  15.613  0.1853 -0.1418  0.0330
 7895W        W21309   2.239   3.955   2.738 -0.2645  0.2532 -0.1784
 7896W        W21310  12.076   9.869  11.160  0.2346  0.0094 -0.3089
 7897W        W21311  14.585  10.137  14.992 -0.1692 -0.0150  0.2305
 7898W        W21312  10.135  12.571  14.426 -0.1374  0.1189  0.2204
 7899W        W21313   6.101  16.739  12.418 -0.1180 -0.0459 -0.2105
 7900W        W21314  14.651  16.380   3.797  0.3163 -0.3373  0.1720
 7901W        W21315  10.684   0.701  13.872  0.0349 -0.0550  0.1327
 7902W        W21316  14.734  15.471   0.377  0.4212  0.0098  0.2116
 7903W        W21317  15.455   0.328  15.903 -0.1198 -0.1453  0.0854
 7904W        W21318  10.035   1.424   1.523  0.4364  0.4126  0.0467
 7905W        W21319  11.536   4.333  14.360  0.1181 -0.1603 -0.0339
 7906W        W21320  17.713  17.475   2.081 -0.0185 -0.1114  0.3028
 7907W        W21321  12.865  14.692  12.134 -0.0748  0.0049  0.1355
 7908W        W21322  17.287   4.210   5.455  0.4075  0.2122 -0.1335
 7909W        W21323   9.745  10.168   0.131 -0.3186  0.4316  0.1675
 7910W        W21324  12.004   3.980   2.884  0.1367 -0.0056 -0.2512
 7911W        W21325   5.672   0.800  11.070 -0.0208 -0.1304 -0.0483
 7912W        W21326   8.045  16.502  15.612  0.0545  0.0495 -0.2269
 7913W        W21327  16.298   8.774  14.827  0.1209 -0.0172 -0.1833
 7914W        W21328   0.921  14.189   3.594 -0.3338  0.0067 -0.0350
 7915W        W21329  18.278   8.796  11.575 -0.0368  0.0959 -0.1951
 7916W        W21330  16.820   9.576   0.799  0.0995  0.1940  0.2062
 7917W        W21331   4.496  16.913   4.162 -0.0375  0.1507 -0.1633
 7918W        W21332  15.004   3.003  14.588  0.1023  0.0971 -0.1168
 7919W        W21333   4.694  14.307   4.292 -0.0496 -0.1190  0.0088
 7920W        W21334   2.093   7.606  13.367 -0.0787  0.3261  0.2176
 7921W        W21335  10.188  16.705   2.948  0.1758 -0.2955 -0.2575
 7922W        W21336  13.677  14.080  12.077 -0.2055 -0.2353  0.0985
 7923W        W21337   9.614   2.065   5.273  0.0175  0.0178 -0.1236
 7924W        W21338   4.997  11.007   4.039 -0.1870 -0.4085  0.1079
 7925W        W21339   3.516   9.593  13.293 -0.2513 -0.1017 -0.1393
 7926W        W21340   4.919  12.985  14.912  0.2037 -0.0232  0.4724
 7927W        W21341  10.581  14.402   9.719 -0.0956 -0.0528  0.2474
 7928W        W21342  13.966  15.344  11.265  0.0651  0.2933 -0.4447
 7929W        W21343   1.602  13.870   4.929 -0.2115 -0.2138  0.1621
 7930W        W21344   4.545  15.480   2.894  0.2198  0.0104  0.3455
 7931W        W21345  16.574  15.584   4.992  0.2250  0.0999  0.0226
 7932W        W21346  17.586   4.639   4.248 -0.1216  0.0565 -0.1267
 7933W        W21347   9.931   1.720   5.148 -0.1653  0.0650  0.0964
 7934W        W21348   1.086  12.345  15.197  0.0349 -0.1352  0.0863
 7935W        W21349  16.087   7.894   3.051 -0.0044 -0.0485 -0.1148
 7936W        W21350   6.985   0.594  11.820 -0.3093 -0.0056  0.3561
 7937W        W21351   8.285  11.248   1.413 -0.1897  0.0805  0.0512
 7938W        W21352   2.856   1.132   0.429 -0.0690 -0.0765 -0.0273
 7939W        W21353   2.367  17.220  12.865  0.1155 -0.0806  0.0914
 7940W        W21354  14.085  14.954   2.459  0.0218  0.1251 -0.0368
 7941W        W21355  17.114  15.538  14.183 -0.1384 -0.0242 -0.0121
 7942W        W21356  14.362   6.488   0.781  0.0894 -0.1855 -0.0801
 7943W        W21357  15.256  10.883   2.769  0.0909 -0.2981 -0.1947
 7944W        W21358  15.443  14.092  13.652  0.1670 -0.1036 -0.0044
 7945W        W21359   8.174   0.670   2.003  0.0804  0.2412  0.2981
 7946W        W21360  11.661   7.375  10.761 -0.0872  0.1236  0.3014
 7947W        W21361  11.250  16.374   0.001 -0.0960  0.0359 -0.0273
 7948W        W21362  10.875   1.227   1.124 -0.2044 -0.1201 -0.0947
 7949W        W21363  12.145   9.624  12.588 -0.0511 -0.0603 -0.0481
 7950W        W21364  14.971  15.943  11.399 -0.1224  0.0444 -0.1585
 7951W        W21365   1.512   2.590   4.284  0.3627 -0.0692 -0.2469
 7952W        W21366   6.030   7.619  10.430  0.1342 -0.1084  0.1751
 7953W        W21367   5.841  11.090   1.107  0.1243  0.0199 -0.3019
 7954W        W21368   2.110   0.625  10.555 -0.2577  0.2204 -0.2729
 7955W        W21369   8.624  10.928  15.551  0.0823 -0.0032 -0.4313
 7956W        W21370  16.898  16.602  13.093 -0.3016  0.0567  0.1368
 7957W        W21371  13.760   3.177   0.365  0.1136 -0.1745 -0.2650
 7958W        W21372  18.338   3.852   2.546 -0.2592  0.4707 -0.0997
 7959W        W21373  15.236   0.063   5.177  0.0691  0.0561 -0.1832
 7960W        W21374   3.464  14.448  10.733 -0.0309 -0.1730  0.1172
 7961W        W21375   0.738   0.498   4.531  0.0903  0.1769 -0.0264
 7962W        W21376   7.561  10.991  11.354  0.1796 -0.1965 -0.2744
 7963W        W21377  16.888  15.484   2.328  0.2113  0.4098 -0.1298
 7964W        W21378  17.706   3.586  12.979 -0.2019 -0.0123 -0.1170
 7965W        W21379  14.649   3.389   5.870 -0.0015  0.3036  0.1422
 7966W        W21380  14.394   1.340   3.943  0.0902  0.0007 -0.2241
 7967W        W21381  17.749   9.331   9.875 -0.0456 -0.1318  0.0181
 7968W        W21382   7.347  12.494   3.983 -0.0794 -0.1166 -0.2072
 7969W        W21383  16.600   5.766   3.624 -0.1092 -0.2742 -0.0775
 7970W        W21384   4.945   4.887   4.723  0.0585  0.1740 -0.1457
 7971W        W21385  15.155  18.172  12.575  0.3353 -0.0562 -0.1887
 7972W        W21386   3.777   2.427  11.876 -0.0578  0.0628  0.1452
 7973W        W21387   1.542   6.138  14.540  0.0194 -0.1575 -0.0441
 7974W        W21388   0.439   7.852   1.516 -0.2299 -0.1305  0.1971
 7975W        W21389   6.495   2.507   0.440 -0.0062  0.0181 -0.1116
 7976W        W21390  11.953  14.157  13.324 -0.1688 -0.0106  0.0739
 7977W        W21391   8.429  18.007  14.644 -0.1309  0.1896 -0.4512
 7978W        W21392  15.241  15.558  15.225  0.2727 -0.0677 -0.0430
 7979W        W21393   0.101   0.419   0.374 -0.1678 -0.1679  0.0298
 7980W        W21394   6.438   5.636  15.707  0.0451  0.0198  0.2233
 7981W        W21395   7.712   9.960  16.041 -0.0520 -0.0604  0.1077
 7982W        W21396  13.050  15.236  14.517  0.3006 -0.2240 -0.0262
 7983W        W21397  13.846  18.331   4.109 -0.0661  0.0854 -0.0612
 7984W        W21398  17.406  16.885  11.064 -0.0841  0.2199  0.1391
 7985W        W21399   9.270   4.628   2.690  0.1587 -0.0530 -0.0704
 7986W        W21400   6.133  18.345  11.106  0.1383 -0.1099 -0.2344
 7987W        W21401   4.703  10.080  15.758 -0.1357  0.0919 -0.3049
 7988W        W21402   2.892   0.968  13.400  0.2483  0.1431 -0.1845
 7989W        W21403   8.928   1.549  12.092  0.1925 -0.0117 -0.0641
 7990W        W21404   5.801  16.510   0.774 -0.0175 -0.1327  0.0486
 7991W        W21405  10.842   3.953   2.722 -0.1637  0.0424  0.0329
 7992W        W21406   7.752  13.461   1.723  0.0488  0.1471 -0.1801
 7993W        W21407   2.586   4.555   1.447  0.0124  0.1366 -0.1229
 7994W        W21408   5.699  18.268   4.727 -0.2132 -0.2256 -0.0970
 7995W        W21409   6.905  10.998  14.957 -0.0133  0.0882  0.0622
 7996W        W21410   6.275   7.022   5.694  0.2633 -0.1470 -0.0341
 7997W        W21411  11.459  13.745   2.836  0.1357  0.1889  0.0834
 7998W        W21412   6.893   3.537  13.560  0.0826  0.2194 -0.1116
 7999W        W21413   0.487  10.321  12.414  0.2083  0.1448 -0.1197
 8000W        W21414  18.165  11.742   0.565 -0.0260  0.2947  0.1670
 8001W        W21415  13.796   0.326  10.182 -0.0451 -0.1476  0.1370
 8002W        W21416   6.219   3.814  11.643  0.0554  0.2927 -0.0179
 8003W        W21417   8.894   0.827   0.041 -0.3185 -0.1487  0.0129
 8004W        W21418  14.730   1.861   1.615  0.1051 -0.0782  0.1203
 8005W        W21419   5.730  18.271  15.042 -0.0418 -0.3167  0.2628
 8006W        W21420   8.301   3.498   3.063  0.3124 -0.1003 -0.1693
 8007W        W21421   3.454  12.400  12.937  0.1650  0.0761 -0.2704
 8008W        W21422  14.492   8.768   4.293  0.0052 -0.0259 -0.0073
 8009W        W21423   4.211  16.307   3.076 -0.1020  0.1711 -0.1077
 8010W        W21424  17.418   3.375   5.843 -0.1050  0.1905  0.0464
 8011W        W21425  17.697   5.491   2.135  0.1017 -0.2698 -0.3305
 8012W        W21426  15.835  11.757   2.953  0.1541 -0.2135  0.0756
 8013W        W21427   2.021   2.245  15.945 -0.1612  0.0780  0.1633
 8014W        W21428   0.979   5.700   4.830  0.1125  0.0581 -0.2073
 8015W        W21429  16.581  10.099  10.696 -0.1662  0.1842  0.0712
 8016W        W21430  10.970   0.268   3.909 -0.0604 -0.3130  0.3783
 8017W        W21431   4.240   6.129  13.590 -0.1028  0.1303 -0.0544
 8018W        W21432  17.506  16.598   1.065  0.1568 -0.0958  0.1030
 8019W        W21433   7.099  15.536  15.060 -0.2238  0.4019 -0.3024
 8020W        W21434  16.386  10.475   0.778  0.3831  0.0140  0.0907
 8021W        W21435   9.886   7.791   5.049  0.3578  0.3146  0.1542
 8022W        W21436  17.512   5.425   2.603  0.1092 -0.0481  0.1711
 8023W        W21437   3.899   8.738   5.539  0.1384 -0.4505 -0.1679
 8024W        W21438  13.739  16.738  11.989 -0.1258 -0.2913 -0.0315
 8025W        W21439   6.133  10.785   0.114 -0.1538  0.0435 -0.0064
 8026W        W21440  16.428   9.738   1.097 -0.0314 -0.3991 -0.3206
 8027W        W21441   5.191   9.934  14.558 -0.0762 -0.1043 -0.0880
 8028W        W21442   4.552   3.407  14.221  0.2661 -0.3549  0.0904
 8029W        W21443   7.677  15.210   0.686 -0.0539  0.1231 -0.3367
 8030W        W21444  18.252  13.705  12.273 -0.0034 -0.1718  0.1702
 8031W        W21445   3.517   4.139   1.789 -0.0079 -0.0552  0.2049
 8032W        W21446   2.928   6.614  15.534 -0.1267  0.0569 -0.3644
 8033W        W21447  10.727   0.057  15.664 -0.1038 -0.0414  0.0287
 8034W        W21448   0.224  17.360  14.715  0.1839  0.2218  0.0321
 8035W        W21449  16.487   5.177   2.605 -0.0530 -0.3035  0.3044
 8036W        W21450  16.576  11.967  15.770 -0.0253  0.0492 -0.2642
 8037W        W21451   8.883  11.209   5.800  0.1961 -0.2973 -0.1315
 8038W        W21452  14.836   9.203   5.244  0.1190 -0.2565  0.1250
 8039W        W21453  18.089   1.294  15.781  0.2015  0.0776  0.2595
 8040W        W21454   0.289   5.254   3.740 -0.0522  0.2423  0.1405
 8041W        W21455   8.253   4.099  15.380  0.0833  0.1159 -0.0992
 8042W        W21456  13.857   9.950  15.620  0.1546  0.1863 -0.1706
 8043W        W21457  17.923   8.243   2.422 -0.2274  0.0380 -0.1086
 8044W        W21458   2.028  12.445   0.958  0.0141  0.0997 -0.0681
 8045W        W21459  17.784   2.233   2.197  0.0024  0.2614  0.0273
 8046W        W21460  11.601  13.549   4.769  0.1662  0.0449 -0.0032
 8047W        W21461  12.744   2.805   9.960 -0.0308 -0.0481  0.1119
 8048W        W21462   5.342  14.677  11.418 -0.1505  0.0513  0.0971
 8049W        W21463  11.278   9.804  12.254  0.2402 -0.2407 -0.1576
 8050W        W21464   9.744   5.954   3.434  0.0448  0.1607 -0.0411
 8051W        W21465   4.181  13.158   5.429 -0.0936 -0.0740  0.0088
 8052W        W21466  17.396   2.498  12.328 -0.1921 -0.0062 -0.4104
 8053W        W21467   4.957  10.181   0.298 -0.1123  0.0350  0.0208
 8054W        W21468   5.307   3.256  12.989  0.1955 -0.0410  0.2390
 8055W        W21469   7.420   6.742  10.792  0.0404  0.0344  0.1187
 8056W        W21470   7.148   6.302   3.386  0.1821 -0.2673 -0.0866
 8057W        W21471   8.229  18.355   0.842 -0.0601  0.1507 -0.0953
 8058W        W21472   6.024  12.043  11.910 -0.0926 -0.0410  0.1292
 8059W        W21473   2.438  15.354  11.234  0.2470 -0.2721 -0.2138
 8060W        W21474   7.359   7.019  15.933  0.3492  0.1570 -0.2378
 8061W        W21475   1.566  14.423  15.248  0.3072  0.1591 -0.1112
 8062W        W21476   5.452   2.708  15.585 -0.0812  0.1767 -0.1379
 8063W        W21477   5.569   4.834   0.790 -0.0659 -0.0102  0.1290
 8064W        W21478   6.918   6.641   1.732  0.2452  0.1035  0.0725
 8065W        W21479   6.274  16.708  16.064  0.3000 -0.1874 -0.1250
 8066W        W21480   3.863   9.703  15.815  0.0611  0.3655 -0.1825
 8067W        W21481   3.010   8.921   3.960 -0.0861 -0.1480 -0.0530
 8068W        W21482   1.243  14.456   3.321  0.1950  0.0017  0.2277
 8069W        W21483  12.833   3.283   1.965  0.0876  0.2002  0.0362
 8070W        W21484   2.059  15.677   5.175  0.1912 -0.0319 -0.1072
 8071W        W21485   5.794   2.838   4.734  0.1897 -0.4721  0.1315
 8072W        W21486   0.640   2.529   1.712  0.1944 -0.2631  0.0800
 8073W        W21487   9.036   1.735   3.856 -0.1252  0.2393 -0.1364
 8074W        W21488   2.147   0.733   5.201 -0.0919 -0.0359 -0.2220
 8075W        W21489   5.142   9.038  11.384 -0.0977  0.1809  0.3200
 8076W        W21490  12.753  17.599  13.427 -0.0081  0.1277 -0.0115
 8077W        W21491  11.927  16.513   2.889  0.0466  0.2058  0.1516
 8078W        W21492   7.102   1.272   1.576 -0.2570 -0.0539 -0.0247
 8079W        W21493   4.230   7.457   4.346  0.0747  0.3433 -0.1039
 8080W        W21494   0.284   8.407  11.225  0.1021 -0.1215 -0.0517
 8081W        W21495  11.593  14.174   4.389 -0.2011 -0.2122 -0.3047
 8082W        W21496  11.731   4.495  11.222  0.2842 -0.2062 -0.0368
 8083W        W21497  15.599   7.121   4.667  0.1691 -0.3080 -0.3836
 8084W        W21498  11.296   0.911   4.393  0.0780 -0.2464  0.1794
 8085W        W21499   7.928  17.180   3.527 -0.1447  0.0672  0.1499
 8086W        W21500   0.400   3.247   4.460 -0.1039  0.1295 -0.2349
 8087W        W21501  15.221   3.274   3.145 -0.0381  0.2963  0.1190
 8088W        W21502  13.400  17.386  14.147 -0.1824 -0.2961  0.3603
 8089W        W21503  15.978   3.967   3.802  0.0254 -0.3002  0.1117
 8090W        W21504   3.129  18.079  10.855  0.0188 -0.1500 -0.0205
 8091W        W21505  16.837  16.021   1.199  0.0456 -0.2596 -0.1772
 8092W        W21506   2.972   9.344   2.678 -0.1091 -0.0634 -0.0804
 8093W        W21507  17.399   8.359   0.193 -0.1173  0.1170  0.0313
 8094W        W21508   6.686   0.300   0.083  0.2289 -0.1148 -0.2889
 8095W        W21509   3.404   5.634  13.901 -0.0183  0.1382 -0.0036
 8096W        W21510  17.661  14.714   0.655 -0.2104 -0.2406 -0.1061
 8097W        W21511   3.754  11.438   1.855 -0.2892 -0.1091 -0.0593
 8098W        W21512   4.616   4.505   1.156  0.0888  0.1126  0.1740
 8099W        W21513  15.762   0.401  13.205  0.0671  0.2848  0.2679
 8100W        W21514   3.778   1.076   4.507  0.1132 -0.0667  0.1136
 8101W        W21515   5.829  17.771  12.648 -0.1010 -0.0660 -0.0130
 8102W        W21516   5.506   1.945   5.082  0.0016  0.1640  0.0775
 8103W        W21517  11.573   6.507  15.359 -0.1109  0.1371  0.0468
 8104W        W21518  14.078   7.922   0.645  0.0031  0.0367  0.1408
 8105W        W21519   3.040  14.035  10.025 -0.0801 -0.1236 -0.2026
 8106W        W21520   4.289   5.310  16.012  0.0642  0.0598 -0.1756
 8107W        W21521   0.657   2.828   4.703  0.3527 -0.0920 -0.2190
 8108W        W21522  12.842   1.079   5.344 -0.0160 -0.1152  0.0559
 8109W        W21523   0.267   5.044  13.136 -0.0668  0.0238 -0.1677
 8110W        W21524   9.621   8.621  11.827  0.1417 -0.1842 -0.0706
 8111W        W21525   0.494   9.667  15.144 -0.0512  0.2336 -0.3177
 8112W        W21526   7.720   9.060  16.143  0.0334  0.2208 -0.0224
 8113W        W21527  16.052  14.398  14.326 -0.0916  0.0935  0.0586
 8114W        W21528   9.632   8.695   5.249  0.1855 -0.1494 -0.0928
 8115W        W21529  13.524  16.931   4.584  0.0708  0.1450  0.2808
 8116W        W21530   5.090  18.134   0.516  0.1183  0.3189  0.1561
 8117W        W21531  15.677   8.533   5.407 -0.0499 -0.1935  0.0593
 8118W        W21532  17.162  12.019  11.895 -0.2399  0.0523  0.0047
 8119W        W21533  11.244   6.776   1.608  0.1395 -0.0961 -0.0766
 8120W        W21534   1.424   9.463  10.689 -0.0018  0.0728 -0.1708
 8121W        W21535  15.856   3.200  14.617 -0.3377  0.0955  0.1564
 8122W        W21536  11.883   9.068   1.932 -0.1056 -0.0531  0.0371
 8123W        W21537   5.403  10.892   5.426  0.0890  0.2410 -0.0540
 8124W        W21538   2.413   6.661  11.587  0.1371 -0.1483  0.0150
 8125W        W21539   5.816  15.911  13.117 -0.2916 -0.4587  0.0556
 8126W        W21540   4.731  12.337  11.138 -0.0725  0.0742 -0.1158
 8127W        W21541   1.921  12.531   3.457 -0.2512  0.4726 -0.3329
 8128W        W21542  15.271  12.498   1.339  0.2395  0.0751 -0.1763
 8129W        W21543   9.239  16.856  11.079  0.2180  0.4150  0.0960
 8130W        W21544   1.736   0.315   1.971  0.1882  0.1952  0.3519
 8131W        W21545   8.752   4.602   3.992  0.0587  0.2307  0.0996
 8132W        W21546  13.847  13.908  10.394  0.2306 -0.2046  0.3243
 8133W        W21547   1.642  12.126   4.421 -0.0607  0.0155 -0.1444
 8134W        W21548   7.495   7.207   6.391 -0.0283 -0.4981 -0.0804
 8135W        W21549   7.743  18.343  15.467  0.0995 -0.1848  0.2809
 8136W        W21550  10.658   7.023  13.475 -0.1791 -0.1399  0.1762
 8137W        W21551   9.192   6.179   6.381 -0.2414 -0.1041  0.1006
 8138W        W21552  17.725  10.883   3.663  0.1963  0.1921  0.0795
 8139W        W21553  16.445   0.986  12.809 -0.0412  0.3330 -0.1598
 8140W        W21554   1.766  10.123  13.313 -0.4525  0.2097 -0.1974
 8141W        W21555   8.211   0.216   4.400  0.0672 -0.1478  0.1430
 8142W        W21556   7.494  17.218   1.900  0.0086 -0.1670 -0.4866
 8143W        W21557  11.067   8.037   4.145  0.1142 -0.3868  0.0925
 8144W        W21558  14.261  16.996  16.042  0.1919 -0.1433  0.2487
 8145W        W21559  17.877  11.502  12.641 -0.1896  0.1623 -0.0220
 8146W        W21560   2.352   1.328   1.657 -0.3659  0.0375  0.1898
 8147W        W21561  17.329   0.680   0.243  0.0290  0.1845 -0.2011
 8148W        W21562  10.311   9.632   4.160 -0.2166  0.8113 -0.0847
 8149W        W21563   9.471  16.900   5.268 -0.0030 -0.2038  0.1234
 8150W        W21564   7.079  10.332   2.852  0.2334  0.0778 -0.0797
 8151W        W21565  14.672  10.330   4.813 -0.0852  0.1819  0.1908
 8152W        W21566   6.298   9.896  16.179 -0.0840 -0.3925 -0.0926
 8153W        W21567   6.733  10.773  10.849 -0.2141 -0.3598  0.1094
 8154W        W21568   8.958   3.372   3.543 -0.0945 -0.2351 -0.0304
 8155W        W21569  15.520  14.789  15.904 -0.0482 -0.4379 -0.1801
 8156W        W21570   1.624  11.813  12.456 -0.1451  0.3176 -0.1235
 8157W        W21571  15.804   5.808  16.070 -0.1237  0.2564 -0.1189
 8158W        W21572   5.439  11.948  16.232 -0.0907 -0.4890  0.0326
 8159W        W21573   6.384  10.817  15.791 -0.0892 -0.0457  0.0265
 8160W        W21574   4.905  14.982  12.673 -0.1672 -0.3054  0.0959
 8161W        W21575  16.226   7.092  14.850 -0.0686 -0.0117  0.0116
 8162W        W21576   3.054  10.290   4.070  0.1066 -0.1888 -0.0807
 8163W        W21577  11.479   3.307  11.939  0.3597 -0.1180  0.2829
 8164W        W21578   4.873   7.900  13.598  0.1392  0.0363 -0.0294
 8165W        W21579  17.991  10.209  14.570  0.0441  0.1176 -0.0408
 8166W        W21580   0.827  12.869   2.443 -0.0121  0.2900  0.1582
 8167W        W21581   3.085   8.049   5.565  0.3784  0.0936 -0.4906
 8168W        W21582  16.631  11.975   5.506  0.0106 -0.0044  0.1628
 8169W        W21583  10.883   1.667  10.066 -0.0853  0.1727 -0.2147
 8170W        W21584  15.037  10.634  15.547  0.2213  0.0935 -0.1022
 8171W        W21585   8.371  14.312  13.076  0.0098 -0.0264 -0.0770
 8172W        W21586   2.904   7.128   3.705 -0.3067 -0.3757 -0.2675
 8173W        W21587  15.604  14.131   1.560  0.0962 -0.2208 -0.1208
 8174W        W21588   4.323  13.511   4.260 -0.1058  0.0544 -0.0031
 8175W        W21589  18.044  18.039  11.785 -0.0105  0.4428  0.1276
 8176W        W21590   5.753  16.812  14.603  0.1151  0.2059 -0.1341
 8177W        W21591  11.436  13.437  10.721  0.0989 -0.0687  0.2927
 8178W        W21592  18.440   9.642   1.860 -0.1124  0.2550 -0.2171
 8179W        W21593  12.860   1.667   2.167  0.2311 -0.2892 -0.0515
 8180W        W21594  16.735  15.111   4.424  0.0129 -0.2744  0.0075
 8181W        W21595  17.053  10.187   5.379  0.0010 -0.0834  0.0498
 8182W        W21596   6.223   3.821  13.073  0.1231  0.0991 -0.1455
 8183W        W21597   8.780   2.646  10.898  0.0015 -0.0438 -0.0720
 8184W        W21598  15.593   4.084   3.510 -0.1659 -0.1722  0.0147
 8185W        W21599  13.385   3.554   0.431  0.0419  0.0148 -0.0256
 8186W        W21600  15.003  11.093  13.216 -0.1669 -0.0557  0.0320
 8187W        W21601   5.621  11.712  11.219  0.0040  0.0647 -0.1884
 8188W        W21602   9.957   5.216  15.288  0.0841  0.0106  0.1611
 8189W        W21603   2.570  14.615  14.740  0.2011  0.0508 -0.1547
 8190W        W21604   8.885   7.424   2.447 -0.0602 -0.3291 -0.1212
 8191W        W21605  12.630  12.352  12.284 -0.2646  0.1157  0.3372
 8192W        W21606  14.387   0.807   2.858 -0.0508 -0.1647  0.1685
 8193W        W21607  11.601  15.427   2.499  0.1836 -0.0091 -0.0971
 8194W        W21608   0.745   9.523   5.766 -0.3601  0.0229  0.0037
 8195W        W21609   3.352   0.928  12.202 -0.2851  0.0092  0.1052
 8196W        W21610  17.335   6.676  14.547 -0.0938 -0.1903  0.0676
 8197W        W21611   5.506  15.908  12.724 -0.0261  0.0099 -0.1767
 8198W        W21612   0.647   0.245   2.349 -0.1767  0.0313  0.0200
 8199W        W21613  17.325  16.301   2.007  0.2288  0.0198  0.0208
 8200W        W21614   6.634  16.478   3.415  0.2004 -0.0253  0.2128
 8201W        W21615  12.371   8.184  13.878 -0.0309  0.1469 -0.1131
 8202W        W21616  10.208   7.080   0.081 -0.2496 -0.1126 -0.2615
 8203W        W21617   3.915  12.508   3.377  0.1372 -0.2048 -0.1644
 8204W        W21618  12.206   4.814   5.597 -0.1209 -0.5165  0.0937
 8205W        W21619  13.372  12.023   3.611  0.4448 -0.2173 -0.0317
 8206W        W21620   4.719  18.270   0.028 -0.4495  0.1386 -0.1124
 8207W        W21621  15.371   6.480  11.120  0.1381 -0.0086  0.0384
 8208W        W21622  17.939   6.461  11.132  0.2325  0.1364 -0.0217
 8209W        W21623  11.669   0.937  11.793  0.1330 -0.1146 -0.2466
 8210W        W21624   4.673   2.837  15.108  0.3765 -0.0098 -0.1507
 8211W        W21625  17.305   4.935   4.550 -0.0274 -0.0881  0.0373
 8212W        W21626  15.663   8.432   3.778 -0.5314  0.0601 -0.0140
 8213W        W21627   0.825   2.254   6.913 -0.0904  0.0307  0.0071
 8214W        W21628   8.940  14.161  15.877  0.0017  0.0940 -0.0250
 8215W        W21629  10.425  13.435   4.592 -0.0886  0.0872  0.0449
 8216W        W21630   8.344  16.665  11.517  0.1371 -0.1071 -0.5609
 8217W        W21631  11.979  17.269  10.067 -0.2531 -0.2966  0.3387
 8218W        W21632  10.223  13.272   5.012 -0.2828 -0.2007  0.2732
 8219W        W21633   1.757   9.458   2.470  0.2186 -0.1507  0.1488
 8220W        W21634  10.019   5.036   0.092  0.0560  0.1825 -0.1331
 8221W        W21635   5.486  11.970   2.261 -0.0993  0.0253  0.2407
 8222W        W21636   1.683  14.422   1.028  0.0007  0.1456  0.1461
 8223W        W21637   5.176  11.889   5.129 -0.1563  0.2765  0.0067
 8224W        W21638  10.270  13.659  13.950 -0.0679  0.3411 -0.0451
 8225W        W21639   2.025   9.414  15.222  0.0060 -0.0179  0.0519
 8226W        W21640   1.120  16.357  14.188  0.1896 -0.0563  0.1981
 8227W        W21641  14.229  15.273  13.051  0.1577 -0.3819 -0.2276
 8228W        W21642  15.603   2.981   0.100 -0.2405  0.0136  0.0048
 8229W        W21643   8.454   4.022  12.497  0.0272 -0.2242 -0.1883
 8230W        W21644  17.215  11.751  15.850  0.1660 -0.6048 -0.0409
 8231W        W21645   3.266  11.186  12.116  0.1936 -0.1077 -0.0949
 8232W        W21646   8.883  12.818   1.924  0.0559  0.0252 -0.0813
 8233W        W21647   8.119   3.826   0.152  0.0496  0.2306 -0.0097
 8234W        W21648   7.695  14.767   1.919 -0.1404  0.1588 -0.1291
 8235W        W21649   2.082   0.313   3.589  0.0940 -0.3245 -0.3169
 8236W        W21650  11.707   2.795   2.110  0.0507  0.0281 -0.1278
 8237W        W21651  11.764   1.192  15.394 -0.0628 -0.2582 -0.2638
 8238W        W21652  16.814  10.624   5.189  0.0526  0.1432 -0.4948
 8239W        W21653  13.860  14.630   4.033  0.0053 -0.4294 -0.0272
 8240W        W21654   9.721  11.840  11.959 -0.2246  0.0554  0.1559
 8241W        W21655  11.623   7.453  13.931  0.2627 -0.0525 -0.4377
 8242W        W21656   0.701  16.089   1.141  0.1670  0.1861 -0.0536
 8243W        W21657   5.007   5.159  11.758 -0.0269  0.0432 -0.0549
 8244W        W21658   3.603   6.033   5.525 -0.1962  0.2098 -0.1721
 8245W        W21659  10.035  14.138  14.326  0.2353 -0.1171 -0.0153
 8246W        W21660   1.105   1.549   1.207  0.0549  0.1721  0.0920
 8247W        W21661   2.637  13.858   2.846 -0.0832 -0.1657  0.0627
 8248W        W21662   2.880  17.980   3.574  0.0236 -0.3264 -0.2056
 8249W        W21663  17.882  12.014  15.322  0.0179 -0.2271  0.2427
 8250W        W21664  17.547  16.379   0.126 -0.0504  0.2557  0.0996
 8251W        W21665  17.452   8.080  12.419 -0.3410  0.0643 -0.3368
 8252W        W21666  10.100  11.592   2.592 -0.1764  0.0662  0.4111
 8253W        W21667  18.289   4.784  15.618 -0.1375 -0.0781  0.0822
 8254W        W21668  15.431  16.527  14.315  0.0549  0.1408 -0.2807
 8255W        W21669  14.655   1.701   5.402 -0.3333  0.0193  0.0252
 8256W        W21670   0.296  17.445  11.759  0.2316 -0.2210 -0.4129
 8257W        W21671   0.290  11.558  15.176  0.0948  0.0745  0.3511
 8258W        W21672  10.827   2.181   0.745 -0.1831  0.1064  0.2312
 8259W        W21673  17.654  11.655  15.002  0.4354 -0.0751  0.0601
 8260W        W21674  11.008  11.222   1.766  0.1669 -0.2490  0.0767
 8261W        W21675  14.137  14.967   4.720  0.4305  0.0272  0.1074
 8262W        W21676   9.851   9.889   0.993  0.0022 -0.0416  0.0976
 8263W        W21677  14.826   2.170  13.387  0.2442  0.1417 -0.1385
 8264W        W21678   3.028   5.183  13.814  0.2977  0.0933  0.2137
 8265W        W21679  13.466   2.887   1.278  0.1679  0.0311  0.2079
 8266W        W21680  16.614  11.563  10.712  0.1489  0.1464  0.2076
 8267W        W21681  16.807  16.963  12.693 -0.1140 -0.1216  0.0443
 8268W        W21682   3.832  11.874  10.919 -0.1367 -0.2781  0.1663
 8269W        W21683   3.774   2.764  11.498 -0.3057 -0.4272  0.0279
 8270W        W21684   5.330   2.786   1.219  0.2433 -0.0165 -0.1709
 8271W        W21685   6.756   9.666   2.490  0.3020 -0.0088 -0.0951
 8272W        W21686  10.466  16.598   4.353 -0.0982  0.2586 -0.2895
 8273W        W21687   9.574   1.308   1.759  0.1390 -0.0182 -0.2120
 8274W        W21688  12.706   8.065   5.848  0.1169 -0.1034 -0.1436
 8275W        W21689  17.910  16.785  10.586  0.0055  0.1948 -0.0462
 8276W        W21690  17.123  15.948   4.052  0.2179 -0.0146  0.1501
 8277W        W21691  12.015   7.487  13.038  0.1504 -0.2729  0.0721
 8278W        W21692  13.546   8.043   4.883 -0.2600  0.0837 -0.1051
 8279W        W21693  10.284   4.926  10.591 -0.2047  0.2648  0.3049
 8280W        W21694   7.442   0.801   4.280 -0.0473 -0.1316 -0.4301
 8281W        W21695  17.710   8.100   4.798  0.0216  0.1425 -0.4263
 8282W        W21696  11.365  10.910   4.847 -0.0927 -0.0166  0.0710
 8283W        W21697  11.234   7.945   1.770 -0.1020 -0.1387 -0.0711
 8284W        W21698  10.382   3.636   4.333  0.1591  0.0452 -0.0448
 8285W        W21699   4.905   2.527  10.395 -0.1998  0.1234  0.2317
 8286W        W21700   0.515  16.959  12.735  0.3032  0.2943  0.2078
 8287W        W21701  15.952   5.276   2.465 -0.0414  0.0355  0.1532
 8288W        W21702   3.973   3.366   3.834 -0.1356 -0.3515  0.0520
 8289W        W21703   0.046   1.371  14.515 -0.1135 -0.1590 -0.0858
 8290W        W21704   7.576   1.976   1.078 -0.0094  0.1826  0.0870
 8291W        W21705  14.563  13.805   1.816  0.2816  0.1224  0.1001
 8292W        W21706   5.091   4.424  12.535 -0.0861 -0.0781 -0.0309
 8293W        W21707   0.087   0.343  15.041  0.4140 -0.0027  0.3991
 8294W        W21708  16.757  14.960  10.168 -0.2726  0.0509  0.2638
 8295W        W21709   8.973  11.810   3.650  0.1479 -0.0801  0.1169
 8296W        W21710  17.623   9.929   4.898 -0.1781 -0.0150 -0.0294
 8297W        W21711   1.764  13.219  11.152 -0.1413  0.0472 -0.0866
 8298W        W21712   2.630   2.048  11.675  0.0830  0.0872 -0.1443
 8299W        W21713  13.400   6.932   4.611 -0.0267 -0.2253 -0.3337
 8300W        W21714  15.020   2.613  12.938 -0.2571 -0.1347  0.2120
 8301W        W21715   8.913   0.997   4.384 -0.0965  0.0685  0.0909
 8302W        W21716   7.985  12.667   2.389 -0.1373 -0.0050  0.0914
 8303W        W21717   9.117   2.811   0.277  0.0297  0.0175 -0.0583
 8304W        W21718   1.280  13.145  15.354  0.0989  0.0521  0.0141
 8305W        W21719  13.809  16.623   4.190  0.0359  0.2654  0.0860
 8306W        W21720   9.222   4.991   1.076 -0.3320 -0.0419 -0.0793
 8307W        W21721  11.955   8.555   0.354  0.1074  0.0686 -0.1998
 8308W        W21722   5.181  17.810  10.323 -0.0817 -0.0094 -0.0419
 8309W        W21723  13.840  15.451   4.953  0.0689 -0.0185 -0.0567
 8310W        W21724  13.967  16.977  13.154 -0.0568  0.1470  0.0824
 8311W        W21725  11.006   8.203   6.474 -0.1398 -0.0350  0.1319
 8312W        W21726  16.514  12.502  15.770  0.1594 -0.0203  0.1502
 8313W        W21727   2.165  12.077   4.558  0.0888  0.1927 -0.1216
 8314W        W21728   3.605   3.247  14.789  0.3263  0.1429  0.1398
 8315W        W21729   7.194  17.816  16.134  0.0206  0.1840 -0.0585
 8316W        W21730   7.590  12.397  14.054 -0.0364 -0.1948  0.1704
 8317W        W21731  18.279   3.029  12.243 -0.0551  0.3607 -0.0967
 8318W        W21732   7.034   2.600   1.090 -0.0360  0.4398 -0.0625
 8319W        W21733  17.165  14.933   0.630 -0.0324  0.0562 -0.0868
 8320W        W21734   6.021   2.304  13.860 -0.3795  0.0618 -0.1147
 8321W        W21735   5.802  14.393  12.604 -0.4384 -0.1075 -0.0550
 8322W        W21736   5.109  16.406   5.397 -0.0245 -0.0246  0.1789
 8323W        W21737   3.878   6.538  15.035  0.0222  0.0950 -0.3009
 8324W        W21738  14.849   6.973   0.188 -0.0104 -0.2188 -0.2529
 8325W        W21739   8.546  12.307   1.701 -0.1158 -0.1513 -0.1130
 8326W        W21740   1.588   5.761  12.467 -0.1814  0.0630 -0.0464
 8327W        W21741   2.747  15.498  11.842  0.3581 -0.3701 -0.1728
 8328W        W21742  13.294   9.111   6.479  0.1724 -0.1196  0.0848
 8329W        W21743   1.336   8.536   4.464 -0.1428  0.2774 -0.0318
 8330W        W21744   0.882  12.964  15.086  0.0994  0.0760  0.1216
 8331W        W21745  17.914  12.629  11.337  0.1150 -0.1505 -0.0441
 8332W        W21746   7.926   6.039   1.969  0.1911 -0.1443 -0.1932
 8333W        W21747   8.681  14.846   4.520 -0.1383  0.0745 -0.2902
 8334W        W21748   3.348  12.552   2.127  0.1617 -0.1558 -0.2491
 8335W        W21749  11.118  14.205  11.829  0.1647  0.1248 -0.1576
 8336W        W21750   1.665   1.745   2.282  0.0372 -0.3011  0.0881
 8337W        W21751  15.496   8.992  11.446 -0.1616  0.0234 -0.0015
 8338W        W21752  15.730   4.348  11.205  0.3284 -0.0447 -0.1401
 8339W        W21753  16.068   5.750   0.735 -0.2607  0.0913  0.2059
 8340W        W21754  14.418  16.996  10.214  0.1120 -0.3065  0.0157
 8341W        W21755   5.667  17.357   4.228  0.0672 -0.2362  0.1811
 8342W        W21756   9.522  10.731   3.550  0.2078  0.2336  0.0058
 8343W        W21757  16.884   6.327   0.524 -0.2387  0.2284 -0.1722
 8344W        W21758  12.098   1.864  16.017 -0.0552 -0.2306 -0.0562
 8345W        W21759   5.820  13.565  11.914 -0.2704  0.0583  0.0204
 8346W        W21760   4.551   9.004   2.876 -0.1290 -0.0627 -0.1638
 8347W        W21761   9.858   5.484  12.539 -0.1302  0.0569 -0.0530
 8348W        W21762   2.012  12.543  12.034 -0.3508  0.1615  0.1856
 8349W        W21763   4.602  13.843  12.253 -0.0938  0.0543 -0.0869
 8350W        W21764  14.108  17.484  10.237  0.0577  0.2922 -0.2200
 8351W        W21765   9.661   4.245  10.450 -0.4379  0.4146  0.1297
 8352W        W21766   4.111   0.559  10.995 -0.0451  0.0183  0.0837
 8353W        W21767   4.464   0.654   0.755 -0.3123  0.1097  0.1667
 8354W        W21768  14.148  12.709  11.717 -0.1535  0.2467  0.3246
 8355W        W21769   6.064  18.112  14.332 -0.4183  0.0921 -0.0644
 8356W        W21770  10.952  11.383  10.899  0.0548 -0.1543 -0.2656
 8357W        W21771   9.058  16.016  11.992 -0.3672  0.3910  0.1414
 8358W        W21772  12.296  13.808   0.686  0.0506  0.2303 -0.2481
 8359W        W21773   3.437   6.123  15.134  0.1345 -0.1734 -0.2978
 8360W        W21774  13.870  12.210  14.770  0.1730 -0.4141  0.0815
 8361W        W21775   9.491  17.819  13.216  0.0789  0.0357  0.0500
 8362W        W21776  15.773  17.684  13.882  0.0790 -0.2372  0.0277
 8363W        W21777  11.314  17.765  11.728  0.0970 -0.0672  0.2412
 8364W        W21778   7.598  11.975   1.401  0.0540  0.0206 -0.0068
 8365W        W21779   8.536   0.687  10.454 -0.1454  0.3018  0.0546
 8366W        W21780   2.527   8.956   1.146  0.2976  0.1773 -0.0024
 8367W        W21781   0.157  17.458   3.799 -0.1269 -0.0993  0.1051
 8368W        W21782  17.087  13.899   5.408 -0.1087 -0.2079 -0.0070
 8369W        W21783  13.124  10.103   2.539  0.0752 -0.0358  0.0187
 8370W        W21784   6.396  14.769   4.946  0.6036 -0.0741 -0.1437
 8371W        W21785  18.333   7.762  12.473 -0.1932 -0.1249 -0.0708
 8372W        W21786   7.536  18.289   2.583  0.0740  0.1046  0.0122
 8373W        W21787   8.740   2.792   4.110 -0.1768 -0.1227 -0.1403
 8374W        W21788  11.786  11.066   3.972  0.1958  0.1629  0.0142
 8375W        W21789   8.542  14.884  10.669  0.0090  0.2768 -0.4937
 8376W        W21790   1.842   2.986  11.334  0.1445  0.1080 -0.2909
 8377W        W21791  15.974   2.704  11.126  0.0846 -0.1759 -0.0484
 8378W        W21792   5.748  16.687  15.890  0.2755  0.4227 -0.1818
 8379W        W21793   2.657  14.369   2.436  0.4921 -0.1112  0.0058
 8380W        W21794  16.646   9.077   4.178  0.1876 -0.2984 -0.0058
 8381W        W21795  14.860   8.797  12.892  0.0812 -0.0715  0.0923
 8382W        W21796  17.090   9.922  12.868 -0.0016  0.0908  0.4239
 8383W        W21797  10.585   5.132  13.567  0.0079 -0.1569 -0.1643
 8384W        W21798   4.596  17.531   0.944 -0.2486  0.1223  0.0092
 8385W        W21799  11.401   5.058   4.191 -0.0086  0.0028 -0.1914
 8386W        W21800  18.295  12.255  16.079  0.1291 -0.1390  0.0477
 8387W        W21801  17.451   3.694  15.889  0.0221  0.0741  0.0135
 8388W        W21802   7.774   6.108  11.684 -0.3647 -0.2028 -0.0891
 8389W        W21803   7.033   7.842  13.954  0.1391 -0.1560  0.2936
 8390W        W21804  14.422   7.263   3.459 -0.2048  0.0501 -0.1135
 8391W        W21805   7.439   6.795   5.538  0.0732 -0.1099  0.0696
 8392W        W21806   1.422  11.779  12.907 -0.1093 -0.2230 -0.1346
 8393W        W21807   1.886   9.238  11.700  0.3950  0.1649  0.2035
 8394W        W21808   4.498  14.062   6.418  0.0635 -0.3442  0.1396
 8395W        W21809  16.670  14.694  15.737  0.0237 -0.0572 -0.2579
 8396W        W21810   8.783   8.363  10.962 -0.0091  0.1153 -0.2927
 8397W        W21811   5.894   2.790   5.234  0.3003 -0.5546 -0.0719
 8398W        W21812   9.903   6.210   1.640  0.2371  0.1515  0.1102
 8399W        W21813   9.637   0.971   2.512 -0.1853 -0.1319  0.1140
 8400W        W21814   6.598   2.038  14.411 -0.3494 -0.1142  0.1518
 8401W        W21815   5.030  10.408  12.758 -0.1310  0.1086  0.1178
 8402W        W21816  18.400   0.533  12.887 -0.1782 -0.0393  0.3542
 8403W        W21817   6.077  13.449   2.192 -0.0848  0.0310  0.1242
 8404W        W21818   2.862   0.458  14.180 -0.1838  0.0154 -0.1315
 8405W        W21819  18.271  13.385   0.707 -0.0957  0.0117  0.1190
 8406W        W21820  15.588   8.436  14.049  0.0931 -0.0643 -0.0015
 8407W        W21821   1.080   8.985  11.186 -0.2301 -0.0410  0.0005
 8408W        W21822   1.930   5.048  14.297 -0.2647 -0.2519 -0.0056
 8409W        W21823  12.114   2.492  10.849 -0.1552  0.0632  0.0815
 8410W        W21824  17.354  11.956   0.645  0.1555  0.0890  0.0005
 8411W        W21825   5.168   1.468  15.269  0.0730  0.1515  0.1625
 8412W        W21826   7.980   6.719   0.476 -0.2473  0.1095 -0.1349
 8413W        W21827   1.928   2.830  14.421 -0.1207  0.2180 -0.1114
 8414W        W21828  16.810   1.982   2.286 -0.2863  0.1004 -0.0449
 8415W        W21829  11.527  13.924  10.660  0.2692 -0.1315 -0.2154
 8416W        W21830  12.194  16.665   0.787  0.3725 -0.0592 -0.0035
 8417W        W21831   5.656  15.882   2.093 -0.4032 -0.2759 -0.1780
 8418W        W21832   3.715   3.957  10.154 -0.1152  0.0999  0.0218
 8419W        W21833  13.280  13.025  12.703 -0.2451 -0.0837 -0.1216
 8420W        W21834   2.608   2.201  14.850  0.1471  0.0261  0.2414
 8421W        W21835   5.794   8.978  16.247 -0.1138 -0.0265 -0.2846
 8422W        W21836   3.235   8.490   6.278  0.2371 -0.3708 -0.2553
 8423W        W21837  10.634  17.063  11.918  0.2190  0.1589 -0.0488
 8424W        W21838   9.403   0.539   2.290  0.1675 -0.1267  0.0677
 8425W        W21839  13.847   0.261  14.394  0.0402 -0.0964  0.0559
 8426W        W21840   4.735  14.450  12.780 -0.1228 -0.0436  0.2636
 8427W        W21841  15.699   3.295  10.265 -0.0670  0.1073  0.0854
 8428W        W21842  17.262   2.948   3.030  0.1636 -0.0558  0.0404
 8429W        W21843  17.111  12.829   0.528 -0.2522 -0.4166  0.0901
 8430W        W21844   2.088  10.414   6.103 -0.4427 -0.1330 -0.2329
 8431W        W21845   6.581   5.348   2.479 -0.0824 -0.1996 -0.0818
 8432W        W21846  10.036   0.100   0.524  0.0724 -0.0051 -0.5156
 8433W        W21847  15.982   8.270  10.903  0.0873 -0.3365  0.1286
 8434W        W21848  15.237   1.886  15.579 -0.2088  0.0170 -0.1143
 8435W        W21849  15.445  12.585   5.130 -0.1416 -0.0373 -0.0211
 8436W        W21850   2.864   6.831  12.857  0.1323 -0.3973  0.3888
 8437W        W21851   7.281   9.118   0.672  0.1348 -0.2335 -0.1735
 8438W        W21852   2.330  11.497   2.375  0.2832 -0.1980  0.1074
 8439W        W21853   9.340   2.561   4.423 -0.1250 -0.3856 -0.2411
 8440W        W21854  11.640  16.348  14.338 -0.0878 -0.0902  0.2129
 8441W        W21855   0.426  15.201  14.440 -0.0190  0.0668  0.1081
 8442W        W21856  13.154  12.251   1.090 -0.6001 -0.0646  0.0959
 8443W        W21857  18.295  16.904  13.852  0.0547  0.1299 -0.0618
 8444W        W21858   6.066  18.039  15.364 -0.2662  0.3175  0.1077
 8445W        W21859   1.076  18.068  15.170  0.4708 -0.0940  0.3124
 8446W        W21860  16.616   8.809  15.956 -0.1074  0.1249 -0.2785
 8447W        W21861   9.667  18.395  15.304 -0.0667  0.0943  0.1234
 8448W        W21862   3.582   1.509   2.471  0.0677  0.0919 -0.0299
 8449W        W21863   7.873   1.441  14.597 -0.1632 -0.2644 -0.2248
 8450W        W21864  12.132   0.386   4.507 -0.2733 -0.1240 -0.0892
 8451W        W21865   0.976   4.465   3.773  0.0574  0.0892 -0.0630
 8452W        W21866   6.532   6.726  13.880 -0.0161 -0.1507  0.0885
 8453W        W21867   3.969  12.762  11.027 -0.4497 -0.2926 -0.0833
 8454W        W21868  10.415   3.934   5.212  0.0818  0.3854 -0.0591
 8455W        W21869  13.518  15.819   0.823  0.0576  0.0352  0.1190
 8456W        W21870   4.115  14.902   1.702 -0.2408  0.1086 -0.1150
 8457W        W21871   0.707   9.265  16.211  0.1624 -0.3056  0.6321
 8458W        W21872   1.578   1.474   0.615  0.0396  0.0139  0.0373
 8459W        W21873  17.678  15.368  10.060  0.3276  0.1266 -0.0974
 8460W        W21874  16.522  15.701   1.541  0.1762  0.1098  0.2052
 8461W        W21875   9.507  16.505  10.246 -0.0689  0.1050  0.2408
 8462W        W21876   1.692   4.349  12.585  0.1820  0.1045 -0.0558
 8463W        W21877  14.330   9.416  11.332 -0.1587 -0.0670  0.3195
 8464W        W21878  16.876  12.900   5.573  0.0378  0.1488 -0.0555
 8465W        W21879  12.428   6.139   1.451  0.2911  0.0223 -0.2860
 8466W        W21880  17.475   5.690   3.320 -0.0536 -0.0810  0.0846
 8467W        W21881   9.487   2.793  15.232 -0.1255 -0.0380 -0.2482
 8468W        W21882  10.030   3.252   4.092  0.2458 -0.2060  0.1320
 8469W        W21883   3.831   0.477   2.491 -0.0568 -0.2678  0.0025
 8470W        W21884   3.252  11.459   0.829  0.2070 -0.1543  0.0953
 8471W        W21885  15.927   6.854   5.374 -0.0389 -0.0951  0.0318
 8472W        W21886   3.488   7.675  11.804  0.0740 -0.1180  0.4577
 8473W        W21887   2.793  12.246  11.685 -0.0954 -0.0498  0.1851
 8474W        W21888  16.490   7.811   4.432 -0.0918 -0.0613 -0.1052
 8475W        W21889  16.970   4.055   4.429  0.1116  0.2055 -0.0286
 8476W        W21890  12.423   8.023   2.458  0.1016  0.0063  0.0049
 8477W        W21891  17.913   2.747   4.417 -0.0761  0.0688  0.0372
 8478W        W21892  15.702  12.797  15.870 -0.0095 -0.1195 -0.5734
 8479W        W21893   4.205  12.023   1.305  0.3238 -0.0917  0.0886
 8480W        W21894   9.490  10.611  13.818  0.1807 -0.2243 -0.0790
 8481W        W21895   3.141  12.895  11.143  0.1017 -0.1430 -0.0968
 8482W        W21896   5.397   5.775   0.294  0.1046  0.2778 -0.0421
 8483W        W21897  17.176   3.354  15.149 -0.0089  0.0940 -0.1393
 8484W        W21898   4.839   4.455  11.566  0.4939 -0.2672  0.1187
 8485W        W21899   9.214   5.818   4.678  0.1171  0.3515  0.0563
 8486W        W21900  12.874   9.275   2.152  0.1513  0.1867  0.0424
 8487W        W21901   1.044  16.950   2.371 -0.0061 -0.0670  0.1534
 8488W        W21902  15.100  10.561   3.162  0.0823 -0.3844 -0.2606
 8489W        W21903  15.955  10.813   3.426 -0.1053  0.3175  0.2181
 8490W        W21904  18.238   7.687   2.582 -0.2231 -0.2538  0.0052
 8491W        W21905  16.648   5.971  12.549 -0.2736 -0.2190 -0.0139
 8492W        W21906  12.825  11.436   0.706  0.0361  0.2093 -0.1477
 8493W        W21907  18.169  17.392   2.243 -0.1033 -0.1042  0.0664
 8494W        W21908   8.542   7.277  13.192 -0.2521  0.0339  0.2558
 8495W        W21909   0.851   6.368  11.247  0.0073  0.0178  0.2724
 8496W        W21910  14.446   5.619   5.857  0.0082 -0.0545 -0.1007
 8497W        W21911   5.125  10.572   1.224  0.1639 -0.0493  0.2608
 8498W        W21912   2.523  12.513  14.282  0.0636 -0.3157  0.1062
 8499W        W21913   6.788  18.313  15.045  0.1017 -0.1017 -0.1167
 8500W        W21914   2.887   4.126   1.854  0.1205 -0.0401  0.1537
 8501W        W21915  13.902  11.431  14.140 -0.1744  0.1549  0.1184
 8502W        W21916  14.861  14.681  14.056 -0.1898 -0.0413 -0.3307
 8503W        W21917   2.648   7.621  12.759 -0.0074 -0.0642 -0.0970
 8504W        W21918  14.334  13.014   2.115 -0.0038  0.1854  0.0319
 8505W        W21919  15.326   3.438  13.883 -0.0365 -0.1452 -0.1729
 8506W        W21920   7.353   0.256   0.620  0.2761  0.0997 -0.1588
 8507W        W21921   2.646  11.513   4.196  0.0053  0.2385  0.0495
 8508W        W21922   3.227   5.539   4.163  0.1872 -0.2617 -0.1041
 8509W        W21923  16.092  13.190  10.839  0.0856  0.1212 -0.2903
 8510W        W21924   3.797  14.514   5.056  0.2652 -0.3258 -0.1540
 8511W        W21925  14.073   3.554   5.335  0.0924  0.2707  0.0646
 8512W        W21926   2.172   2.368  15.051  0.2624  0.0099 -0.2337
 8513W        W21927  12.164  17.244  13.656  0.3187 -0.0022  0.0679
 8514W        W21928  18.283   7.541  12.951  0.0972 -0.1257 -0.2103
 8515W        W21929  16.067  11.301  14.671  0.1818  0.0130 -0.2081
 8516W        W21930  14.716   5.456  11.575  0.1612  0.0916  0.2145
 8517W        W21931   2.962  11.803  12.795 -0.0638 -0.2838 -0.1057
 8518W        W21932   4.183   3.712  15.506 -0.0335  0.0775 -0.1073
 8519W        W21933   8.352   6.166  16.259 -0.0796  0.0627 -0.4301
 8520W        W21934  11.998   5.605   0.926 -0.0128 -0.0944  0.0018
 8521W        W21935  11.393   9.755   5.555  0.3873 -0.0703  0.2021
 8522W        W21936  15.526   3.958   5.250 -0.2963  0.0930 -0.2307
 8523W        W21937  11.382  11.382  15.432 -0.0494  0.1807  0.2053
 8524W        W21938   5.945   8.744  11.523 -0.0781  0.0849  0.0476
 8525W        W21939  16.520   6.703   0.406  0.1225  0.0375  0.0457
 8526W        W21940  11.955  13.675  11.452  0.0495  0.0407  0.1193
 8527W        W21941  12.012   1.251   4.461 -0.1130  0.1283  0.1098
 8528W        W21942   8.990   3.246   1.179 -0.1897  0.2368  0.0077
 8529W        W21943  13.913   2.387   4.276  0.2954 -0.0081  0.1888
 8530W        W21944   9.280   9.479  13.820 -0.1796  0.2235  0.0329
 8531W        W21945   6.545   0.024   0.655  0.3676  0.0615 -0.1653
 8532W        W21946   2.057  12.325   1.893 -0.0606 -0.1991 -0.3038
 8533W        W21947  12.762  16.725   3.131  0.1404 -0.4758  0.1293
 8534W        W21948   3.242   5.163  15.280  0.0236  0.0436  0.4107
 8535W        W21949  10.293  13.939   3.290  0.2059 -0.0942  0.3074
 8536W        W21950  17.341  14.549   0.211  0.0284 -0.0693  0.1794
 8537W        W21951  18.393   8.213  15.168  0.1420  0.0668 -0.1441
 8538W        W21952  13.499   9.362  16.100  0.1995  0.0306  0.1311
 8539W        W21953   5.642  15.633   2.927 -0.0780  0.0023  0.1355
 8540W        W21954   8.348   6.458  11.042 -0.0005  0.0692  0.0079
 8541W        W21955   6.520   7.524  15.110 -0.1212  0.1486 -0.2043
 8542W        W21956   4.794  15.490  12.629 -0.0892  0.3168 -0.3021
 8543W        W21957   6.192   2.169   2.879  0.2481 -0.0140  0.2959
 8544W        W21958  11.374   8.248  16.020 -0.0508 -0.2585  0.2456
 8545W        W21959  13.421   7.527   0.926  0.0124  0.0218 -0.0271
 8546W        W21960  13.259  11.216  11.576  0.1026 -0.1881 -0.1597
 8547W        W21961  16.069  12.295  14.895 -0.1254  0.1410 -0.2850
 8548W        W21962   6.499   6.479  10.051 -0.1352 -0.0539 -0.0137
 8549W        W21963   7.944  13.601  10.850 -0.1142  0.0702 -0.0219
 8550W        W21964  13.705   1.333  11.618 -0.0655 -0.2140  0.0596
 8551W        W21965  17.566   9.780  14.464  0.0449  0.0774 -0.1024
 8552W        W21966  12.825   9.110  12.671 -0.0485 -0.0133 -0.1141
 8553W        W21967   6.726   3.713   0.357 -0.0091  0.1616  0.0387
 8554W        W21968   7.469   7.956  12.577 -0.0595 -0.0178  0.3480
 8555W        W21969   4.940  13.446  12.895 -0.0986 -0.0620 -0.1050
 8556W        W21970   5.115   2.746  15.197  0.1521  0.1985 -0.0948
 8557W        W21971  11.503   4.910   0.076 -0.0169  0.0674 -0.0100
 8558W        W21972  10.515  14.785  15.115  0.1391  0.1410 -0.0060
 8559W        W21973   0.079  10.532  15.143  0.0972 -0.1907 -0.3208
 8560W        W21974  10.091   9.909   1.716 -0.1149 -0.1502  0.1222
 8561W        W21975  13.052  10.874  10.261  0.2722  0.1565  0.3795
 8562W        W21976  15.358  15.875   0.866  0.3380 -0.0335  0.3615
 8563W        W21977  14.536   3.433  12.930  0.0928 -0.0256 -0.2931
 8564W        W21978  14.862   8.904   0.404 -0.1054 -0.4330 -0.3101
 8565W        W21979  18.227   1.635  11.346  0.0878 -0.0002 -0.1166
 8566W        W21980   1.716   2.654   3.750 -0.1165  0.1348 -0.1803
 8567W        W21981  16.621  14.144  12.103  0.0936 -0.1907  0.0746
 8568W        W21982  14.597   8.894  14.327  0.1471 -0.3100  0.2599
 8569W        W21983   0.766   0.186  12.992  0.1321 -0.2271  0.0801
 8570W        W21984  10.687   2.788   2.967 -0.1647  0.0372 -0.0005
 8571W        W21985  13.507  16.105  15.616  0.0408 -0.1927  0.1356
 8572W        W21986   5.909   5.420   0.971 -0.3868  0.2737 -0.1599
 8573W        W21987   5.541  16.810  13.216 -0.0469  0.1293  0.2488
 8574W        W21988   5.587   1.785  10.113 -0.2030 -0.1402  0.0561
 8575W        W21989   1.911  14.026  15.361  0.1962  0.2303  0.0815
 8576W        W21990  13.736   3.540   5.705  0.1171 -0.1331 -0.1823
 8577W        W21991  16.670  14.114  16.068 -0.2058  0.0700  0.0510
 8578W        W21992  12.013  16.572   5.510  0.3279 -0.0389  0.1084
 8579W        W21993   4.800   1.852   3.112  0.0520 -0.1447  0.1007
 8580W        W21994   4.026  12.425  12.229  0.1119 -0.2271  0.1216
 8581W        W21995   6.053  18.271   5.191 -0.0577 -0.0408 -0.0080
 8582W        W21996   0.048  11.740  13.334  0.1194 -0.0321 -0.0283
 8583W        W21997   5.150  16.855   5.599 -0.0810  0.2696 -0.0003
 8584W        W21998  16.207  12.812   4.538  0.0188 -0.0143 -0.0832
 8585W        W21999  12.793   1.210  15.203  0.4396  0.0345 -0.1094
 8586W        W22000   8.305   7.071   1.923 -0.1217  0.0162 -0.2094
 8587W        W22001   0.493   5.467  14.119 -0.0402 -0.0185 -0.0339
 8588W        W22002  16.060   3.094   2.658  0.0247  0.1256  0.1157
 8589W        W22003  16.205   8.445  16.241 -0.0575 -0.0148 -0.0952
 8590W        W22004   4.109  10.508  16.034 -0.0160  0.1184  0.1375
 8591W        W22005  13.155  17.381   1.151 -0.2865 -0.0697  0.0192
 8592W        W22006  13.892   6.086   0.285  0.0218  0.3081  0.2065
 8593W        W22007   9.624  10.645  14.324  0.1204 -0.0202 -0.4348
 8594W        W22008  13.269  10.792  12.284  0.1757  0.1915  0.4401
 8595W        W22009   0.653   2.824   1.169  0.0581 -0.3766 -0.3135
 8596W        W22010   6.663   6.742  15.429 -0.5197 -0.1022 -0.3122
 8597W        W22011   1.741   6.199   6.336  0.2469  0.3930 -0.2385
 8598W        W22012   2.438  17.533   3.570 -0.0092  0.2575 -0.0661
 8599W        W22013   7.955  10.691   2.223  0.0530 -0.2195  0.0986
 8600W        W22014   0.807   1.873  16.034  0.3071  0.0015  0.1686
 8601W        W22015  16.487   9.075  11.337 -0.2644  0.0844  0.2166
 8602W        W22016  14.945   2.001   5.123  0.1214 -0.1407  0.0302
 8603W        W22017   1.435  18.385  12.398  0.1558  0.1842 -0.0186
 8604W        W22018  14.741  10.437  12.604  0.4851  0.3968  0.1263
 8605W        W22019   0.798   3.391  11.680  0.0597 -0.2324  0.4715
 8606W        W22020  13.886   5.765   1.142 -0.2015  0.3991 -0.0680
 8607W        W22021  13.703   8.139  15.032 -0.0736  0.0863 -0.0819
 8608W        W22022  10.229   4.720   0.568  0.0158  0.0100  0.1025
 8609W        W22023  16.708   4.934   4.074 -0.1195 -0.0994  0.0932
 8610W        W22024   2.732   8.014   0.112  0.2011 -0.0337 -0.3801
 8611W        W22025  13.609  13.260   5.266 -0.0241  0.0234  0.0796
 8612W        W22026  13.473  10.292   5.185 -0.0172 -0.1492 -0.2773
 8613W        W22027   0.075   9.756   5.192  0.0874 -0.1487  0.0069
 8614W        W22028  15.488  17.815  12.391 -0.1250 -0.1727 -0.1233
 8615W        W22029   5.948   9.811   2.127  0.0559 -0.3397  0.2920
 8616W        W22030  12.100  15.883  14.732 -0.1159 -0.0307  0.0435
 8617W        W22031  12.541   2.486  11.529 -0.2351  0.4698 -0.1108
 8618W        W22032   4.357   6.530   5.193  0.1571  0.2396 -0.0338
 8619W        W22033  15.274  16.307   1.223 -0.1142 -0.0719 -0.2986
 8620W        W22034   2.241   3.019   3.634 -0.3703  0.4226 -0.4927
 8621W        W22035   8.449   5.965   3.606  0.1310 -0.0716  0.1732
 8622W        W22036  12.067  16.829   4.866 -0.1358  0.2343 -0.3170
 8623W        W22037  15.307   5.843  15.952 -0.1376 -0.1300 -0.0752
 8624W        W22038  12.956   6.806   5.639  0.2205  0.1834 -0.2677
 8625W        W22039  17.976   5.930   6.816  0.3854  0.0271 -0.1332
 8626W        W22040  15.017  15.003   4.782  0.0009  0.0454  0.0060
 8627W        W22041   8.771   4.815  12.007  0.1776 -0.2290 -0.2779
 8628W        W22042  10.788  13.081  10.835  0.4603 -0.0213 -0.1113
 8629W        W22043   7.721   3.358   1.994 -0.2199 -0.1926 -0.2367
 8630W        W22044   6.344   1.976   3.509  0.0377 -0.3049 -0.5822
 8631W        W22045  11.569   7.668  12.836 -0.1606 -0.0035  0.0124
 8632W        W22046   7.154   0.608   3.708 -0.1056  0.2090  0.2492
 8633W        W22047   0.791   2.284   1.222 -0.0790 -0.0205 -0.1430
 8634W        W22048   1.427   5.852   1.272 -0.2561 -0.3204 -0.1318
 8635W        W22049   4.051  13.376   2.139  0.2768  0.2567 -0.3606
 8636W        W22050  12.767   0.712   0.404  0.2045 -0.0404 -0.1949
 8637W        W22051   0.613   2.633  12.073 -0.0922 -0.3782 -0.0416
 8638W        W22052  14.834  17.132  13.045  0.1233 -0.2414  0.0433
 8639W        W22053  14.340  16.339  15.061  0.0280  0.4086  0.0837
 8640W        W22054  10.582   9.832   1.652 -0.1890  0.0388  0.0261
 8641W        W22055  18.003   8.726   4.240  0.1851  0.0212 -0.1635
 8642W        W22056   3.552  15.169   4.655  0.1044  0.2134 -0.1332
 8643W        W22057  10.936  16.725  15.189 -0.0891 -0.3017  0.1802
 8644W        W22058  13.035  11.162  14.695  0.1835  0.1948  0.2392
 8645W        W22059   8.784   9.689  13.804  0.3883 -0.3836  0.0730
 8646W        W22060   6.001  14.264   3.539 -0.1130  0.0041 -0.2137
 8647W        W22061   8.097   0.833  10.642 -0.2914  0.3580  0.1098
 8648W        W22062   6.009  11.654  15.495 -0.0589 -0.2357  0.0861
 8649W        W22063  10.775  13.736  11.402 -0.2265  0.0755 -0.0539
 8650W        W22064  15.399   3.067  14.872 -0.0354 -0.0623 -0.3116
 8651W        W22065  17.089   1.797   5.067  0.1668  0.0435  0.2301
 8652W        W22066   0.637  11.358  12.508  0.2138 -0.1559 -0.1239
 8653W        W22067  17.862   1.740   6.052  0.0314 -0.1155 -0.0714
 8654W        W22068  10.906  15.463   5.640 -0.0872 -0.0371  0.1119
 8655W        W22069   6.255  12.936   2.197  0.2887 -0.3221 -0.0239
 8656W        W22070   3.233  17.723   2.878  0.0201 -0.2420  0.1611
 8657W        W22071  12.154  17.624  11.644 -0.1115  0.1975  0.0341
 8658W        W22072  14.255  14.248  12.138 -0.0427 -0.3851  0.2912
 8659W        W22073  16.979  18.301   4.567 -0.1284  0.0603 -0.1116
 8660W        W22074   1.606   8.533   1.301 -0.0546  0.2633 -0.1556
 8661W        W22075  13.910   7.384  11.649 -0.1462  0.1027  0.1082
 8662W        W22076   1.555   7.637  13.516  0.0744  0.3053 -0.2510
 8663W        W22077  12.784   8.102  14.101  0.0723  0.2526  0.0329
 8664W        W22078   7.699  10.040  15.184 -0.1731  0.2700  0.3011
 8665W        W22079   1.071   0.568   2.505 -0.0598  0.0615 -0.0911
 8666W        W22080   4.457  17.806  14.658  0.0267  0.1646 -0.2344
 8667W        W22081  10.738   9.235   6.176 -0.0445 -0.2828 -0.4181
 8668W        W22082  11.430   9.146   1.195  0.2254  0.0852 -0.1508
 8669W        W22083  14.334   8.098   5.082  0.1809 -0.2279  0.3010
 8670W        W22084   0.859  11.678   1.984  0.0298 -0.0704 -0.3340
 8671W        W22085   0.201   2.281   1.731  0.0680 -0.1383  0.1984
 8672W        W22086   7.320   4.635   4.490 -0.0195  0.2095 -0.3191
 8673W        W22087  16.789   9.815  12.035  0.2423 -0.0901 -0.0401
 8674W        W22088  10.706   2.144  10.325 -0.1919  0.1694  0.1254
 8675W        W22089  16.550   5.607  15.661  0.1492  0.0325 -0.0864
 8676W        W22090  15.616   8.274  10.478 -0.1239 -0.1371  0.0368
 8677W        W22091   1.334   3.346   1.409  0.1252 -0.0677  0.0287
 8678W        W22092   7.339   2.956   2.617 -0.0988  0.0214  0.0652
 8679W        W22093  17.425   7.416   4.914  0.1611  0.0412  0.0329
 8680W        W22094  17.234   4.741   5.603  0.2768 -0.2048  0.0084
 8681W        W22095  10.937   7.531  11.594  0.2856  0.0260  0.2665
 8682W        W22096   2.136  11.796  12.485  0.0330 -0.1676  0.0180
 8683W        W22097   2.330   6.082   3.724  0.0204 -0.1878 -0.0668
 8684W        W22098   3.694  11.075  13.388  0.0155  0.0241 -0.2176
 8685W        W22099   5.295   6.180   0.769  0.1069 -0.2702 -0.1881
 8686W        W22100  17.647   4.652   2.360  0.0654  0.0941 -0.1450
 8687W        W22101  16.385  13.371  15.625  0.0030  0.0793  0.1394
 8688W        W22102   8.346   5.198  12.529 -0.0374 -0.1541  0.3729
 8689W        W22103   0.938  17.669   4.162  0.0188  0.0551 -0.0010
 8690W        W22104  17.591   1.466  10.463 -0.2401  0.0498  0.2207
 8691W        W22105  16.556   8.045   1.477 -0.0373 -0.0627  0.3557
 8692W        W22106   0.975   6.485   3.064 -0.1590 -0.1811 -0.1482
 8693W        W22107  16.181   0.664   0.175  0.1868 -0.1593  0.0840
 8694W        W22108   6.177  16.126   5.666 -0.1089  0.0938 -0.0780
 8695W        W22109   7.651  13.949   3.975  0.0062 -0.0631 -0.0953
 8696W        W22110  14.265   6.608   2.383 -0.4828 -0.1157  0.4374
 8697W        W22111  11.432   4.519  14.927 -0.0160 -0.2472 -0.0041
 8698W        W22112   8.910   9.089  11.148  0.0262 -0.2400 -0.1324
 8699W        W22113   9.810   4.356   1.212 -0.4046  0.0822 -0.0040
 8700W        W22114   5.564  13.551   5.009  0.1191 -0.0556 -0.1160
 8701W        W22115  13.886   5.494   3.959 -0.1853 -0.2657  0.1141
 8702W        W22116   9.032  11.335   2.057  0.0928 -0.1904  0.1037
 8703W        W22117  14.712   1.159  12.567  0.1270  0.0927  0.1215
 8704W        W22118  11.879   7.545  11.687  0.4846  0.0268  0.1517
 8705W        W22119  11.735  16.850  10.343  0.0762  0.1997 -0.3037
 8706W        W22120  13.535  15.998   3.661 -0.2665 -0.1570  0.2436
 8707W        W22121   7.432  12.420   4.491  0.1842 -0.4560 -0.0574
 8708W        W22122   3.475   8.241   1.380  0.1020  0.3131 -0.0523
 8709W        W22123   5.516  11.975   0.873 -0.1033 -0.6118 -0.0152
 8710W        W22124  10.586   3.592  11.072 -0.1512 -0.3965 -0.3063
 8711W        W22125  16.258  18.152   3.598  0.2030  0.0640  0.1799
 8712W        W22126  16.019  16.420   0.588  0.2630 -0.0243  0.0784
 8713W        W22127   9.891   4.895  13.378 -0.1309 -0.2483 -0.1154
 8714W        W22128   8.528   8.908   2.672 -0.2561 -0.2144 -0.0605
 8715W        W22129   2.583  13.333  12.409  0.0105  0.0105  0.0793
 8716W        W22130   7.982   4.086  12.214 -0.0735  0.0099  0.1049
 8717W        W22131  15.125   5.039   4.525  0.0868  0.0915  0.5398
 8718W        W22132  13.596   6.138   2.309  0.0977 -0.0400 -0.0457
 8719W        W22133  10.936  11.317   2.335  0.0152  0.1785 -0.0047
 8720W        W22134  11.556   4.052  13.333  0.1891  0.0290  0.0089
 8721W        W22135  10.778   7.799   3.116 -0.0671 -0.1984 -0.1162
 8722W        W22136   6.910   0.358  10.744 -0.1040  0.0218  0.1866
 8723W        W22137   0.095  12.168   3.727  0.0151  0.0899 -0.0222
 8724W        W22138   4.422  17.490  15.649 -0.0852 -0.1254 -0.2932
 8725W        W22139  16.226  14.207  13.839  0.0701 -0.0726  0.2050
 8726W        W22140   6.952   0.214   2.905  0.1655  0.2707  0.0509
 8727W        W22141  11.214  15.196  15.057 -0.1580 -0.4388  0.2358
 8728W        W22142   1.450  16.656   4.014  0.1669  0.2458 -0.0277
 8729W        W22143   9.856   1.874   3.155 -0.1562  0.0439  0.1822
 8730W        W22144   7.630   4.982   2.145 -0.0102  0.0853  0.1116
 8731W        W22145  15.846   7.376  14.571 -0.3238  0.1002  0.3191
 8732W        W22146  17.073  14.340   2.565  0.5169  0.2052 -0.2857
 8733W        W22147  14.709   1.734   0.992  0.3381 -0.3685 -0.1836
 8734W        W22148   9.979   3.371  10.189  0.2263 -0.0131  0.0899
 8735W        W22149  11.766  10.442  12.947  0.0448 -0.2303 -0.1517
 8736W        W22150   8.477   0.109   6.382 -0.2219 -0.0156 -0.4649
 8737W        W22151   5.153  18.288  11.993 -0.3808 -0.0074  0.0745
 8738W        W22152  15.264  17.806  10.848 -0.2605 -0.0323 -0.0694
 8739W        W22153   8.661   0.334  13.975 -0.0281  0.1591 -0.1237
 8740W        W22154   2.502   0.835   0.133  0.2032 -0.1180  0.0901
 8741W        W22155   1.176  10.985   3.121  0.1129  0.4778 -0.0288
 8742W        W22156   1.692   0.278  16.013  0.1205  0.2367  0.3244
 8743W        W22157   9.700  12.479   1.838  0.2663 -0.0277  0.0789
 8744W        W22158  15.192   6.239   2.290 -0.0588 -0.2416  0.0616
 8745W        W22159  11.237  16.310   5.418 -0.1201 -0.2025  0.2118
 8746W        W22160   7.188   3.430  15.010 -0.0754  0.1552 -0.1029
 8747W        W22161  14.903  14.220   1.126  0.2850 -0.0153 -0.1281
 8748W        W22162   4.862  15.862   5.242 -0.2111  0.1204 -0.1643
 8749W        W22163   3.011  18.436  13.926 -0.0858 -0.0353 -0.0454
 8750W        W22164   9.934   9.928  15.936 -0.1836  0.0642 -0.2318
 8751W        W22165   9.649   5.409  14.372  0.2664  0.0610  0.4135
 8752W        W22166   5.513   2.567  14.630  0.0679  0.1774  0.0302
 8753W        W22167  10.579  14.123  14.500  0.0176 -0.2032 -0.0322
 8754W        W22168   5.506   6.908   5.045 -0.0970  0.1228  0.2852
 8755W        W22169  17.401   7.147   2.320 -0.2414 -0.1208 -0.2015
 8756W        W22170   9.243   6.047   4.201 -0.1185  0.2657 -0.1905
 8757W        W22171   2.781   3.914  12.068 -0.2691  0.1245 -0.1539
 8758W        W22172  16.308   7.239  12.194  0.5701  0.1629 -0.0800
 8759W        W22173   7.479  16.494  14.702  0.0311 -0.1727  0.1296
 8760W        W22174  16.817  11.792  15.361  0.0525 -0.1567 -0.0798
 8761W        W22175   8.039   8.089   2.029  0.0969 -0.0884  0.2824
 8762W        W22176   6.424   5.832   0.958  0.2016 -0.1361  0.0227
 8763W        W22177  12.493   3.887  12.293  0.1732  0.2082 -0.1072
 8764W        W22178   2.925   5.288  11.642  0.1295 -0.3144 -0.1229
 8765W        W22179   8.351  17.115   2.577  0.1572  0.2274  0.1953
 8766W        W22180  17.554   9.748  10.097 -0.0455 -0.0499 -0.1564
 8767W        W22181   5.447   6.919   3.878  0.2569 -0.0864 -0.0655
 8768W        W22182   6.575   9.993   1.604  0.0565  0.0084  0.3197
 8769W        W22183  12.987   5.803   0.302 -0.0095 -0.0143  0.0742
 8770W        W22184  11.402  17.467   4.802 -0.1434  0.1863  0.1560
 8771W        W22185  13.876  14.354  16.019 -0.1240 -0.0187  0.2109
 8772W        W22186  13.966   2.146   0.814 -0.0044 -0.3304  0.0515
 8773W        W22187   1.394  14.713   2.896  0.2613 -0.1156 -0.0394
 8774W        W22188  11.359  16.395   1.422  0.0555  0.0416 -0.2804
 8775W        W22189   5.220   6.250   5.574 -0.0458  0.0463  0.1864
 8776W        W22190   2.237  16.383   2.162  0.3701  0.1271  0.0883
 8777W        W22191   0.261   6.035   6.526  0.0646 -0.1111  0.3498
 8778W        W22192  14.953  13.276   0.204  0.0193  0.1833  0.1775
 8779W        W22193   0.761   1.267   2.425  0.1751  0.0448  0.0621
 8780W        W22194   3.813  18.165   2.764 -0.1164 -0.2108 -0.1317
 8781W        W22195  16.024   4.385  15.934 -0.2154  0.0677  0.1018
 8782W        W22196  17.111  11.544  13.816  0.0068 -0.0713  0.4892
 8783W        W22197   1.389  15.626  15.828 -0.0852 -0.0427  0.0314
 8784W        W22198   6.480   8.483  13.778  0.1569 -0.1392  0.0209
 8785W        W22199   9.880   6.189  15.021  0.0433 -0.0840 -0.0342
 8786W        W22200  17.262  13.054   9.872 -0.0339  0.1340 -0.0520
 8787W        W22201   9.415   8.250   5.187  0.0002  0.1488  0.1313
 8788W        W22202  14.295   1.662   0.374 -0.0991  0.0092 -0.0584
 8789W        W22203  17.375   5.685   5.404  0.2791  0.1974 -0.0153
 8790W        W22204  17.865  17.022   3.023 -0.2994 -0.1010  0.1278
 8791W        W22205   4.228  12.711   4.920 -0.1728 -0.1237 -0.1524
 8792W        W22206  14.763   7.276  10.983 -0.1525  0.3834 -0.3846
 8793W        W22207   8.263  13.552   6.104  0.1197 -0.3205  0.0836
 8794W        W22208   5.430   5.072   4.734  0.0378  0.1795 -0.0374
 8795W        W22209   8.080   9.362   0.172  0.4007  0.0083 -0.1497
 8796W        W22210  10.488  16.128   4.532 -0.2358 -0.1702  0.0553
 8797W        W22211  16.142   1.346   0.719 -0.3185 -0.0548 -0.2856
 8798W        W22212   0.984  18.434   3.191  0.0738 -0.0078  0.0697
 8799W        W22213   8.879  13.414  14.587  0.0421 -0.1095 -0.1776
 8800W        W22214   8.771  12.605  12.840 -0.2058  0.0899  0.0955
 8801W        W22215   8.788  11.684   2.811 -0.1098  0.0369  0.4761
 8802W        W22216  16.156   6.513  14.925 -0.1313 -0.2397 -0.1791
 8803W        W22217   6.704   6.868  15.911 -0.2471  0.0140  0.1953
 8804W        W22218   6.833   6.690  12.574 -0.0359 -0.1564  0.1399
 8805W        W22219   0.095   0.666  11.363  0.1578  0.1382  0.1987
 8806W        W22220  11.817   0.076   2.520  0.1628  0.2978  0.1814
 8807W        W22221   6.940   4.892   1.621  0.0668  0.0903  0.4028
 8808W        W22222   3.245  16.888   1.905  0.2769  0.3686 -0.2961
 8809W        W22223   4.425  16.486   1.966 -0.0222  0.0909 -0.1558
 8810W        W22224  10.415   7.330   4.048 -0.0938  0.0895 -0.0454
 8811W        W22225  17.256  17.194  14.350  0.1843  0.3056 -0.0280
 8812W        W22226  18.143  15.038   4.189 -0.0873  0.2539  0.4163
 8813W        W22227  15.645   1.735  15.826  0.1408  0.1249 -0.0851
 8814W        W22228  14.557  15.140   1.465  0.1055 -0.0925  0.0803
 8815W        W22229  15.926  12.760   5.625  0.1646 -0.0426 -0.2196
 8816W        W22230  16.550  14.670   9.798  0.2478 -0.1296  0.2294
 8817W        W22231   2.283   7.320  14.143  0.2521  0.1326  0.0261
 8818W        W22232  10.851  10.482  13.174 -0.2447 -0.0181 -0.3127
 8819W        W22233  16.057  17.788  16.155  0.1323  0.3574 -0.0889
 8820W        W22234  12.075   8.000  12.059  0.1440  0.1793  0.1898
 8821W        W22235   3.957   0.622  13.412 -0.1876 -0.0634  0.0740
 8822W        W22236  17.010  13.964   3.009 -0.0805 -0.0561  0.1861
 8823W        W22237   2.091   3.532   2.374  0.0624 -0.3687 -0.0088
 8824W        W22238  14.209  13.002   3.775 -0.3186  0.2148  0.1749
 8825W        W22239  13.269  18.401  11.179 -0.0464 -0.0587  0.0230
 8826W        W22240  11.054   6.696  11.763  0.0147  0.1143  0.0500
 8827W        W22241   1.693  12.129  13.209  0.1774 -0.0682 -0.1733
 8828W        W22242   1.287  16.670   4.545 -0.1561 -0.0594  0.0550
 8829W        W22243   7.985  11.157  11.104 -0.1248 -0.1110  0.1046
 8830W        W22244   5.045  10.563   5.297 -0.2092 -0.1619 -0.2556
 8831W        W22245  16.049  15.930  15.615  0.2208  0.1492 -0.0657
 8832W        W22246   1.501   7.535   2.087 -0.2242  0.3054  0.0219
 8833W        W22247   1.175   7.320  15.082  0.0602 -0.1955  0.0437
 8834W        W22248  17.680   7.007  12.611 -0.1878 -0.1046  0.2473
 8835W        W22249  14.250  18.144   4.805 -0.1266  0.1647  0.0232
 8836W        W22250  14.158  11.840   2.711  0.3586  0.0346 -0.0114
 8837W        W22251  10.647  13.894   4.699 -0.3982 -0.1983 -0.2372
 8838W        W22252   9.742   1.124   0.766 -0.0163 -0.5348  0.0322
 8839W        W22253   6.548   7.843  11.200  0.0758 -0.1568  0.0865
 8840W        W22254  14.849  16.444   0.157 -0.3362 -0.2380 -0.0971
 8841W        W22255   2.090   5.279  12.884  0.0825  0.0044 -0.1332
 8842W        W22256  11.635  15.677  13.098 -0.0891  0.1258  0.3243
 8843W        W22257  12.664   4.260  11.633  0.1326 -0.0468 -0.0516
 8844W        W22258  16.496  12.291  10.631  0.0690  0.0041  0.3274
 8845W        W22259  18.218  18.253   1.661  0.3328  0.0896 -0.1657
 8846W        W22260   1.568  16.753  11.950 -0.2040  0.0309 -0.0201
 8847W        W22261   1.625   4.739   3.212 -0.1102  0.2868 -0.1673
 8848W        W22262  16.214  13.347  13.489 -0.2402 -0.3110 -0.0982
 8849W        W22263  14.323  13.597  15.976 -0.1948  0.1301 -0.0152
 8850W        W22264   1.398   5.631   3.533 -0.0069 -0.0166 -0.1129
 8851W        W22265   5.154   9.421   5.967 -0.1081  0.1816  0.1853
 8852W        W22266  12.305   9.548   3.886  0.1110 -0.1117  0.0070
 8853W        W22267   9.019  18.294  12.164  0.0192  0.1536  0.1847
 8854W        W22268   3.774   8.470  15.913 -0.0021 -0.2311 -0.0443
 8855W        W22269   3.240  12.539  14.364  0.1277  0.2350  0.0733
 8856W        W22270   7.845  15.556   4.721 -0.1707  0.2062  0.0005
 8857W        W22271  17.269   9.542   0.973  0.1526 -0.3154 -0.1681
 8858W        W22272   0.385   7.672   6.052  0.2748  0.1131 -0.0283
 8859W        W22273  11.871  14.594  15.284  0.3094  0.0820 -0.1103
 8860W        W22274   2.620  18.421   3.432 -0.0119 -0.2993  0.0384
 8861W        W22275  11.711  15.469  11.552  0.0427 -0.1775  0.1986
 8862W        W22276   1.445  15.613   1.983 -0.2999 -0.2571 -0.1605
 8863W        W22277   1.057   0.354  11.293 -0.0935  0.0629 -0.0573
 8864W        W22278   6.099  17.809   4.958 -0.1804 -0.1579 -0.1126
 8865W        W22279   3.860   4.942  10.718  0.1917  0.0439 -0.1390
 8866W        W22280   9.474   1.727   0.176  0.0990 -0.0257  0.2265
 8867W        W22281  15.439  12.364   5.664  0.2678 -0.0141 -0.2445
 8868W        W22282  16.164  10.860  14.896  0.0430  0.2421  0.1331
 8869W        W22283   6.811  17.825  12.362  0.0092 -0.1492 -0.1922
 8870W        W22284   9.274   7.992  16.117 -0.0328 -0.2312 -0.0292
 8871W        W22285  14.180   9.108  13.482  0.3176 -0.0418 -0.1268
 8872W        W22286  15.741   9.405   5.591  0.5270  0.1226 -0.2728
 8873W        W22287  12.574  14.212   5.364 -0.2172 -0.2157 -0.2318
 8874W        W22288   7.021  10.351  10.537  0.2062  0.0461  0.0512
 8875W        W22289  14.069   7.176   3.050 -0.2307 -0.0674  0.0736
 8876W        W22290   6.085  17.999  14.843  0.1034  0.1895 -0.3022
 8877W        W22291   1.917   3.764  15.746 -0.1567 -0.0900  0.4887
 8878W        W22292   8.657   6.186   5.410 -0.0166 -0.0093 -0.2422
 8879W        W22293   6.465  10.412  11.098  0.0336  0.1742  0.0625
 8880W        W22294   5.645   1.053   5.950  0.1500 -0.3554  0.0127
 8881W        W22295   6.120  15.754  12.215 -0.1214  0.0320  0.1035
 8882W        W22296  15.775  14.643   0.163 -0.0163  0.2360 -0.0207
 8883W        W22297  13.115  12.891  16.079 -0.0747 -0.1147 -0.0332
 8884W        W22298   1.487   5.189  15.731 -0.1233  0.0496  0.1295
 8885W        W22299   9.184   2.358  10.458 -0.1038 -0.3190 -0.0122
 8886W        W22300  15.485  14.856   4.609 -0.0842  0.0122 -0.0731
 8887W        W22301  11.965   0.095  10.519 -0.2480 -0.3635 -0.0406
 8888W        W22302   3.873  18.199   2.232  0.0801  0.0245 -0.2428
 8889W        W22303  14.175  17.044  11.883  0.1546  0.0713  0.2239
 8890W        W22304   7.517  16.401  15.606  0.3482 -0.1088 -0.1789
 8891W        W22305   3.158   3.664  11.673 -0.3124  0.1723  0.3941
 8892W        W22306  17.496   6.879   4.706  0.0209 -0.0433  0.0532
 8893W        W22307  14.724   2.890  12.232  0.0607 -0.1575  0.0571
 8894W        W22308   5.893   0.322   2.448 -0.3690  0.0936 -0.0952
 8895W        W22309   6.562  11.059   0.398  0.0488  0.0366 -0.2242
 8896W        W22310   8.448  17.876   4.605  0.1754 -0.1888 -0.0130
 8897W        W22311  15.573  15.848   3.024 -0.1302 -0.0045 -0.2305
 8898W        W22312  10.127  14.615   5.173  0.0569 -0.0597  0.1510
 8899W        W22313  15.105  16.792   1.021 -0.1256 -0.0308 -0.2754
 8900W        W22314   6.765   0.543  11.291  0.1715 -0.2152 -0.1324
 8901W        W22315  11.245  11.860   6.384  0.0272 -0.2143 -0.0338
 8902W        W22316   7.103   1.558   4.906 -0.0912  0.1319  0.0838
 8903W        W22317  13.755   6.593   6.036  0.0589 -0.0043  0.0277
 8904W        W22318   9.657   4.647   3.058 -0.0547  0.1728 -0.1494
 8905W        W22319   5.356   6.722   4.511 -0.0183  0.0799 -0.1273
 8906W        W22320   8.531  13.712   5.675 -0.0889  0.0783 -0.1461
 8907W        W22321   6.891   3.936   1.606  0.0202  0.4207 -0.1584
 8908W        W22322  16.533  15.228  14.707  0.0163  0.2058  0.1727
 8909W        W22323   8.046   8.277  16.052 -0.1067  0.0205 -0.0643
 8910W        W22324   0.030   3.433  11.007 -0.3109 -0.4736 -0.0108
 8911W        W22325  15.555   3.868  12.031  0.2342 -0.0883  0.0351
 8912W        W22326  13.159  12.849  12.132  0.1180 -0.0190  0.1072
 8913W        W22327   7.030  14.151   0.633 -0.1417 -0.0848  0.1055
 8914W        W22328  14.161  16.899  13.952 -0.1727  0.0930  0.4403
 8915W        W22329  10.008  13.223  14.114  0.0197 -0.1295  0.0561
 8916W        W22330   8.634   6.698  15.950  0.2409 -0.0120  0.0361
 8917W        W22331   3.406   0.346  16.094 -0.0415  0.0961 -0.3134
 8918W        W22332   5.150   8.912  10.864  0.2599 -0.0285 -0.1026
 8919W        W22333   7.581  17.722  13.331  0.0320 -0.1765  0.0309
 8920W        W22334  13.820  18.244   1.945 -0.0691 -0.2280 -0.2869
 8921W        W22335  10.414  14.783   0.337  0.0777  0.0489 -0.3346
 8922W        W22336  10.299   7.922  15.757 -0.1526  0.1036 -0.1842
 8923W        W22337  17.711   3.570   0.802  0.2881  0.0156  0.1859
 8924W        W22338   4.664  13.156  11.428 -0.2401  0.0563 -0.0573
 8925W        W22339   3.260   1.152   1.728 -0.2161  0.3162  0.2087
 8926W        W22340  16.962   8.021   6.208  0.3028 -0.1246 -0.0611
 8927W        W22341   2.961   1.551   3.840 -0.1552 -0.0914  0.2479
 8928W        W22342   4.743  13.807  13.216  0.3146  0.0458  0.1760
 8929W        W22343  15.866  14.602   3.991  0.0768  0.0259 -0.1090
 8930W        W22344   1.195   3.023  10.736  0.1048 -0.1906 -0.1207
 8931W        W22345   2.805  15.742  15.079  0.0893  0.2051 -0.3261
 8932W        W22346  17.863   5.075  15.741  0.1456  0.2640 -0.1244
 8933W        W22347   0.148   7.120   4.195  0.2061 -0.0796  0.0966
 8934W        W22348   4.665   3.521   2.139  0.0965 -0.2650  0.0349
 8935W        W22349  14.402   9.917  11.302  0.4032  0.0384  0.1145
 8936W        W22350  13.467  12.625  12.457 -0.0226  0.3104  0.1202
 8937W        W22351  11.117   6.202   4.493  0.1091 -0.2038  0.1246
 8938W        W22352  17.160  12.457  10.672  0.4627 -0.0350 -0.2785
 8939W        W22353  14.597   8.555  10.904  0.3928  0.0832 -0.0280
 8940W        W22354   9.768  13.051  13.622 -0.1067  0.2580 -0.2703
 8941W        W22355   1.822  16.365  12.728  0.0860 -0.0655  0.1487
 8942W        W22356  14.297   6.693   4.648 -0.1378 -0.3061  0.2087
 8943W        W22357  11.419  17.536   0.263  0.1435 -0.1949 -0.0161
 8944W        W22358   0.747   3.055  13.197 -0.0815 -0.0525 -0.3167
 8945W        W22359  16.275  10.172   5.775 -0.0444 -0.0133  0.0497
 8946W        W22360   5.414   9.670   3.809 -0.0814 -0.1180  0.2902
 8947W        W22361   9.380   3.887  13.051  0.1755 -0.2801 -0.1539
 8948W        W22362   9.229   8.928  14.627  0.2909 -0.0603  0.0935
 8949W        W22363  11.130  15.056  13.904  0.2467  0.1233 -0.0036
 8950W        W22364  12.063   5.488   4.706  0.0664 -0.1142  0.1471
 8951W        W22365   7.462  14.779   4.289  0.0224  0.1179 -0.0532
 8952W        W22366  17.369  12.038  14.459 -0.0365  0.3737 -0.0320
 8953W        W22367  14.220  11.626   0.844 -0.1535  0.0143  0.0880
 8954W        W22368   7.546  15.503  11.555  0.3874  0.1629  0.0474
 8955W        W22369   5.453   3.114   4.477 -0.0952 -0.0070 -0.0422
 8956W        W22370  12.854  17.745  12.498  0.1783  0.0600 -0.2107
 8957W        W22371   2.050  12.814   4.830 -0.0811 -0.0155 -0.0067
 8958W        W22372   3.630   9.055   3.239 -0.2976 -0.1452 -0.0336
 8959W        W22373   6.745  17.964   1.347 -0.0336  0.2461  0.3505
 8960W        W22374  16.920  16.452  12.624  0.0010  0.0499  0.1504
 8961W        W22375   1.802   5.698  14.438  0.1797 -0.3415  0.1731
 8962W        W22376  15.234   1.249  15.386 -0.0533 -0.0166  0.3015
 8963W        W22377  12.196  17.968  11.249  0.2816 -0.3465 -0.2870
 8964W        W22378  11.730   6.834   1.668 -0.2569  0.0842  0.0032
 8965W        W22379  12.484  17.800  12.129  0.1377 -0.0841  0.1178
 8966W        W22380  13.731   9.882  14.131 -0.1042 -0.1986  0.0390
 8967W        W22381   8.065   6.433  15.478  0.0530  0.0488  0.0429
 8968W        W22382   6.580   4.932   2.832  0.1952  0.1659 -0.0391
 8969W        W22383  14.471   9.984   1.965 -0.1120  0.1371  0.1066
 8970W        W22384   3.704   9.127  12.903 -0.2380 -0.3015 -0.1173
 8971W        W22385   0.800   5.329   2.904  0.1265 -0.1675  0.0534
 8972W        W22386   8.689   1.465   5.703  0.3145 -0.0152  0.2223
 8973W        W22387  16.654   1.480  16.099  0.0538  0.0447  0.1776
 8974W        W22388   2.789  13.313   2.592  0.0480 -0.1128 -0.1851
 8975W        W22389  18.105  14.288   3.673  0.3642  0.0745  0.2625
 8976W        W22390  11.838  14.445   2.432 -0.1934  0.0076 -0.2522
 8977W        W22391   5.239   2.073   0.365 -0.3798  0.0862 -0.1138
 8978W        W22392   7.317  13.289   0.602 -0.2794  0.4175  0.0132
 8979W        W22393  14.705  17.333   3.892  0.2049 -0.0325 -0.0349
 8980W        W22394   3.418   9.381  15.481 -0.2456 -0.0027 -0.0978
 8981W        W22395  17.727   1.388   1.560 -0.1332  0.0578 -0.4233
 8982W        W22396   2.809   8.782   1.573 -0.1760  0.1135 -0.1400
 8983W        W22397  16.937   8.618   3.245 -0.1647 -0.0339 -0.0666
 8984W        W22398  10.605  10.382  13.595 -0.0493  0.2782  0.2056
 8985W        W22399   8.417   9.157  13.521  0.0541 -0.2388  0.0352
 8986W        W22400  12.225   9.678   5.114 -0.1459  0.0457  0.1921
 8987W        W22401  16.463   2.800   2.541  0.1606 -0.0963  0.1227
 8988W        W22402   6.510  13.499   0.006 -0.0240  0.0437  0.0545
 8989W        W22403  14.626   3.360  13.418  0.2191  0.2697  0.2590
 8990W        W22404   8.579   0.357  12.919  0.2783 -0.3003  0.2724
 8991W        W22405   1.222  12.012   0.633  0.0235  0.1222 -0.0032
 8992W        W22406   0.850  10.973  13.427 -0.0400  0.0989 -0.0143
 8993W        W22407   3.609  13.355  10.499 -0.3905  0.0338 -0.1500
 8994W        W22408  14.179   9.158   0.699  0.0790 -0.0244  0.1947
 8995W        W22409  18.371  16.541   0.601  0.0020  0.0485 -0.1803
 8996W        W22410  12.835   4.361  10.489  0.1597  0.0332 -0.0375
 8997W        W22411   3.650  16.360   3.743 -0.1128  0.0652 -0.4022
 8998W        W22412  15.846   4.651   2.997  0.1110 -0.1021 -0.0801
 8999W        W22413  14.889   4.183  14.327  0.1149  0.0186 -0.0628
 9000W        W22414  17.918   9.809  14.911 -0.2164  0.0940  0.1610
 9001W        W22415   0.838  11.696  11.195 -0.0290  0.2055  0.3119
 9002W        W22416  11.856  16.216  12.287 -0.2976 -0.1293  0.1013
 9003W        W22417   5.423  17.184   1.326 -0.0041  0.0940  0.0586
 9004W        W22418  18.206  15.561  15.684  0.0782  0.2316 -0.0043
 9005W        W22419   8.377  13.946   3.787  0.0033  0.1840  0.3073
 9006W        W22420   5.821  14.899  12.113  0.1355 -0.2759 -0.0534
 9007W        W22421   7.582   3.057   3.080  0.0082  0.0760  0.0593
 9008W        W22422  18.119  11.549  15.229  0.1692  0.0902  0.1273
 9009W        W22423   2.547   1.616  12.574  0.1843  0.0902 -0.3733
 9010W        W22424  17.609  11.528   3.115  0.0811  0.0570 -0.0831
 9011W        W22425   7.079  11.832   5.053 -0.1678 -0.0758  0.0976
 9012W        W22426   3.697  11.264  12.384 -0.2845 -0.1454  0.1234
 9013W        W22427   4.949   7.644  15.510  0.1150 -0.2956 -0.1559
 9014W        W22428  15.679   1.968   3.680  0.0395 -0.0285 -0.1727
 9015W        W22429   0.214   0.434   4.209  0.1178  0.0173  0.0443
 9016W        W22430  14.113   7.000  13.178  0.3740  0.0580  0.1569
 9017W        W22431  14.134   2.898  13.777 -0.0218  0.3170 -0.0588
 9018W        W22432   9.061   4.566  12.355  0.1177  0.1474 -0.0426
 9019W        W22433  12.386   5.884   6.092 -0.1196  0.3965 -0.4271
 9020W        W22434   6.249   7.302   1.549 -0.1382 -0.3243 -0.3098
 9021W        W22435  13.005  11.701   4.685  0.0609 -0.1565 -0.0973
 9022W        W22436   1.515   4.521   5.401 -0.0039 -0.1794 -0.1949
 9023W        W22437   1.224  17.543  11.961 -0.1053 -0.0605 -0.0676
 9024W        W22438  12.318   7.813  15.533  0.1586 -0.1839  0.0826
 9025W        W22439   9.181  18.321   4.017  0.3203  0.2142 -0.2572
 9026W        W22440   1.588   8.067   6.553 -0.2990  0.1664  0.2126
 9027W        W22441   9.204   5.037  14.526 -0.0352 -0.1109 -0.0715
 9028W        W22442   9.549   6.852   3.779  0.1308 -0.0022 -0.2766
 9029W        W22443   2.838  16.450   0.339 -0.2569  0.3764  0.0478
 9030W        W22444   0.513  11.347   3.498  0.0409  0.0342 -0.0423
 9031W        W22445   9.084   8.702  11.440 -0.1627 -0.1329  0.2515
 9032W        W22446   1.922  17.256  14.785 -0.0034 -0.2733  0.3181
 9033W        W22447  14.901  16.006  13.620 -0.5594 -0.2565  0.0091
 9034W        W22448   9.181  10.109  14.375  0.0949  0.0702 -0.0389
 9035W        W22449  15.807  18.047  11.549 -0.0559  0.0308 -0.0588
 9036W        W22450   8.745   7.796  13.154 -0.0402  0.0073 -0.2392
 9037W        W22451   7.256  18.215   6.140 -0.0316 -0.0953  0.0664
 9038W        W22452  15.278   3.403  13.265 -0.0144 -0.1792 -0.1044
 9039W        W22453   6.509   2.490  11.154 -0.0556 -0.1818  0.0209
 9040W        W22454  11.975  17.962   1.064  0.0015 -0.3218  0.2927
 9041W        W22455   3.174  18.332   5.806  0.2560  0.1795 -0.2585
 9042W        W22456   7.184  15.659  13.731 -0.1163  0.0525  0.1697
 9043W        W22457  16.947   2.093   1.801  0.3170 -0.1343  0.0961
 9044W        W22458   3.501   2.705   0.124 -0.0578 -0.3459  0.0032
 9045W        W22459   6.211  13.291   2.644 -0.0314  0.1935  0.1318
 9046W        W22460  12.019   3.119   3.156  0.3364 -0.2872  0.1023
 9047W        W22461  13.433  13.783   5.519  0.0284 -0.1192 -0.1022
 9048W        W22462  17.476   9.159   1.534  0.3233 -0.5085  0.0182
 9049W        W22463  12.014   0.947   0.126  0.1276 -0.0663  0.0288
 9050W        W22464  14.697  16.267  13.068 -0.1278 -0.1588 -0.1072
 9051W        W22465   4.075   4.236   1.103 -0.1041  0.2460 -0.1235
 9052W        W22466   3.004   0.214   5.010  0.0027 -0.0992 -0.3545
 9053W        W22467  14.910  14.185  15.048  0.1417 -0.0621  0.0926
 9054W        W22468  12.325  16.749  13.041  0.2377 -0.0779 -0.1411
 9055W        W22469   6.985  15.722  14.179  0.1734 -0.1698  0.0541
 9056W        W22470  13.709   5.765   4.315 -0.0303 -0.1490 -0.2937
 9057W        W22471   5.675  14.218  15.785 -0.3455 -0.1914 -0.1561
 9058W        W22472   5.164  11.673  10.180  0.2165 -0.3019 -0.0441
 9059W        W22473  14.601   3.983   6.166  0.4000  0.0972 -0.1294
 9060W        W22474  15.739  16.043  12.623  0.2791 -0.1861 -0.0574
 9061W        W22475   9.152  17.186  11.541 -0.1545 -0.0884  0.0759
 9062W        W22476  13.002   6.858   0.078 -0.2051  0.1649 -0.0705
 9063W        W22477   3.413   0.658  11.775 -0.0539  0.1010 -0.0909
 9064W        W22478  14.495   0.061  15.882  0.1244  0.2521 -0.0250
 9065W        W22479   8.531  14.972   9.612 -0.2454 -0.3684 -0.1054
 9066W        W22480  14.225  12.457  13.413  0.0030  0.0869  0.0109
 9067W        W22481   8.185   4.206  15.991  0.3671 -0.2873 -0.1161
 9068W        W22482  10.143   0.030  15.488 -0.1480  0.2311  0.1788
 9069W        W22483  17.537  16.845   0.579  0.2338 -0.0770 -0.1544
 9070W        W22484  12.930  11.846  12.297  0.2396 -0.0372  0.0134
 9071W        W22485  15.421  15.930  11.892 -0.0843  0.0386 -0.1021
 9072W        W22486   4.978   0.930   0.920  0.1082 -0.1695 -0.0660
 9073W        W22487  10.234   1.657  12.183 -0.1108 -0.0303 -0.2750
 9074W        W22488  16.456  13.675  10.847  0.1051 -0.0398  0.2574
 9075W        W22489   9.552   4.294   0.281  0.1816  0.2589 -0.2140
 9076W        W22490  10.368   7.317  13.066  0.0528 -0.2236  0.2561
 9077W        W22491  18.403   9.051  14.115  0.1350 -0.3762  0.1502
 9078W        W22492  11.521   4.141   4.026  0.1642  0.0698 -0.1683
 9079W        W22493  10.651   2.296  12.357  0.0075  0.0058  0.1506
 9080W        W22494  12.221   5.974  13.584  0.1486  0.2381  0.1527
 9081W        W22495   0.808  16.716   0.191 -0.0918 -0.0171  0.0095
 9082W        W22496  12.900   9.517  12.996  0.1361 -0.2446 -0.2334
 9083W        W22497   8.331  10.118  15.984 -0.0656  0.2896 -0.1948
 9084W        W22498   2.027  17.046   1.493 -0.0208  0.3103 -0.2926
 9085W        W22499   2.209   9.219   4.386 -0.2295 -0.1651  0.1318
 9086W        W22500  13.179  13.940  14.299  0.0719 -0.0333  0.1108
 9087W        W22501  11.019   1.708   0.760 -0.0282  0.4411 -0.1972
 9088W        W22502   4.106  16.306  15.321  0.1593  0.0018  0.1665
 9089W        W22503   3.318   2.001  14.704 -0.0114  0.4536 -0.0399
 9090W        W22504   3.627  10.889   0.760 -0.3277 -0.1258 -0.2378
 9091W        W22505  16.373   0.559  15.998 -0.0440  0.2167  0.2941
 9092W        W22506   0.477   5.637   4.371  0.1680 -0.3026  0.2443
 9093W        W22507   1.974  14.740   4.128 -0.1706  0.2684 -0.3841
 9094W        W22508   6.686  15.465  12.889 -0.0992  0.0937  0.0200
 9095W        W22509  11.187   5.542  16.240  0.0139 -0.0037 -0.2257
 9096W        W22510   6.563   1.556  15.988  0.2992 -0.2242  0.3693
 9097W        W22511   5.146   8.696  13.143 -0.3054 -0.0371 -0.2177
 9098W        W22512   0.384   6.675  15.805  0.4523  0.0294 -0.2636
 9099W        W22513   3.894   8.143   3.723 -0.0447 -0.2849  0.2283
 9100W        W22514   9.469  12.562   4.594 -0.0933 -0.0205 -0.1954
 9101W        W22515   3.836  17.634   3.857  0.0056 -0.1105 -0.3631
 9102W        W22516   3.395   6.449  12.419 -0.0172 -0.1789  0.0895
 9103W        W22517   6.457   8.106   2.841  0.1547 -0.2544  0.0286
 9104W        W22518   1.355   4.494  12.975  0.0802  0.0152  0.1662
 9105W        W22519   0.367  16.742   2.092  0.0420  0.0042 -0.2914
 9106W        W22520   6.385   8.395   4.955 -0.0843  0.0009 -0.0268
 9107W        W22521   1.982   2.765   2.028 -0.0242  0.2506  0.0894
 9108W        W22522  13.932  12.785  10.613 -0.0355  0.3758 -0.1708
 9109W        W22523  14.378   5.194   3.085 -0.0852  0.0229  0.0527
 9110W        W22524  11.040   1.727   2.546  0.1330  0.0469  0.0034
 9111W        W22525  16.856   8.165  11.222 -0.1192  0.1990  0.0064
 9112W        W22526  12.910  10.006  12.155 -0.0572 -0.1092 -0.3279
 9113W        W22527  16.727  18.323  13.994 -0.2438 -0.3371 -0.1439
 9114W        W22528   0.599  10.208  15.921 -0.2367  0.2693 -0.0359
 9115W        W22529   0.801  16.088  11.602  0.2861 -0.1061 -0.1734
 9116W        W22530   8.426  10.177   4.524  0.3370  0.2210 -0.0762
 9117W        W22531  10.928   7.524  12.264  0.1110 -0.0469  0.0511
 9118W        W22532  10.428   6.676   0.297  0.0821  0.1167 -0.3981
 9119W        W22533  16.489  14.361   2.076 -0.0410 -0.4344 -0.0119
 9120W        W22534   0.332  13.430   3.187 -0.0023  0.1055 -0.2358
 9121W        W22535  16.880   3.582   4.125 -0.1624 -0.0055 -0.0884
 9122W        W22536   0.152  11.620  11.808  0.0484  0.1154 -0.3784
 9123W        W22537   1.126  17.790   4.643 -0.1279 -0.0887  0.2656
 9124W        W22538   9.856   4.948  14.430  0.2039 -0.3227 -0.2679
 9125W        W22539  10.710  12.587   4.490 -0.0333 -0.3661 -0.0240
 9126W        W22540   6.582  10.374  13.430 -0.2712  0.0383  0.1193
 9127W        W22541  11.060  15.286  10.020 -0.1249 -0.1853 -0.0279
 9128W        W22542   8.785  10.496   1.932  0.1749 -0.2244  0.0820
 9129W        W22543  12.303   5.919  14.893 -0.1224  0.3716  0.0481
 9130W        W22544   4.079  11.519  11.273  0.0564  0.2687  0.0154
 9131W        W22545   3.228  16.721  11.351 -0.2871 -0.1188 -0.0056
 9132W        W22546  12.298  16.219   5.339  0.0569  0.0503  0.0382
 9133W        W22547   3.249  11.541   2.223  0.0626 -0.3776 -0.0175
 9134W        W22548  13.880   7.067   3.928  0.1068  0.0939  0.2505
 9135W        W22549   9.772   9.510  13.894  0.0717  0.3282  0.0635
 9136W        W22550  17.552   1.780   3.663 -0.1139  0.0253  0.0077
 9137W        W22551   0.361   0.120   4.672 -0.1584 -0.0012 -0.3750
 9138W        W22552   7.427  14.431   4.727 -0.3442  0.1739  0.1196
 9139W        W22553   5.624   7.023  12.962  0.1750  0.0677  0.0818
 9140W        W22554   3.334  13.398  13.555 -0.0125  0.1766  0.1278
 9141W        W22555   3.215   3.282   9.929 -0.0677 -0.0428 -0.2016
 9142W        W22556   7.493   0.321  13.889 -0.0310  0.2668  0.3026
 9143W        W22557   0.941   0.062  15.451  0.2063 -0.2480  0.0212
 9144W        W22558  17.901  13.610   0.980 -0.0054  0.0969 -0.1154
 9145W        W22559   3.793   8.673  14.325 -0.1688 -0.0763  0.1065
 9146W        W22560  11.711   5.460   4.313  0.0259 -0.1220 -0.1715
 9147W        W22561   7.855   4.305   4.378  0.0232 -0.1430 -0.0436
 9148W        W22562   9.989   1.911  15.623  0.2242  0.2698 -0.1696
 9149W        W22563   2.868  12.264   3.797  0.1100  0.3702  0.2228
 9150W        W22564   7.988   5.033  15.348 -0.0394  0.3115 -0.1593
 9151W        W22565   9.709   5.053  12.932  0.1675  0.0617  0.3132
 9152W        W22566  14.270   2.014   5.208  0.1739 -0.3676  0.1937
 9153W        W22567  13.490  14.813  13.053 -0.0637 -0.0740 -0.2388
 9154W        W22568  10.273  12.273  11.695 -0.3158 -0.1102 -0.0140
 9155W        W22569   7.819  12.347   4.108  0.0660 -0.0992  0.0783
 9156W        W22570  13.178  17.406   2.669 -0.0709 -0.0976  0.1948
 9157W        W22571  12.467  15.304  10.006  0.1457 -0.1959 -0.1693
 9158W        W22572  14.354   9.335  10.314  0.4834  0.0305  0.0807
 9159W        W22573  14.931   3.967  12.309  0.1842  0.1003 -0.0220
 9160W        W22574  15.901   5.371   3.511 -0.3422 -0.0870  0.1927
 9161W        W22575   0.079   0.568   2.312 -0.2072 -0.1294  0.0189
 9162W        W22576  15.109  13.955  14.602 -0.1062 -0.0485 -0.0159
 9163W        W22577  17.584  14.100   0.312  0.0341  0.1532  0.1526
 9164W        W22578  18.279  16.214  11.900 -0.3139  0.1144  0.0410
 9165W        W22579  12.869  15.612  11.110  0.4207 -0.0895 -0.0940
 9166W        W22580   9.615  15.381   2.107  0.0239  0.1367  0.1391
 9167W        W22581   6.880  10.692   0.138 -0.3621 -0.1595 -0.0341
 9168W        W22582   0.261  13.743  13.956 -0.0913  0.2476 -0.0321
 9169W        W22583  12.778  11.021   1.002  0.1285  0.0564  0.0670
 9170W        W22584   8.275   7.512  13.927  0.2852  0.2208 -0.3197
 9171W        W22585   7.592   2.265  15.479 -0.1609  0.2474  0.0689
 9172W        W22586   6.522  13.503  12.141 -0.2546 -0.0881  0.2114
 9173W        W22587   2.112   1.656   5.074 -0.0676  0.0803 -0.1914
 9174W        W22588  15.567   3.279  15.932  0.1666  0.3022 -0.2433
 9175W        W22589   9.623  18.246   2.143 -0.3587 -0.0958 -0.0411
 9176W        W22590  13.806   4.434  11.041  0.1169  0.3230 -0.1753
 9177W        W22591   6.879  14.620  10.819  0.0563  0.4594 -0.0627
 9178W        W22592   0.130   3.993  11.853 -0.1624  0.0975  0.0787
 9179W        W22593   5.646  15.459  12.865  0.0889  0.1517  0.0581
 9180W        W22594   8.991   6.976  12.467 -0.0716 -0.0227  0.0922
 9181W        W22595   8.266  10.135   5.399 -0.0395  0.1229 -0.1128
 9182W        W22596   7.192  15.933  15.352 -0.0559  0.0898  0.3319
 9183W        W22597   0.202   9.005   4.054 -0.2411  0.0778 -0.1264
 9184W        W22598  14.497  10.990  13.913  0.1008  0.1043  0.2999
 9185W        W22599  16.539   9.908   2.122  0.0025  0.0620 -0.1182
 9186W        W22600   1.759   9.005   1.254  0.0209 -0.0999  0.0825
 9187W        W22601  13.160  14.678   1.808  0.2809 -0.3248 -0.0256
 9188W        W22602  15.244  10.004   5.825 -0.0574 -0.0139 -0.2391
 9189W        W22603  17.729  14.928  10.991 -0.0489 -0.0636 -0.1489
 9190W        W22604   4.864   1.579  10.581  0.3152  0.1444  0.0030
 9191W        W22605  12.125   2.628   3.055 -0.0988 -0.3517  0.1161
 9192W        W22606   6.490   7.136   1.955 -0.1896  0.2554  0.3343
 9193W        W22607   1.922  17.321   1.057 -0.0180 -0.0696 -0.0632
 9194W        W22608  14.367   5.766  11.784  0.2622  0.5494 -0.1223
 9195W        W22609  15.742   0.652  13.739 -0.2050 -0.0105  0.0405
 9196W        W22610   1.405   5.077   2.411 -0.3672 -0.0936 -0.0346
 9197W        W22611   8.792  10.145  16.138 -0.0893  0.5657  0.1618
 9198W        W22612  11.539  10.233   5.524  0.0841 -0.1076 -0.0849
 9199W        W22613  12.589  10.170   1.257  0.0170 -0.1852  0.1860
 9200W        W22614   7.900   9.945   3.064 -0.1944  0.1773 -0.3478
 9201W        W22615  13.146   8.423   2.990  0.0269  0.0112  0.0873
 9202W        W22616   3.204  17.212   3.452 -0.1191 -0.0651 -0.0774
 9203W        W22617  13.609  13.523  13.585 -0.0900  0.1455  0.3420
 9204W        W22618   4.943   0.227  10.137  0.3323  0.1291 -0.0501
 9205W        W22619  13.632   4.417  11.528  0.0848 -0.1451  0.0771
 9206W        W22620  18.251   9.828   0.872 -0.2579 -0.1656 -0.0116
 9207W        W22621  17.048  13.192  15.016 -0.0615 -0.2977  0.1284
 9208W        W22622   1.223   1.118   4.906  0.2148 -0.0846  0.2685
 9209W        W22623   1.897  10.512  12.795 -0.0206  0.1312  0.4030
 9210W        W22624   9.031  16.354  15.671 -0.1823 -0.1359 -0.0758
 9211W        W22625  11.794  12.313   5.729  0.3148 -0.0787 -0.2243
 9212W        W22626   8.164   5.570   4.439 -0.3809  0.3028 -0.1420
 9213W        W22627   0.852   8.963   3.276 -0.1147  0.0756 -0.0604
 9214W        W22628   5.435   0.438   6.694 -0.0150 -0.0620 -0.1722
 9215W        W22629  11.485  10.117   1.373 -0.2887  0.1400  0.1290
 9216W        W22630   1.308   3.975   5.375 -0.2107  0.2443  0.0317
 9217W        W22631  16.828   0.822  11.547  0.1810  0.2395  0.0274
 9218W        W22632  14.531   7.590  12.268  0.0632  0.2728  0.0894
 9219W        W22633  15.032  15.370   5.232  0.2544  0.1142 -0.1447
 9220W        W22634  10.241  13.327   3.550  0.0245 -0.0032 -0.0632
 9221W        W22635  10.091  11.116  15.367 -0.0575  0.2206  0.1516
 9222W        W22636  14.821  12.588   2.865  0.2346  0.1935 -0.2545
 9223W        W22637   7.363  14.948  15.654  0.1204  0.2145  0.2811
 9224W        W22638  16.068  12.748  10.660  0.3207 -0.0954 -0.0378
 9225W        W22639  10.738  13.313   5.889  0.0775 -0.0770  0.0853
 9226W        W22640   5.764  14.637   5.788  0.0243  0.0995  0.2606
 9227W        W22641   5.577  11.330  13.239 -0.1618 -0.1164 -0.0830
 9228W        W22642   3.238  12.002  12.371  0.2070 -0.0386 -0.0366
 9229W        W22643  17.078   5.734  14.082 -0.0965 -0.1389 -0.0264
 9230W        W22644  17.321  16.010   5.021 -0.2062  0.1135  0.4491
 9231W        W22645  15.335  16.349  13.689 -0.3143  0.0370  0.0374
 9232W        W22646  18.269   1.669  10.881 -0.2892 -0.0441  0.0193
 9233W        W22647   2.207   4.391   2.550  0.1631  0.1370  0.3955
 9234W        W22648  10.037   6.519  12.737 -0.1067  0.0543 -0.1589
 9235W        W22649   3.379   6.232   6.065  0.0702 -0.1928  0.3709
 9236W        W22650  16.767  11.979  12.731 -0.0718 -0.1626 -0.0118
 9237W        W22651   7.734  10.393   1.791 -0.3113  0.1395 -0.1230
 9238W        W22652   9.352   7.019  12.894 -0.1142  0.1618  0.1452
 9239W        W22653  17.289  10.720  11.614  0.0426  0.2657 -0.2225
 9240W        W22654  17.701   0.750   2.038  0.0790 -0.3816 -0.0649
 9241W        W22655   1.926   2.031   1.807  0.1601  0.3219  0.3186
 9242W        W22656   1.291   8.512  11.387  0.1832 -0.2028  0.0096
 9243W        W22657   7.613   4.461   5.453 -0.0786  0.1467 -0.2071
 9244W        W22658  13.282  13.736  12.158  0.0438 -0.0085 -0.0288
 9245W        W22659   6.224   3.887   3.668  0.0965  0.0648 -0.4689
 9246W        W22660  15.323   7.184  15.237  0.3001  0.1464 -0.2677
 9247W        W22661  10.707  13.957  14.937 -0.1013  0.1006 -0.0208
 9248W        W22662  14.030   5.104  12.771  0.3992  0.3934 -0.0440
 9249W        W22663  15.055  13.327   1.266  0.2214  0.2981  0.0169
 9250W        W22664  12.135   6.897   5.687  0.0887  0.1772 -0.0697
 9251W        W22665  11.322   7.486   0.244  0.1071 -0.4149  0.4327
 9252W        W22666  16.832   4.716   2.575 -0.1390 -0.2520  0.0941
 9253W        W22667   4.821   1.712  13.239 -0.0177  0.3150  0.0374
 9254W        W22668  11.332  10.509  13.411 -0.0322  0.0817 -0.0372
 9255W        W22669  11.062  11.415  13.235 -0.2232 -0.3142  0.3041
 9256W        W22670  11.463  12.815   2.740  0.0941 -0.3251 -0.1737
 9257W        W22671   9.819   3.780  13.381  0.0161  0.3086 -0.2026
 9258W        W22672   9.620   2.464   5.577  0.3149 -0.2053 -0.1097
 9259W        W22673   1.081  14.521  10.861 -0.1124  0.0395 -0.1257
 9260W        W22674   6.867   5.164  10.667 -0.2880 -0.2298 -0.1084
 9261W        W22675   4.453  13.051   2.618 -0.3117  0.2522  0.1945
 9262W        W22676   9.200  10.207   0.202 -0.0221 -0.2245 -0.0302
 9263W        W22677  11.095  13.361  11.242  0.4470 -0.0692  0.0534
 9264W        W22678   8.107  10.468  13.768  0.0721  0.1391 -0.1058
 9265W        W22679   5.371  17.948   1.762 -0.0728  0.1411 -0.0161
 9266W        W22680  11.549   5.362   5.966  0.2058  0.0929 -0.2060
 9267W        W22681   5.552   6.716   1.706 -0.1833 -0.3542  0.2026
 9268W        W22682  16.733  17.523   1.009  0.0397 -0.0004  0.0756
 9269W        W22683  14.171  11.223  15.798 -0.1089 -0.3767 -0.0104
 9270W        W22684   6.240  11.585   2.256 -0.0177 -0.1852 -0.2595
 9271W        W22685   0.970  10.663   4.598  0.0466 -0.0382  0.0421
 9272W        W22686  17.990   7.421  14.735  0.2114 -0.1053  0.3670
 9273W        W22687   5.660   8.657   5.440 -0.0365 -0.4135  0.0868
 9274W        W22688  14.798  17.952  10.310 -0.1515 -0.1517  0.2065
 9275W        W22689  11.248   8.489  15.621 -0.1966  0.0049  0.0379
 9276W        W22690  12.900   5.667   3.641  0.3575  0.0015 -0.1931
 9277W        W22691   2.851   5.569  12.076 -0.3865  0.1075  0.0784
 9278W        W22692  14.069   5.356   6.165  0.2277 -0.3233  0.0307
 9279W        W22693  18.211  11.886  12.655  0.1106  0.0251 -0.2204
 9280W        W22694  17.897   7.408  13.265  0.2557 -0.2197 -0.1322
 9281W        W22695   9.756   0.614  15.134 -0.1518  0.0746  0.1598
 9282W        W22696   1.550  12.146  10.811  0.0759  0.0289  0.0181
 9283W        W22697   9.813   4.332   2.148  0.1053 -0.3076  0.0151
 9284W        W22698   0.475  11.680   2.345 -0.1303 -0.0189  0.0126
 9285W        W22699  14.253   1.062  12.450 -0.1023 -0.0764 -0.2012
 9286W        W22700  14.744   6.591  16.081  0.3469  0.3414 -0.1790
 9287W        W22701   8.376   0.840   2.402  0.3095 -0.2297 -0.1975
 9288W        W22702  17.417   1.919   0.919  0.0809 -0.0245  0.3357
 9289W        W22703  14.997   4.581  14.602 -0.0867 -0.2328 -0.4694
 9290W        W22704  12.183  11.370  12.768  0.1623  0.2166 -0.1637
 9291W        W22705  16.760  11.531  11.240  0.2249  0.1484  0.3142
 9292W        W22706  14.410   7.145  15.619  0.0457 -0.1002  0.1271
 9293W        W22707   9.534  17.486  11.756  0.1849  0.2778 -0.0593
 9294W        W22708   5.592  15.870   3.827 -0.0137  0.1191  0.2712
 9295W        W22709   8.317   0.578   4.740  0.1109  0.2757  0.0384
 9296W        W22710  17.775  11.134   5.502 -0.0442  0.0136  0.0259
 9297W        W22711  15.503   6.288   3.217  0.2196 -0.3000 -0.2604
 9298W        W22712   0.661   8.089   2.300  0.3182  0.2593  0.0624
 9299W        W22713  14.431  15.548   3.586  0.0006  0.2845 -0.1386
 9300W        W22714  14.828  10.736   4.643 -0.1902 -0.3270 -0.1454
 9301W        W22715   8.869   9.794   0.300  0.0956 -0.0034  0.2179
 9302W        W22716   9.821   1.268   3.324 -0.0189 -0.2098 -0.1064
 9303W        W22717  11.748   4.552   6.369  0.1868 -0.1309  0.3654
 9304W        W22718  13.578   7.418  12.910 -0.1512  0.0445  0.0202
 9305W        W22719  12.576   1.965   5.695 -0.0407 -0.1979 -0.1734
 9306W        W22720   1.389   7.559  11.594 -0.1027 -0.0333 -0.2274
 9307W        W22721   2.315  14.528  16.141 -0.0444 -0.3239  0.2471
 9308W        W22722   8.689  17.434   2.634 -0.1243 -0.1868 -0.0769
 9309W        W22723  13.342   0.795   2.486 -0.1873  0.1204 -0.1213
 9310W        W22724   7.393  13.535  11.147  0.2009  0.0796 -0.0422
 9311W        W22725  14.534   5.232   2.303 -0.1667 -0.1538  0.2640
 9312W        W22726   2.586  10.210   0.844  0.2748 -0.0086  0.2922
 9313W        W22727  17.565   0.941  16.004  0.1151  0.0506 -0.1022
 9314W        W22728   5.373  17.721  13.628 -0.2309  0.0296  0.3006
 9315W        W22729   2.704  11.745  13.262 -0.0088  0.0848  0.1538
 9316W        W22730   9.868   6.483   5.849  0.2196  0.1929 -0.0567
 9317W        W22731  14.627   9.546   2.191  0.0757  0.1148  0.1124
 9318W        W22732  11.729   4.616   5.401 -0.1528  0.0111 -0.0435
 9319W        W22733  13.385  16.823  14.955 -0.0700  0.1159  0.1277
 9320W        W22734   7.926   6.082   2.750 -0.1034 -0.0730 -0.2739
 9321W        W22735  12.371  13.473  14.344  0.1645  0.2530 -0.1886
 9322W        W22736   1.281  16.463  16.186 -0.1051 -0.2901 -0.2501
 9323W        W22737   8.013  13.052  13.907 -0.1232 -0.2081 -0.0050
 9324W        W22738   8.509   3.975   2.141  0.2124  0.1157  0.0061
 9325W        W22739  10.875   5.398  15.776  0.1278 -0.0826 -0.1138
 9326W        W22740   9.996   8.556   2.271 -0.0094  0.0756 -0.3603
 9327W        W22741   4.866  11.432  10.949  0.0680  0.0748  0.0859
 9328W        W22742  10.958  12.798   1.315 -0.1404  0.2327  0.0712
 9329W        W22743  18.289  11.579   5.145 -0.4156  0.2342 -0.0205
 9330W        W22744  17.036   8.775   4.215 -0.4589 -0.0468 -0.0883
 9331W        W22745   2.625   0.250  15.527 -0.0862 -0.0894  0.0633
 9332W        W22746   9.311   8.749  13.803 -0.0239  0.0478  0.3292
 9333W        W22747   6.074  16.609  10.470  0.0635  0.0761 -0.0524
 9334W        W22748   6.627   6.669   2.155  0.1207 -0.1395 -0.2320
 9335W        W22749  18.177   5.835   5.055  0.2852 -0.0435  0.1137
 9336W        W22750  14.460  14.296  13.853 -0.0350  0.0761  0.3927
 9337W        W22751  17.939   9.152  13.887 -0.0006  0.1253 -0.1335
 9338W        W22752  16.767   7.841   6.969 -0.0288 -0.2057 -0.0204
 9339W        W22753   5.128  13.355  14.621  0.0488 -0.0270  0.1742
 9340W        W22754   0.240  11.829   3.385  0.0068 -0.0010 -0.2252
 9341W        W22755   1.020  11.185  12.125  0.2931 -0.4022 -0.1882
 9342W        W22756   6.836  16.063   2.472 -0.1752 -0.1600  0.0036
 9343W        W22757   1.835   9.078  13.697  0.0759 -0.0292  0.0694
 9344W        W22758  15.520  15.013   1.472  0.0987  0.1500  0.3930
 9345W        W22759  14.473   5.902  13.856  0.1477  0.2938  0.1917
 9346W        W22760   5.835  18.035   6.161 -0.2734  0.0836  0.1227
 9347W        W22761  13.848   0.632  14.703  0.0551  0.1253 -0.3464
 9348W        W22762  16.673  17.880  14.324  0.2010 -0.0522 -0.0071
 9349W        W22763  12.045   5.411  14.196  0.0906 -0.0969  0.0619
 9350W        W22764   1.952   4.960   3.758  0.0782  0.2182 -0.0987
 9351W        W22765  16.187   5.586   2.775 -0.2665 -0.2094  0.2072
 9352W        W22766   5.157  17.082   6.240 -0.1279  0.2357 -0.0203
 9353W        W22767  16.538   0.625   5.030  0.2582 -0.1392  0.0706
 9354W        W22768  11.514   6.288   5.435 -0.1390  0.0708  0.0467
 9355W        W22769   8.751   1.377  14.132  0.1075  0.3849 -0.2107
 9356W        W22770  17.777  17.182  14.949 -0.2424 -0.1684 -0.2769
 9357W        W22771   1.166   1.148  12.964 -0.2053  0.0473  0.2617
 9358W        W22772   9.713  17.933   1.765 -0.1416  0.0131 -0.2908
 9359W        W22773   5.816   7.232   5.862 -0.0274  0.1007 -0.2781
 9360W        W22774  14.218  14.669  10.592 -0.1337  0.0526 -0.1638
 9361W        W22775  12.393   0.217  14.248  0.1695 -0.3811  0.1381
 9362W        W22776  10.049  17.984  11.456  0.0954  0.1546  0.0566
 9363W        W22777   7.309   3.573  13.250  0.1575  0.3025  0.0438
 9364W        W22778  13.615   0.468   0.428  0.1626  0.2565  0.0054
 9365W        W22779   7.993   6.542  12.033 -0.1810  0.0904 -0.1071
 9366W        W22780   3.110   1.587   2.761 -0.2239  0.3103  0.0027
 9367W        W22781   1.880  12.688  10.083 -0.0312 -0.0385 -0.1147
 9368W        W22782   2.611   4.266  15.376 -0.0577  0.1424  0.2166
 9369W        W22783   8.835  16.926   2.497 -0.0105 -0.2285  0.0464
 9370W        W22784  12.730   3.315  12.365  0.0267  0.0512  0.0657
 9371W        W22785   8.714   5.018   5.806  0.1153 -0.1459  0.0325
 9372W        W22786   1.568   0.353   2.580 -0.1365  0.1546  0.0256
 9373W        W22787   6.464   0.104   5.905  0.0411 -0.0201 -0.0932
 9374W        W22788  13.740   8.140  12.331  0.2728 -0.2993  0.0125
 9375W        W22789   0.745   1.734   4.289 -0.1371  0.2474  0.1568
 9376W        W22790   5.267  12.803   5.474  0.0085 -0.0438 -0.0621
 9377W        W22791  18.380  15.359  11.411  0.1444  0.1053  0.3672
 9378W        W22792   1.215  12.962   3.956  0.1054 -0.2600  0.0061
 9379W        W22793   5.482   6.438  10.777 -0.2154  0.1667 -0.0240
 9380W        W22794  18.038  11.167   5.075 -0.0298  0.0522  0.0705
 9381W        W22795   4.775   2.357   3.138  0.1488  0.0983  0.1778
 9382W        W22796   7.866  14.331  12.048 -0.0476 -0.0863 -0.0829
 9383W        W22797   9.368  13.944  15.296  0.2271  0.2357  0.0278
 9384W        W22798   4.396  12.118  12.387 -0.1082  0.2259 -0.2828
 9385W        W22799   3.731   8.802   5.024 -0.3243  0.0365  0.2518
 9386W        W22800   5.707   2.171  14.390  0.1824  0.1408 -0.3025
 9387W        W22801  13.727  14.819   1.142  0.0097 -0.2482  0.0460
 9388W        W22802   1.155   9.151   3.702  0.2367 -0.1556 -0.0694
 9389W        W22803   0.804   7.612  12.600 -0.1756 -0.0582 -0.3860
 9390W        W22804   8.779  15.515  15.342  0.0124 -0.2915 -0.4240
 9391W        W22805  16.634  18.275  10.648  0.3297 -0.0818  0.2971
 9392W        W22806   0.410   4.626   1.019  0.3010 -0.0169  0.3321
 9393W        W22807   0.873   7.602  16.025 -0.1204  0.0192 -0.2195
 9394W        W22808   8.389  12.642  15.947 -0.1387 -0.0608  0.0229
 9395W        W22809   6.949   5.859  13.623 -0.2341 -0.2790  0.0464
 9396W        W22810   3.292  15.660  13.720 -0.2034  0.1348 -0.2829
 9397W        W22811  16.473  10.993   6.047  0.0057 -0.1234  0.0560
 9398W        W22812  12.102   6.605  11.457 -0.0639  0.0574 -0.0009
 9399W        W22813   5.707   1.408   4.468 -0.3152  0.0816  0.2826
 9400W        W22814  18.181   4.499   4.933  0.2293 -0.2457 -0.0242
 9401W        W22815  16.630   6.748   3.689  0.0180 -0.0171  0.0457
 9402W        W22816   6.145  14.385  15.945 -0.0464  0.0684 -0.0794
 9403W        W22817   9.527   0.655  13.126 -0.1418 -0.0500 -0.3275
 9404W        W22818   3.099   6.592   2.160  0.4775 -0.0992 -0.0237
 9405W        W22819   5.538   5.322   5.149 -0.0420 -0.2572 -0.0278
 9406W        W22820   7.272   8.191   0.356  0.0587  0.1016  0.0792
 9407W        W22821   6.371  10.786   4.339  0.0266 -0.2431  0.0648
 9408W        W22822  11.898  16.390   0.474  0.2075  0.2377  0.4062
 9409W        W22823   6.171  18.111   1.429  0.0195  0.0234  0.0926
 9410W        W22824  17.608   9.533   5.855  0.0992  0.0854 -0.1944
 9411W        W22825  16.993  16.012  12.931 -0.0326 -0.1992 -0.0597
 9412W        W22826  15.039   0.206   3.325  0.0093  0.0349 -0.0622
 9413W        W22827  11.143  18.078  14.526 -0.0232  0.0030 -0.2629
 9414W        W22828   9.025   5.341   4.607  0.1365 -0.0134  0.1688
 9415W        W22829   5.388   3.750   1.359  0.2261 -0.1251 -0.2559
 9416W        W22830   4.061   2.660  10.535  0.0052 -0.1223  0.1881
 9417W        W22831   7.393  16.549  11.437  0.1625 -0.2411  0.0124
 9418W        W22832   4.346  13.281   3.205  0.1387  0.5816  0.0378
 9419W        W22833   3.221   5.506   0.756 -0.1264  0.1436  0.2967
 9420W        W22834   0.656  11.839  15.937 -0.2725 -0.5338  0.2671
 9421W        W22835   3.825  16.200  10.930  0.1615 -0.0591 -0.0363
 9422W        W22836   6.303  12.748   3.707 -0.0399 -0.1598 -0.1017
 9423W        W22837  13.444  13.006  10.428  0.1142 -0.1008  0.1644
 9424W        W22838   1.234   4.855  15.487 -0.0913 -0.0310 -0.5442
 9425W        W22839   6.045  10.189   5.031 -0.3710 -0.0798 -0.0604
 9426W        W22840   9.192  15.600   2.327  0.0881 -0.1213  0.1416
 9427W        W22841  12.185  18.254   5.842  0.0247 -0.1601 -0.1276
 9428W        W22842   5.990   1.659   0.485  0.0220  0.0068 -0.1698
 9429W        W22843   6.323   9.080   3.748  0.3460  0.0237 -0.0776
 9430W        W22844   3.460  11.390   4.499 -0.1032 -0.2955 -0.2561
 9431W        W22845  16.530   6.827  10.677  0.1504  0.0192  0.1776
 9432W        W22846   3.663  14.760  14.147  0.1253 -0.2329  0.2122
 9433W        W22847  11.095  17.571  14.584 -0.1292 -0.3688  0.1837
 9434W        W22848  11.914   8.941   1.477  0.1794 -0.0524 -0.1640
 9435W        W22849  16.332   4.623   1.343  0.0950  0.1318 -0.0147
 9436W        W22850  13.043   5.770   2.147 -0.5605  0.0314 -0.0741
 9437W        W22851   9.046  11.247  14.915 -0.1504 -0.1086  0.1233
 9438W        W22852  12.481   8.326  15.752 -0.0327  0.0023  0.0676
 9439W        W22853   1.242   2.686   3.436  0.0553 -0.0426 -0.5102
 9440W        W22854   4.640   1.538   2.071 -0.1600  0.0537 -0.2968
 9441W        W22855  12.569   6.696  16.170 -0.0078 -0.2129 -0.1655
 9442W        W22856  11.671  14.959   5.419 -0.3817 -0.0022 -0.1978
 9443W        W22857   4.351  15.836  14.041  0.4395  0.2615 -0.0237
 9444W        W22858   6.516  18.185   4.893 -0.0102  0.2039  0.2410
 9445W        W22859   5.065   3.641   2.409 -0.2796 -0.0608  0.0647
 9446W        W22860  17.130  12.725   1.100 -0.3224 -0.1866 -0.3211
 9447W        W22861   3.065  10.897   6.463  0.0889  0.0730  0.0014
 9448W        W22862   9.628   0.625   1.507 -0.0479  0.1106  0.0291
 9449W        W22863  10.475  15.205  15.910  0.6555 -0.3670 -0.0460
 9450W        W22864  13.669  13.839   3.104 -0.0764 -0.2528 -0.1257
 9451W        W22865   8.663   7.260  14.226 -0.1559 -0.0254 -0.0605
 9452W        W22866  16.670   6.129   2.360  0.1592 -0.1461 -0.0998
 9453W        W22867   2.305   5.245  13.366 -0.0503 -0.2056 -0.2770
 9454W        W22868   4.510   9.633   2.016  0.0820  0.0794 -0.3347
 9455W        W22869  17.307  15.968   4.501 -0.0533  0.0999 -0.3182
 9456W        W22870  17.654   4.295  11.992  0.3031  0.2849  0.1847
 9457W        W22871   5.701   3.981  15.513  0.0684 -0.0097  0.2199
 9458W        W22872  10.705   7.710   4.201 -0.2964 -0.0746  0.1794
 9459W        W22873   9.295  15.962  14.111  0.1491 -0.2540 -0.0655
 9460W        W22874  15.746  15.609   3.903 -0.1365  0.1709  0.1019
 9461W        W22875   3.609   8.076  14.833  0.2762  0.0226 -0.0752
 9462W        W22876   5.203  14.787  14.627 -0.0768  0.0121 -0.2433
 9463W        W22877   8.667  15.239   5.990 -0.2075 -0.0085 -0.2281
 9464W        W22878  18.282  10.891   5.755 -0.2365  0.0004  0.1516
 9465W        W22879  13.282   1.381  15.368  0.0385 -0.1393  0.0799
 9466W        W22880   0.380   7.908  14.797  0.2930  0.0933 -0.1220
 9467W        W22881   4.905  17.011  11.544  0.0181 -0.0393 -0.2328
 9468W        W22882   8.620   0.362   2.019  0.1253  0.1345 -0.3403
 9469W        W22883   5.850   0.937   5.130 -0.2543  0.3488 -0.0033
 9470W        W22884   3.111   5.922  14.141  0.4347  0.1286 -0.1001
 9471W        W22885  15.075  17.893   3.796 -0.0516  0.0395 -0.0453
 9472W        W22886   4.013  11.799  13.013 -0.3143  0.0622 -0.0838
 9473W        W22887  14.153  15.012  12.151 -0.2129  0.0516  0.0134
 9474W        W22888  16.603  11.815   1.111 -0.3911  0.1592  0.3687
 9475W        W22889  14.930   0.672  10.311  0.0437  0.2073 -0.3262
 9476W        W22890   0.831  10.189   4.481  0.0015  0.1687  0.0046
 9477W        W22891   4.111   8.380  14.602  0.0478  0.2646 -0.1531
 9478W        W22892  16.450   6.741   1.301 -0.0015  0.5147 -0.0886
 9479W        W22893  11.644   8.548   5.031  0.1495 -0.1211  0.2352
 9480W        W22894  14.798   6.908   1.381  0.0411 -0.2366 -0.1378
 9481W        W22895  13.278   8.757   5.653  0.2981 -0.2971  0.6226
 9482W        W22896   8.004   6.256  14.597 -0.3086  0.1668 -0.0544
 9483W        W22897  14.584  14.661  13.530  0.1555  0.1210  0.3491
 9484W        W22898  12.183   7.679  14.386 -0.0843 -0.0710  0.1803
 9485W        W22899  13.435   9.481   4.580  0.2411  0.1761  0.2343
 9486W        W22900   6.384   2.373  11.974  0.0003 -0.0134 -0.0134
 9487W        W22901   0.146   6.056   1.490 -0.5050  0.0128 -0.0816
 9488W        W22902   7.873   0.926   5.561  0.0707 -0.0762  0.0701
 9489W        W22903   1.713  10.240   4.870 -0.3118 -0.0910 -0.1835
 9490W        W22904  18.250   5.707   5.505  0.0794  0.1573 -0.0785
 9491W        W22905   0.140   4.906   4.828  0.3873 -0.2497 -0.2306
 9492W        W22906  12.848   3.658   3.800  0.1858  0.0235  0.0386
 9493W        W22907  11.765   1.079  11.365  0.0689  0.0550 -0.2520
 9494W        W22908   4.728  11.836   1.524  0.0866 -0.2402 -0.1403
 9495W        W22909   4.453  16.774  11.407  0.1687 -0.1737 -0.1620
 9496W        W22910  14.345   3.644   3.164  0.3018  0.0190  0.0549
 9497W        W22911   4.678  17.583   4.276  0.0394 -0.0469 -0.0159
 9498W        W22912  14.297  12.436  10.826  0.4235  0.0392  0.0101
 9499W        W22913  18.190   6.666  13.452  0.0434  0.3038  0.1496
 9500W        W22914  17.956  12.104   4.318 -0.2371 -0.1674 -0.0686
 9501W        W22915  17.818   3.584  13.543 -0.1708 -0.0080 -0.0907
 9502W        W22916   9.795  14.358   0.981 -0.0499  0.3586  0.1496
 9503W        W22917   2.412  14.778  12.146  0.0982  0.1748  0.0274
 9504W        W22918   8.270   2.182  13.912  0.0483 -0.0781  0.2553
 9505W        W22919  16.998   9.933   1.092 -0.2316 -0.3238 -0.1102
 9506W        W22920   7.479  15.299  15.311 -0.2342  0.0598 -0.1087
 9507W        W22921  15.187   6.000  15.025 -0.2323 -0.2338 -0.0137
 9508W        W22922   5.669  18.055  11.794  0.0773  0.1038 -0.0223
 9509W        W22923   7.143  14.645  12.439  0.2159  0.0700 -0.1045
 9510W        W22924  10.334   4.194  14.114 -0.2320 -0.1841 -0.1054
 9511W        W22925   9.142   2.672  13.696  0.1324  0.2838  0.0509
 9512W        W22926  13.796   2.505  15.590 -0.0106 -0.2099  0.1731
 9513W        W22927   1.520  17.530   3.365  0.0580  0.0319 -0.2364
 9514W        W22928   1.663   0.652   9.808 -0.0772  0.0751  0.3332
 9515W        W22929   1.296   7.862  15.182 -0.0418  0.2486 -0.1663
 9516W        W22930   7.352  10.550  11.473 -0.1330  0.2601 -0.0630
 9517W        W22931  16.254   6.183   1.438  0.0679 -0.2702 -0.1788
 9518W        W22932  11.635   6.157  15.880 -0.1108  0.1330  0.2026
 9519W        W22933  13.872   7.823  14.469  0.0296  0.0902  0.0834
 9520W        W22934   9.482   3.399  12.858 -0.1027  0.3244 -0.0232
 9521W        W22935  15.791   8.621  12.311 -0.0509 -0.0234  0.1168
 9522W        W22936   6.103  11.225  14.075 -0.3727  0.2313  0.1010
 9523W        W22937   8.257   8.414  14.420  0.1961  0.1641  0.1829
 9524W        W22938   0.486   8.107  14.290 -0.3339 -0.2369  0.2135
 9525W        W22939  10.125   1.142  12.184  0.3570 -0.0798 -0.0235
 9526W        W22940  17.991   8.442  12.452 -0.1402  0.1784 -0.4347
 9527W        W22941   6.222   2.742  10.561  0.1385 -0.1393 -0.0397
 9528W        W22942  12.208  12.919   5.710  0.1725 -0.0853  0.1076
 9529W        W22943  12.562  15.989  12.211 -0.1767 -0.2274  0.1160
 9530W        W22944   5.483   3.240   0.361 -0.0093  0.1265 -0.2979
 9531W        W22945   3.035   0.226   2.085 -0.0226 -0.5375 -0.1314
 9532W        W22946   8.166   4.908   0.475 -0.1062  0.1979 -0.0516
 9533W        W22947  15.756  13.546   0.277 -0.0026  0.2895  0.1161
 9534W        W22948  15.927   0.368  11.563  0.0581  0.0998  0.1109
 9535W        W22949  11.681  14.905   0.010 -0.0503  0.2594  0.2659
 9536W        W22950  17.077   3.528   2.101  0.2594 -0.1418  0.1727
 9537W        W22951  10.569   6.868   1.123 -0.2317 -0.0372  0.3144
 9538W        W22952  12.869  10.670  12.670  0.0531  0.0986 -0.1153
 9539W        W22953  13.689   7.594   0.432  0.0078 -0.0837 -0.4061
 9540W        W22954   7.377  14.025  11.935 -0.1836  0.1906  0.1684
 9541W        W22955  13.740  13.197  12.602  0.2005 -0.1810  0.0273
 9542W        W22956   1.554  13.493  13.138  0.2507 -0.2244 -0.2606
 9543W        W22957   9.394  12.976  11.189 -0.3678 -0.3497  0.1217
 9544W        W22958   6.251   6.209  13.033 -0.0162  0.1466 -0.1305
 9545W        W22959  11.268   4.599  15.992 -0.1560 -0.0251  0.1193
 9546W        W22960  15.527   0.319   4.211 -0.0454 -0.2730 -0.2037
 9547W        W22961  11.856   7.088  10.427 -0.1120 -0.0884  0.2613
 9548W        W22962   6.596  17.347  14.914  0.0040  0.1718 -0.3458
 9549W        W22963   5.507  12.889   3.561  0.2843  0.3738 -0.1243
 9550W        W22964   9.855   4.586   5.500 -0.2936  0.1079 -0.1679
 9551W        W22965   6.472  13.330   5.474 -0.2698 -0.2630 -0.1844
 9552W        W22966  15.139   6.572   0.179 -0.0919 -0.0043  0.1291
 9553W        W22967   9.166   4.471   3.315  0.1306  0.2445  0.0623
 9554W        W22968   1.211   0.531  16.242  0.1596  0.0194  0.1318
 9555W        W22969   8.948  16.414   4.155 -0.1122  0.3275 -0.1446
 9556W        W22970  15.382  17.197  11.716  0.1118  0.0519  0.1834
 9557W        W22971   6.833   0.185  14.435 -0.2667  0.1652 -0.0654
 9558W        W22972  14.097  11.536  15.467 -0.1397 -0.1175 -0.1551
 9559W        W22973   8.885  17.635   4.794  0.0680 -0.1942 -0.1210
 9560W        W22974  18.329  17.956   6.369  0.0253 -0.0702  0.3032
 9561W        W22975  17.116  14.261  11.973 -0.1535 -0.2595  0.0766
 9562W        W22976   3.719   6.908  11.019  0.3136  0.0705 -0.0776
 9563W        W22977  15.074  13.031   5.367 -0.3494  0.1696  0.0535
 9564W        W22978   7.830   6.612  15.061  0.0591 -0.2477 -0.0941
 9565W        W22979  10.096   2.871  10.094 -0.0215 -0.0403  0.0803
 9566W        W22980   0.698   0.634  11.136  0.0732  0.3063 -0.0501
 9567W        W22981  15.259  17.120   0.676 -0.1523  0.0699 -0.3743
 9568W        W22982   6.821  12.214   1.456 -0.1135 -0.1114 -0.0445
 9569W        W22983  11.032   5.571  12.435  0.1824  0.0662  0.0396
 9570W        W22984   6.273   9.832   0.645 -0.1067  0.0192 -0.1372
 9571W        W22985  11.542  11.877  10.183 -0.3181 -0.0109 -0.1031
 9572W        W22986   6.868   0.300  15.858 -0.0552 -0.1159 -0.3458
 9573W        W22987   9.449  12.781  14.924 -0.0785  0.1071 -0.1250
 9574W        W22988   7.874  14.559   0.532  0.1133 -0.1162  0.0754
 9575W        W22989  17.803  14.559  14.942 -0.0525 -0.2039 -0.1866
 9576W        W22990   3.828   9.103   5.928  0.0290 -0.1010 -0.0443
 9577W        W22991   4.935   6.212  13.226 -0.1706  0.1845 -0.1177
 9578W        W22992  12.256  18.049   9.929  0.2024 -0.1025  0.0617
 9579W        W22993   9.449   4.597  14.354 -0.0728  0.0487 -0.1024
 9580W        W22994   5.429  13.401   5.506  0.0743  0.0460  0.0830
 9581W        W22995   4.544   1.136  15.821 -0.0523  0.1225 -0.0813
 9582W        W22996  17.348  12.890   3.012  0.1371 -0.0719 -0.2073
 9583W        W22997   4.828  17.700   3.807 -0.2442  0.0338  0.0853
 9584W        W22998   5.849  16.114   4.804  0.2220  0.0806  0.0678
 9585W        W22999  10.423   3.673  12.656  0.4119  0.0387 -0.1519
 9586W        W23000   0.615   9.863  15.549 -0.1192  0.2162 -0.0185
 9587W        W23001   6.230   8.374  14.680  0.2911  0.0094 -0.0489
 9588W        W23002  16.146   1.308  10.614 -0.1978  0.1184 -0.4344
 9589W        W23003   1.229  16.220  10.468  0.2441  0.1227  0.0069
 9590W        W23004   2.873  12.842   2.841  0.0466  0.1294 -0.3423
 9591W        W23005   1.598  11.269   4.205  0.0861  0.0512  0.0715
 9592W        W23006   2.686   6.174   2.992 -0.1383  0.2485  0.0285
 9593W        W23007  13.926   9.918  16.148  0.1887 -0.0275  0.1511
 9594W        W23008  18.265   0.915   4.609 -0.2535 -0.0256  0.0338
 9595W        W23009   3.562  16.293  11.564  0.1517 -0.0614 -0.1786
 9596W        W23010   3.806  12.244  10.646  0.0866  0.0371 -0.1273
 9597W        W23011  15.839   5.984   2.885 -0.2337 -0.0145 -0.1996
 9598W        W23012  15.530  10.741  11.295 -0.1766  0.1050  0.0271
 9599W        W23013  11.700   1.598  14.307 -0.1940  0.0887 -0.0493
 9600W        W23014  12.339   3.731   2.505 -0.1149 -0.0059  0.0097
 9601W        W23015   4.973  13.778   3.011 -0.0950 -0.1681 -0.0877
 9602W        W23016  13.876  16.199  13.764  0.0854 -0.6588  0.2997
 9603W        W23017   3.544  13.085   1.009 -0.0297 -0.1932 -0.0242
 9604W        W23018  17.673   7.569  11.582  0.1269 -0.4473  0.0975
 9605W        W23019   0.927  18.431  10.993 -0.0524  0.2880  0.0940
 9606W        W23020  13.187   1.793  13.506 -0.0062 -0.2976 -0.0570
 9607W        W23021   3.504  10.359  10.189  0.1243  0.1651  0.0443
 9608W        W23022   9.844  11.674  12.424  0.2499 -0.3563 -0.3921
 9609W        W23023  10.966  15.423  14.242  0.1024  0.0810 -0.0261
 9610W        W23024  13.661  10.713  13.241  0.0572  0.2532 -0.1340
 9611W        W23025   6.596  18.390  10.726 -0.0654 -0.0942  0.1488
 9612W        W23026   8.750  16.402   0.636  0.1780 -0.1673  0.0038
 9613W        W23027   9.636  11.648   1.201 -0.0698 -0.1317  0.0929
 9614W        W23028  17.457   2.949  13.352  0.3134 -0.1150  0.1206
 9615W        W23029  10.364   9.637   0.311 -0.1337  0.1674  0.0150
 9616W        W23030  16.000   5.471   5.181 -0.1724  0.3017  0.1271
 9617W        W23031   4.200   2.791  11.169 -0.0963 -0.1475  0.2029
 9618W        W23032   7.570   6.724   1.004 -0.0936  0.0153 -0.1320
 9619W        W23033  16.936  14.739  10.634 -0.1646 -0.1445  0.0329
 9620W        W23034  14.445  16.397  13.565  0.0132 -0.1082  0.4194
 9621W        W23035  14.769  13.146  14.096 -0.2530 -0.0148  0.2207
 9622W        W23036   2.749   6.125  14.583 -0.0433  0.1214  0.1193
 9623W        W23037   1.558   0.842   2.721  0.0674 -0.0498  0.1770
 9624W        W23038   0.030   4.819   5.329  0.1388  0.3522  0.0917
 9625W        W23039   1.881   4.499  14.347 -0.1588 -0.1137 -0.0059
 9626W        W23040  17.745  15.096  12.386  0.2341  0.2140  0.1266
 9627W        W23041  16.946   1.390  12.765  0.1921  0.0037  0.0699
 9628W        W23042   6.097   9.959   2.976 -0.1435 -0.1124  0.2146
 9629W        W23043  13.524  17.939   0.566 -0.0510  0.3290  0.0423
 9630W        W23044   5.453   8.740   3.109 -0.2225  0.3168  0.0227
 9631W        W23045  14.631  10.724   0.066 -0.0750 -0.0918  0.0533
 9632W        W23046   0.478   9.317   0.524  0.0031 -0.1111 -0.0769
 9633W        W23047   1.061   1.150  13.432  0.1045 -0.0573  0.0159
 9634W        W23048   7.510  10.299   4.188 -0.2016 -0.0696  0.0231
 9635W        W23049   8.044  14.300   1.692 -0.0185 -0.3240  0.2107
 9636W        W23050   7.887  10.810  12.932  0.0405 -0.4856 -0.2266
 9637W        W23051  14.694   8.389  15.432 -0.0571 -0.2581  0.1116
 9638W        W23052  17.440  10.075   3.231  0.0868 -0.0477  0.1170
 9639W        W23053   0.558  13.440   6.445  0.0129 -0.0769 -0.2599
 9640W        W23054   1.194  16.505   5.683 -0.0094  0.0758  0.0487
 9641W        W23055   0.433  12.974   3.324 -0.2052 -0.0597  0.2114
 9642W        W23056   5.062  12.071   1.164  0.2614  0.1487 -0.3260
 9643W        W23057  16.220   7.754  14.314  0.0887  0.0031 -0.2696
 9644W        W23058   4.638   2.568   5.951 -0.0360  0.0798 -0.1205
 9645W        W23059   4.327   8.313  10.761 -0.1255  0.2058  0.2807
 9646W        W23060  11.671  12.545  15.252  0.0866 -0.1601  0.2194
 9647W        W23061  18.116   6.131  12.714  0.2190  0.0788 -0.2106
 9648W        W23062  10.950  11.128   1.210 -0.0119  0.1919 -0.0484
 9649W        W23063   1.432  16.696   2.210  0.1049 -0.3053 -0.2079
 9650W        W23064  13.783  17.575   4.114 -0.1451  0.1579 -0.0737
 9651W        W23065   2.250   8.286   3.473  0.0042 -0.0588  0.0034
 9652W        W23066  12.488   8.248   0.218 -0.1884  0.1247 -0.1945
 9653W        W23067  10.116  18.098  10.657 -0.1305  0.2499 -0.1641
 9654W        W23068  16.234  16.070   1.807  0.1159 -0.0857 -0.0290
 9655W        W23069  14.462   7.312   5.115  0.1787  0.0692 -0.4139
 9656W        W23070  13.185   4.882  12.499  0.1303  0.0413  0.0191
 9657W        W23071  17.577   4.426   6.316  0.4156 -0.0760  0.1237
 9658W        W23072   5.457   7.687   0.344  0.0553 -0.0695 -0.0418
 9659W        W23073  15.541  15.229  13.457  0.1299 -0.0143 -0.3631
 9660W        W23074  11.747   1.285   6.577 -0.0144  0.0591 -0.0677
 9661W        W23075  12.480  12.004   4.495 -0.1070  0.1561  0.0590
 9662W        W23076  13.217   2.856   2.951  0.2056 -0.1737 -0.0614
 9663W        W23077   4.277   6.544  15.923  0.0294 -0.0835 -0.3669
 9664W        W23078   8.477   5.226   0.784 -0.0270 -0.2189 -0.0660
 9665W        W23079  13.289   9.928  14.373 -0.0722  0.1843  0.1321
 9666W        W23080   1.947   9.034  12.189  0.0757 -0.2183  0.0341
 9667W        W23081  16.614   8.602  12.535  0.1326 -0.0700 -0.2358
 9668W        W23082   4.128   2.778   2.220  0.1747 -0.4722 -0.0808
 9669W        W23083   8.729  15.472   3.605 -0.0590 -0.5541  0.0462
 9670W        W23084   4.760   3.765  15.244  0.1919  0.1309 -0.2573
 9671W        W23085   9.500   4.410  12.977 -0.0170 -0.0486 -0.0865
 9672W        W23086   9.690   1.248   5.086  0.1232  0.0587  0.1845
 9673W        W23087  16.130  10.067   2.840 -0.3171  0.0563 -0.4928
 9674W        W23088  11.487  12.694  11.329 -0.1501 -0.0814 -0.3567
 9675W        W23089   7.555  14.617  12.709 -0.0984 -0.0144 -0.0753
 9676W        W23090   6.560  11.050   3.372  0.1738 -0.0277  0.1197
 9677W        W23091   4.598   6.075  12.669 -0.0578  0.0550 -0.2717
 9678W        W23092  16.381  14.941  11.314  0.4318  0.0085 -0.2468
 9679W        W23093   1.350   1.165   0.206  0.2839 -0.0164  0.2203
 9680W        W23094  13.541   5.625  15.676 -0.0065  0.0477 -0.1385
 9681W        W23095   1.393  15.010   4.253 -0.0764 -0.2123 -0.2022
 9682W        W23096  12.932   0.413  14.348  0.0496  0.2821 -0.1894
 9683W        W23097  11.956   8.089   5.363  0.0825 -0.0440 -0.1380
 9684W        W23098   9.819  10.849  13.538  0.3086  0.0597 -0.0261
 9685W        W23099  10.049   7.880   2.903  0.1418 -0.0062  0.0399
 9686W        W23100   1.573  14.098  13.089 -0.4895 -0.0214  0.1500
 9687W        W23101  16.129   1.971  15.813  0.4576  0.0164  0.0070
 9688W        W23102   3.937   4.833   3.850  0.1765  0.0922 -0.1956
 9689W        W23103  15.671   1.211   0.572  0.4675 -0.1089  0.1277
 9690W        W23104  17.902  13.893   3.380 -0.0730  0.2214 -0.2656
 9691W        W23105  17.940   1.857  15.662 -0.1058  0.0436 -0.1149
 9692W        W23106   4.266   4.533  10.684  0.0575 -0.0524 -0.1734
 9693W        W23107   4.480   9.323  16.219  0.2980  0.3190  0.1525
 9694W        W23108   0.122   9.879  15.367 -0.0918 -0.1092  0.2955
 9695W        W23109   5.879  15.511  15.878  0.0511  0.0682  0.2324
 9696W        W23110  14.745  11.810  13.878  0.1022  0.2381  0.1503
 9697W        W23111  13.361  15.139   4.043 -0.1217  0.1230 -0.3134
 9698W        W23112   7.740  14.572   2.720 -0.1855  0.1930  0.2597
 9699W        W23113   8.529   3.603   4.595 -0.0311 -0.0597  0.1764
 9700W        W23114  10.358   5.691   5.383 -0.3397  0.1235  0.0746
 9701W        W23115   8.705  18.061   0.791 -0.0293 -0.0739 -0.3356
 9702W        W23116   9.604  14.650  14.256  0.2057  0.0026  0.1804
 9703W        W23117   0.315   9.480   1.376 -0.1583 -0.3171  0.0266
 9704W        W23118   4.181   7.933  14.420  0.1497  0.0304 -0.0284
 9705W        W23119   2.430  12.403   2.187 -0.0770  0.0671  0.1451
 9706W        W23120   3.665   9.557   5.147 -0.1930 -0.3123  0.1397
 9707W        W23121  14.852  16.633   1.887  0.1205 -0.3275  0.1130
 9708W        W23122  12.429   1.563   9.657 -0.1291  0.2192  0.0432
 9709W        W23123  18.087  17.373  14.605  0.0522 -0.1883  0.0532
 9710W        W23124   1.417  10.114   2.696  0.1054 -0.0839 -0.1540
 9711W        W23125  18.359   8.292   2.943  0.1649  0.0333  0.1798
 9712W        W23126   4.268   9.662  11.642  0.1150  0.3080 -0.1357
 9713W        W23127   4.759   9.471  13.729  0.1021  0.0341 -0.0369
 9714W        W23128   1.706   3.320   0.655  0.1710 -0.0542 -0.1339
 9715W        W23129   2.699   6.229   1.094  0.1703  0.0258  0.0328
 9716W        W23130   9.569   7.113  14.146 -0.1981 -0.1436 -0.3864
 9717W        W23131  11.907   7.278  13.494 -0.0941 -0.1949  0.2475
 9718W        W23132  15.154  12.914   4.823  0.0530  0.3618 -0.1581
 9719W        W23133  17.455  12.688  12.959 -0.0538  0.0479 -0.0290
 9720W        W23134   9.940   5.942   5.632  0.0509  0.2462 -0.2888
 9721W        W23135   8.868  14.521  10.862  0.0198  0.3417  0.2570
 9722W        W23136   7.959   2.875   5.811  0.2714  0.1101 -0.1012
 9723W        W23137  12.416   0.768  15.976  0.0907 -0.5331  0.0479
 9724W        W23138   7.190   4.304  14.538  0.0953 -0.0845 -0.0864
 9725W        W23139   3.351  11.935   3.813 -0.1961 -0.0468  0.1762
 9726W        W23140  10.923   2.666   1.247 -0.1439  0.1705  0.0638
 9727W        W23141  10.893   9.238  13.090  0.1039 -0.1739 -0.2509
 9728W        W23142   8.996   3.861   2.134  0.1423  0.2112 -0.1142
 9729W        W23143   9.155   6.578  15.434 -0.0214  0.0184 -0.2564
 9730W        W23144  16.813   1.115  13.256 -0.0196  0.3993  0.3084
 9731W        W23145  18.434  17.818   1.848 -0.0088  0.1310  0.0112
 9732W        W23146  12.304   3.562  15.867  0.2997 -0.1924 -0.0439
 9733W        W23147  12.643   2.696   2.112 -0.1379  0.1316 -0.0280
 9734W        W23148   9.132   9.304  12.174  0.0229  0.1844  0.0483
 9735W        W23149   4.833   3.374   4.113 -0.3121  0.1227  0.2842
 9736W        W23150  15.529  11.575  11.434 -0.0236 -0.0389 -0.4995
 9737W        W23151  10.277  14.320   2.832  0.0123 -0.3019  0.2439
 9738W        W23152  12.312   9.102   1.225 -0.0724  0.0830  0.0170
 9739W        W23153  12.033   3.455  14.536 -0.1159 -0.3628 -0.3612
 9740W        W23154  13.905  13.592   4.643 -0.0934  0.0818  0.3500
 9741W        W23155   4.673  12.320   1.314  0.2781 -0.1178  0.0411
 9742W        W23156   3.900   4.357  12.752  0.4172 -0.4533 -0.0446
 9743W        W23157  11.674  14.106  14.071  0.1063  0.0342 -0.0167
 9744W        W23158  14.626  15.091  13.861  0.1960  0.2545  0.0297
 9745W        W23159  16.111   6.307  11.161  0.1303 -0.0208 -0.1227
 9746W        W23160  13.386  10.884   1.366 -0.1637 -0.0442 -0.2613
 9747W        W23161   3.210  14.670  11.130  0.0559 -0.0604 -0.0410
 9748W        W23162   8.393   8.293   3.393 -0.0831 -0.0286 -0.0355
 9749W        W23163  16.645   7.087  14.093  0.2136 -0.0872 -0.0566
 9750W        W23164   6.530  16.755  11.635  0.0277  0.0646  0.0523
 9751W        W23165   6.184  17.592   1.899 -0.0755  0.1155  0.3863
 9752W        W23166  14.173   3.252   0.685  0.1661  0.0218 -0.1249
 9753W        W23167  15.685  14.461  11.948  0.0930 -0.2412  0.2483
 9754W        W23168   0.285  17.992   5.363 -0.1149  0.3794  0.0942
 9755W        W23169  14.512   9.985  12.203  0.3017 -0.1741 -0.1763
 9756W        W23170   7.042  13.982   3.230 -0.0607  0.1682 -0.1015
 9757W        W23171  13.317  16.682  15.450  0.4072  0.0313  0.1982
 9758W        W23172   8.921   9.352   1.087 -0.1662 -0.1801  0.1041
 9759W        W23173  10.851  15.799   6.010 -0.0437 -0.3400  0.2631
 9760W        W23174   4.485   4.515  15.694 -0.1177 -0.3614  0.0106
 9761W        W23175  12.569  12.876   3.203 -0.2901  0.0927  0.1921
 9762W        W23176  13.128  15.749  14.397 -0.0966 -0.0283  0.3541
 9763W        W23177  13.883  12.885  13.389  0.2809  0.1162 -0.0625
 9764W        W23178  12.414   8.645  13.542  0.2651  0.0872 -0.1982
 9765W        W23179   4.576   1.248  11.591 -0.1260  0.4754 -0.0349
 9766W        W23180   7.054   3.835   4.572 -0.2504 -0.3369 -0.1049
 9767W        W23181  12.981   2.867  12.182 -0.3005  0.3467  0.0775
 9768W        W23182  12.464  11.920  12.092 -0.1718  0.2462  0.0222
 9769W        W23183   4.006   4.284  15.788  0.1876 -0.0759 -0.0556
 9770W        W23184  16.317  16.386  13.377  0.3131 -0.0115 -0.2106
 9771W        W23185   2.970   8.977   5.587  0.1418  0.1233  0.0743
 9772W        W23186  13.470   0.608  14.277 -0.1820  0.2712 -0.2460
 9773W        W23187   7.483  17.267  13.123 -0.1366 -0.0291  0.1321
 9774W        W23188   3.436   4.898  11.606 -0.1215 -0.2194 -0.1969
 9775W        W23189  10.998  10.571  15.211 -0.1855  0.0305 -0.1460
 9776W        W23190   1.863   9.931   6.035  0.0739  0.1930 -0.1511
 9777W        W23191   0.534  17.370  13.657 -0.2010 -0.0635 -0.1635
 9778W        W23192  16.489  11.507   5.166 -0.2627  0.0970 -0.0099
 9779W        W23193   0.784  11.293   0.307 -0.1127 -0.4562  0.0237
 9780W        W23194   6.610  15.425   1.092  0.1282 -0.1715  0.2372
 9781W        W23195   1.233  17.224  14.838 -0.0508  0.0388 -0.1115
 9782W        W23196  13.085   9.311   1.649  0.1685  0.0947 -0.0804
 9783W        W23197   6.976  16.236  11.557 -0.4015  0.2062 -0.2866
 9784W        W23198   8.818   9.161   1.552  0.2135  0.1368 -0.0461
 9785W        W23199  15.246   2.343   4.721 -0.1827  0.0371 -0.6877
 9786W        W23200   6.502  11.869  12.208 -0.3018  0.3014  0.1244
 9787W        W23201   7.090   1.523   5.412 -0.0865  0.1169 -0.0530
 9788W        W23202  13.381  15.435   4.577 -0.0160 -0.0628 -0.0253
 9789W        W23203   4.320   0.391  11.445  0.2122  0.1227 -0.1469
 9790W        W23204  11.748  17.906  11.578  0.2024 -0.2405 -0.0165
 9791W        W23205  13.212   0.235  15.293 -0.3893 -0.0981 -0.2786
 9792W        W23206   5.003  17.093  14.726  0.0584  0.0485  0.2154
 9793W        W23207  14.329   3.578   2.667  0.1958  0.1083  0.0067
 9794W        W23208  16.377  12.469   1.246 -0.0304  0.1048  0.0928
 9795W        W23209   1.371   8.682   0.924  0.0446  0.1925  0.2000
 9796W        W23210  17.828  11.274   1.832  0.0434  0.0172  0.3890
 9797W        W23211  13.508   5.237  12.715 -0.4589  0.1854  0.1525
 9798W        W23212   9.612  10.020   2.230  0.0065 -0.4174  0.2866
 9799W        W23213   3.081   7.747   5.938  0.3588 -0.0892  0.0589
 9800W        W23214   6.619  10.133   2.478 -0.2552 -0.4109  0.0103
 9801W        W23215   9.258   7.406  11.540  0.0779 -0.2476 -0.0556
 9802W        W23216  10.022   3.058  13.186  0.1117 -0.3543  0.1155
 9803W        W23217   5.743   3.312  13.372  0.0352  0.2919 -0.2862
 9804W        W23218   9.361   6.775   3.336  0.3025 -0.1527 -0.1678
 9805W        W23219   4.590  11.809   1.016  0.1064  0.2481  0.1060
 9806W        W23220  12.567   8.870  15.222  0.3125  0.1885 -0.0011
 9807W        W23221  12.684   6.523   2.322  0.0946 -0.0223  0.4983
 9808W        W23222  18.234  14.718  15.206 -0.1736  0.2457 -0.1665
 9809W        W23223  17.840  17.525  11.740 -0.0551  0.2429  0.3115
 9810W        W23224   3.874   9.924  12.350 -0.1397  0.0833 -0.2246
 9811W        W23225   1.570   2.577  14.747  0.4458  0.0970  0.1789
 9812W        W23226   3.940  16.996   4.065 -0.0574 -0.2797  0.2545
 9813W        W23227  10.794  16.184   5.581  0.2088 -0.0599 -0.0746
 9814W        W23228   3.907   2.122   4.267  0.2512  0.0812 -0.1045
 9815W        W23229   2.234   0.755   1.705  0.2101  0.0296 -0.0157
 9816W        W23230   0.478  16.385  13.597 -0.4329  0.0388  0.0989
 9817W        W23231   1.958   7.184   0.301 -0.0276 -0.0695 -0.0252
 9818W        W23232   9.164   4.321   1.477  0.0911  0.3526 -0.1983
 9819W        W23233  16.543   0.250   4.487 -0.0817  0.1129 -0.1744
 9820W        W23234   2.493  16.836   4.660  0.1144 -0.4374  0.3952
 9821W        W23235  17.771  17.460   2.595  0.2174  0.4080  0.2571
 9822W        W23236   4.204  13.763  11.537 -0.1893 -0.2272  0.0468
 9823W        W23237  17.045   5.407   4.268 -0.2177 -0.0950 -0.1992
 9824W        W23238  17.999   2.127   5.811 -0.0553 -0.3776 -0.0770
 9825W        W23239   6.166   6.814  14.264  0.3436  0.0766 -0.1115
 9826W        W23240  16.484  18.197   1.122 -0.1808 -0.1202  0.4076
 9827W        W23241  11.143  13.642  13.246 -0.1941  0.0306 -0.1100
 9828W        W23242   0.086   1.691  12.092 -0.0617 -0.0176 -0.0508
 9829W        W23243   0.783   2.569   2.290 -0.0172  0.1892  0.1520
 9830W        W23244   0.188  18.073   4.893 -0.3942  0.0409  0.2456
 9831W        W23245  12.950  17.600  11.018  0.1124 -0.0392 -0.0392
 9832W        W23246  14.351   9.343  13.065  0.1598  0.0638 -0.2419
 9833W        W23247   1.100   9.001  15.172 -0.1126 -0.0541  0.2432
 9834W        W23248   2.624  12.300   0.542  0.0582  0.1606 -0.0060
 9835W        W23249  16.269   6.667   6.333  0.0019 -0.1866 -0.0646
 9836W        W23250  16.882  10.597  12.821  0.0434  0.1445 -0.0497
 9837W        W23251  11.158  11.539  15.856  0.0403 -0.0143 -0.1782
 9838W        W23252  11.964  16.950   1.725  0.2153 -0.1272 -0.1022
 9839W        W23253  17.928   7.906   5.724  0.1368  0.0970  0.1912
 9840W        W23254   5.839   8.736  15.769  0.1554  0.1262 -0.0087
 9841W        W23255   3.709  14.221  15.395  0.0027  0.0124  0.0024
 9842W        W23256   4.790  17.477  12.382 -0.1175 -0.0744 -0.1988
 9843W        W23257   2.202  16.959  13.342 -0.0154 -0.2045  0.0097
 9844W        W23258  10.588  18.362   3.828 -0.2550 -0.1281  0.2515
 9845W        W23259   5.225   5.379  15.149 -0.1805  0.0837 -0.0562
 9846W        W23260   6.749  16.367  10.304  0.0991 -0.0620 -0.0172
 9847W        W23261   9.307   6.162   1.096 -0.0416 -0.0692 -0.0719
 9848W        W23262   1.664  17.353  15.214 -0.1228  0.0160  0.0829
 9849W        W23263   4.158  11.319   3.687  0.2850 -0.0173 -0.2747
 9850W        W23264   4.712   5.139   0.630  0.1301  0.0756 -0.0028
 9851W        W23265   6.803   8.297  15.703  0.0845 -0.0693  0.2495
 9852W        W23266   8.772  16.365   1.267  0.2467  0.1389 -0.3291
 9853W        W23267   6.134   4.379  15.660 -0.0475 -0.4138 -0.0832
 9854W        W23268  17.877   4.052  13.301 -0.3978  0.2113  0.2653
 9855W        W23269  12.690   2.086   1.988  0.1597 -0.2737  0.2627
 9856W        W23270  16.619  12.056   2.876  0.2573 -0.2344 -0.0122
 9857W        W23271   6.954   7.953   3.986  0.1584 -0.0670 -0.5137
 9858W        W23272   7.306  17.942   5.087 -0.0366 -0.2625  0.1323
 9859W        W23273   8.792  16.926   5.875 -0.1100  0.0633  0.1624
 9860W        W23274   7.831   1.562   1.991 -0.0020 -0.0266 -0.0189
 9861W        W23275   6.785  13.790   0.386 -0.1013  0.3247 -0.2138
 9862W        W23276   6.340  15.155  13.460 -0.2780  0.2233  0.2547
 9863W        W23277   0.390   7.558  15.790  0.2315 -0.1972  0.3321
 9864W        W23278  13.802  17.130   4.989 -0.1241  0.0058 -0.1543
 9865W        W23279   0.833  13.038   1.974  0.1046 -0.0048 -0.2512
 9866W        W23280   3.101   5.915   5.494  0.1216 -0.1042  0.1940
 9867W        W23281  13.103   6.212   1.879 -0.3876  0.2009  0.2385
 9868W        W23282   1.276   3.158  15.630  0.2551 -0.0490 -0.0109
 9869W        W23283  14.111   7.491  14.837 -0.4509 -0.1033 -0.0799
 9870W        W23284  14.296   6.014   5.514 -0.0701  0.0740  0.0389
 9871W        W23285   4.197   3.794   1.412 -0.0196 -0.2549  0.1860
 9872W        W23286   6.795   8.583  12.760 -0.0889 -0.0528  0.3949
 9873W        W23287  11.658  16.067  14.768  0.3379  0.4797 -0.1083
 9874W        W23288   2.824   8.568   1.092  0.4245  0.1357  0.1463
 9875W        W23289   9.537  16.577   1.698 -0.1886 -0.0038  0.0661
 9876W        W23290  16.611  13.938   3.302 -0.2495 -0.0287  0.2383
 9877W        W23291   0.958   2.228   3.271 -0.0652 -0.0218 -0.1446
 9878W        W23292   3.529   6.363   0.707 -0.2239 -0.2367 -0.0100
 9879W        W23293  15.618   2.052   0.506  0.1983  0.0751  0.4329
 9880W        W23294  16.670   5.434  13.869 -0.0368 -0.1042  0.2235
 9881W        W23295  14.454   7.580   7.294 -0.0029 -0.2397 -0.2968
 9882W        W23296   6.298   8.737  12.806 -0.3214 -0.0468 -0.0930
 9883W        W23297   3.857   7.656  11.291 -0.0788 -0.0184 -0.3167
 9884W        W23298  14.460  16.649  11.399  0.1847  0.0550  0.1521
 9885W        W23299   1.893  13.928   5.674 -0.2802  0.2589 -0.0674
 9886W        W23300   7.404  17.022  12.650 -0.1781  0.0010  0.2160
 9887W        W23301  14.930   8.523  12.342 -0.0614 -0.2384  0.1591
 9888W        W23302   4.121   7.609   5.235  0.0169 -0.0832 -0.1060
 9889W        W23303   1.711  12.019  14.242  0.0123 -0.3381 -0.2482
 9890W        W23304  17.493   8.985  14.133 -0.3460  0.1121  0.2582
 9891W        W23305  13.301  10.028   3.755  0.0779  0.3979  0.1915
 9892W        W23306   1.827   2.683   2.607 -0.4216  0.3035 -0.1997
 9893W        W23307  12.840   7.696   1.528 -0.1732  0.2019 -0.1241
 9894W        W23308  15.569  16.636  13.234  0.2074 -0.0365  0.0385
 9895W        W23309  10.198   8.122  11.306 -0.0638 -0.1826  0.0438
 9896W        W23310   2.354   5.727  12.063  0.1753 -0.0899  0.1382
 9897W        W23311  12.470   5.758  11.006 -0.0162 -0.1322  0.4476
 9898W        W23312  12.887  11.957   2.735 -0.0065  0.0827 -0.4059
 9899W        W23313   0.717   7.086  13.406 -0.0382  0.0842 -0.3033
 9900W        W23314   2.930  16.004  15.526  0.2443  0.1382 -0.1560
 9901W        W23315  15.487  15.072  14.911 -0.0741  0.3664  0.1480
 9902W        W23316   0.735  15.988  14.294  0.1454  0.0514  0.3357
 9903W        W23317   5.744   5.658   1.947 -0.3084 -0.1282 -0.0488
 9904W        W23318  13.113   6.792  13.340 -0.3578 -0.1545 -0.2478
 9905W        W23319   3.716  15.227  12.477 -0.3501  0.1136  0.2283
 9906W        W23320  12.520  17.839   9.461  0.0776 -0.3835 -0.2887
 9907W        W23321  11.227  16.056  14.537  0.0297 -0.4400 -0.0528
 9908W        W23322   4.323   3.116  16.004  0.1676  0.1227 -0.0104
 9909W        W23323   6.868  16.295  12.790  0.2691  0.0913 -0.1618
 9910W        W23324   4.864   3.892   5.523 -0.1950  0.0934 -0.1160
 9911W        W23325   4.877   8.798  14.998  0.4433 -0.1239  0.3283
 9912W        W23326  14.741   4.498   0.199 -0.1613 -0.0736  0.1793
 9913W        W23327  15.699   5.878  11.574 -0.0380 -0.1589 -0.2597
 9914W        W23328  16.877  14.013   1.990 -0.1433  0.0628  0.1838
 9915W        W23329   1.639   2.938  15.298  0.0624 -0.0221 -0.0576
 9916W        W23330   0.758  14.056   0.070 -0.1802 -0.1436 -0.4829
 9917W        W23331   3.237   1.950   3.658  0.0770 -0.1066  0.2044
 9918W        W23332  15.818  13.707  14.722  0.2288  0.1611  0.1041
 9919W        W23333  13.516   7.311  15.223  0.0496  0.0731  0.0260
 9920W        W23334  10.157  12.411  11.171 -0.1799  0.1629  0.0535
 9921W        W23335   0.307   2.732   2.063 -0.1473  0.0533  0.0251
 9922W        W23336   3.057  12.015   2.198 -0.2660  0.0374 -0.2353
 9923W        W23337   1.068   1.602   0.552 -0.0867 -0.0595 -0.0684
 9924W        W23338   6.208  15.033  14.020 -0.3199 -0.0209 -0.0904
 9925W        W23339   7.745   2.906  12.650 -0.1488  0.0764  0.1018
 9926W        W23340  18.318  16.597  10.755 -0.2179 -0.0623  0.2978
 9927W        W23341   8.835   7.152   1.751 -0.0608 -0.2913 -0.0244
 9928W        W23342  14.185  17.103  11.307  0.2016 -0.0603  0.2568
 9929W        W23343   5.924   9.926   4.578 -0.0763  0.1027 -0.0305
 9930W        W23344   1.452  14.519   4.171 -0.0447 -0.0358 -0.1821
 9931W        W23345  14.664  12.641  13.526  0.3715 -0.1675  0.0594
 9932W        W23346   0.465  13.397  13.037  0.0388 -0.1159 -0.4037
 9933W        W23347   7.016   1.263  15.223 -0.1521  0.1523  0.2159
 9934W        W23348   2.985   8.796   3.381  0.2276  0.0517  0.0825
 9935W        W23349  11.973   4.869  16.063  0.0973 -0.0798 -0.0985
 9936W        W23350  14.997   7.068  14.321 -0.4006 -0.0399  0.0356
 9937W        W23351  12.422   0.291  10.575 -0.0248 -0.0165 -0.0614
 9938W        W23352   4.131   4.867   0.068 -0.1324  0.2721 -0.2972
 9939W        W23353  16.668   4.976   3.395 -0.0662 -0.4525 -0.1408
 9940W        W23354   3.255  15.400  16.094  0.2656  0.3115  0.2398
 9941W        W23355  12.741   7.431   4.285 -0.0763 -0.2618 -0.1091
 9942W        W23356  10.467  10.998   1.673 -0.1616  0.0514 -0.0335
 9943W        W23357   1.779  13.642   0.833  0.0369  0.0422 -0.3079
 9944W        W23358   2.720   5.431   0.665 -0.0974 -0.0606 -0.2739
 9945W        W23359   3.952   6.222   2.214 -0.2315  0.1450  0.0548
 9946W        W23360   6.154   8.360  15.198  0.2612 -0.0474  0.0022
 9947W        W23361  15.963   4.075   6.405  0.1224  0.0450  0.1282
 9948W        W23362  15.692   9.092   2.692  0.0189 -0.1796 -0.0208
 9949W        W23363   9.184  17.386   0.911 -0.2526 -0.2689  0.2294
 9950W        W23364  18.164   6.327  12.194 -0.2531 -0.0430 -0.1759
 9951W        W23365   0.021  13.118  15.600  0.0108  0.1894 -0.1553
 9952W        W23366   2.968   2.465   1.054  0.0957  0.0313  0.3539
 9953W        W23367   8.019  10.447   4.310  0.3410 -0.2015 -0.4257
 9954W        W23368   4.977   8.431   4.719  0.1808 -0.0033  0.0170
 9955W        W23369   2.018  11.241  12.427  0.0793  0.2096 -0.1261
 9956W        W23370   5.426  15.260   4.158 -0.2407  0.1732 -0.0799
 9957W        W23371  12.638  16.364   5.029  0.1517 -0.0160 -0.1021
 9958W        W23372  14.322  17.846   5.214 -0.2942  0.2106 -0.1604
 9959W        W23373   1.611  11.673  11.593 -0.0560 -0.3876 -0.1069
 9960W        W23374  15.463   0.856  11.713 -0.0924  0.0542 -0.0045
 9961W        W23375  14.060  16.793   4.563 -0.2707 -0.0722 -0.1957
 9962W        W23376  10.926   9.932   0.562  0.1084  0.0211 -0.3802
 9963W        W23377   2.266   8.717  15.694 -0.0298  0.1177  0.0561
 9964W        W23378  12.152   9.685  11.822 -0.2151  0.0890 -0.2667
 9965W        W23379   5.622   7.129   2.617 -0.2158 -0.2057 -0.1185
 9966W        W23380   7.709   9.316   0.920 -0.1398 -0.1351 -0.4452
 9967W        W23381   6.585  13.715  14.292  0.1251  0.2678  0.2977
 9968W        W23382  13.401   2.330   1.063  0.1340 -0.0164  0.1063
 9969W        W23383  14.662  10.004   5.669 -0.0951  0.0655  0.0857
 9970W        W23384  13.964   4.972   2.993 -0.1368 -0.0454  0.1127
 9971W        W23385  14.690  18.098   1.709  0.0286 -0.0862 -0.2301
 9972W        W23386   1.551  11.491   1.336  0.1882 -0.0469  0.0626
 9973W        W23387   7.128  11.607   3.550  0.3754  0.3527 -0.0014
 9974W        W23388   0.714   6.895   3.047 -0.2960  0.0357 -0.1508
 9975W        W23389  11.683   9.840  12.766  0.1831  0.0812 -0.0012
 9976W        W23390  10.204  11.999  14.887  0.1664  0.1693  0.1309
 9977W        W23391   9.633  17.478   3.390  0.4290 -0.0891  0.0664
 9978W        W23392  10.745   7.066   0.152 -0.2448 -0.1227 -0.3329
 9979W        W23393  14.422   1.462  10.365 -0.0441  0.2259 -0.1460
 9980W        W23394  10.522   4.510   9.851 -0.4768 -0.0493  0.1644
 9981W        W23395   6.738   8.711  16.052  0.3710 -0.1840 -0.1110
 9982W        W23396   4.159  11.480  15.603 -0.5004 -0.0693 -0.1483
 9983W        W23397   3.756  14.999  13.690  0.1203  0.0357 -0.1871
 9984W        W23398  12.784   8.702  14.789  0.3293  0.2752  0.3159
 9985W        W23399  15.988   5.517   2.023 -0.1537  0.0216 -0.2911
 9986W        W23400   6.270   0.615   4.643 -0.0788 -0.0178  0.1179
 9987W        W23401   7.092  13.732  14.587  0.0590  0.2006 -0.0603
 9988W        W23402   2.302  15.807  10.946 -0.1039  0.0407  0.1922
 9989W        W23403  13.136   9.588   5.783 -0.0867 -0.0026 -0.0270
 9990W        W23404  14.420   8.359   7.005 -0.0667 -0.1528  0.2881
 9991W        W23405  15.004  12.325   1.735 -0.0053 -0.0110 -0.3972
 9992W        W23406   6.601   8.972  13.942 -0.0427  0.0413 -0.1526
 9993W        W23407   9.311   6.683  15.007  0.1138 -0.2936  0.2188
 9994W        W23408  12.664   1.047   3.209  0.2334 -0.2070  0.3824
 9995W        W23409   2.054  13.484   1.228 -0.0307 -0.0555 -0.1537
 9996W        W23410   1.164   0.759   4.512  0.2443 -0.0602  0.0976
 9997W        W23411   1.179   2.973   6.055 -0.1461  0.0658 -0.4980
 9998W        W23412   2.760   5.012   5.735 -0.0785 -0.0583 -0.2781
 9999W        W23413   5.196  11.420   3.772  0.0311  0.2468  0.1614
10000W        W23414   5.022  16.825  13.122  0.2430  0.0672 -0.0583
10001W        W23415  18.100  15.312   0.458  0.0912 -0.2245 -0.0487
10002W        W23416  15.339  13.521  10.816  0.1955 -0.1294 -0.0752
10003W        W23417   3.528   3.832  16.182 -0.1398  0.0089  0.3465
10004W        W23418  14.701  17.646   1.439  0.1064 -0.4481  0.2100
10005W        W23419  16.866   1.571   1.997 -0.0760  0.2357  0.0487
10006W        W23420   9.415  12.781  13.939 -0.0135  0.1351 -0.0593
10007W        W23421  17.040   8.120  14.060  0.0124 -0.0907  0.0004
10008W        W23422   4.689   2.192  13.506 -0.0296 -0.2443 -0.0202
10009W        W23423  13.498   4.098   0.334  0.2656  0.0411  0.0963
10010W        W23424   1.555   8.804   3.700 -0.0832  0.0319 -0.1115
10011W        W23425  12.174   4.704   1.761  0.0176  0.2158  0.1332
10012W        W23426   0.863  11.570  14.790 -0.1137  0.4248  0.1445
10013W        W23427   6.110  15.478  15.385 -0.0087 -0.2858  0.0510
10014W        W23428  14.559  12.276  13.859 -0.3666 -0.0120  0.0715
10015W        W23429   4.954   7.833  12.265 -0.0902 -0.0606 -0.4453
10016W        W23430   4.585   4.856  16.015 -0.0220 -0.0327  0.1198
10017W        W23431   7.356  14.268   0.226  0.2484  0.1475  0.1236
10018W        W23432  17.953   7.372  16.264  0.0748  0.2037 -0.2745
10019W        W23433  10.312   1.235  13.849 -0.0011 -0.2437 -0.2271
10020W        W23434  10.647   7.993  14.923  0.2391  0.0170  0.1980
10021W        W23435   0.811  15.064  13.427 -0.0436  0.3032 -0.0530
10022W        W23436  14.603   1.668   2.053 -0.1661 -0.2446  0.0892
10023W        W23437  13.429   5.060  13.512  0.0772 -0.1006  0.1010
10024W        W23438  13.151  14.756  13.934 -0.3898 -0.1918 -0.0625
10025W        W23439   0.619   1.715  15.618  0.2704  0.1136  0.2813
10026W        W23440  13.155   0.452   0.204 -0.1148 -0.0422 -0.0315
10027W        W23441   9.498   4.037   4.057  0.0300 -0.0187 -0.1653
10028W        W23442  15.132   1.780   4.203 -0.3336  0.3384 -0.1002
10029W        W23443  14.618   8.486   5.742  0.1703  0.1129 -0.0051
10030W        W23444   1.425   2.251   3.862  0.2884  0.0795  0.2773
10031W        W23445   3.687   0.915  11.336  0.1050  0.0084 -0.1430
10032W        W23446   5.458   3.765   2.824 -0.1863  0.1007 -0.0174
10033W        W23447   5.962   1.756   2.149  0.1400  0.1031 -0.1269
10034W        W23448   8.056   9.972  13.507 -0.1278  0.0709 -0.2959
10035W        W23449  13.286  11.590   5.494  0.0241  0.0536 -0.4196
10036W        W23450  14.920   1.252   2.190 -0.0288 -0.3776  0.2279
10037W        W23451   5.720   2.008   2.578  0.4290  0.2119  0.0870
10038W        W23452   8.668  10.333  11.540  0.0241  0.0261  0.1004
10039W        W23453  12.803  17.931  15.592 -0.0137  0.0108 -0.0355
10040W        W23454   5.180   0.131   3.393  0.0456  0.4842  0.0492
10041W        W23455   1.031   0.577  13.079  0.0234 -0.0448 -0.1872
10042W        W23456   7.097  10.872  10.541 -0.4544  0.1478 -0.0541
10043W        W23457   6.614   6.488   4.960 -0.2764 -0.1040 -0.0564
10044W        W23458   2.266  15.058  11.740  0.2127  0.4130  0.1328
10045W        W23459  12.880  11.008   4.646  0.1880  0.1100 -0.0136
10046W        W23460  12.491  10.762  14.022 -0.2362  0.0937  0.1582
10047W        W23461   2.085   0.165   2.395  0.2531 -0.1412 -0.0102
10048W        W23462  15.370  16.230   5.267 -0.4506  0.2063  0.2266
10049W        W23463   5.222  10.937  14.748 -0.0352 -0.0972  0.4097
10050W        W23464   0.412   4.004   1.138 -0.0244 -0.1051 -0.1009
10051W        W23465  10.336   8.726   3.101  0.0125  0.1937 -0.1293
10052W        W23466   0.813   1.077  11.922 -0.2856  0.0496  0.0880
10053W        W23467  10.293   2.266  13.308 -0.0087 -0.1265  0.1520
10054W        W23468  10.165  16.946   9.931  0.1260  0.0186  0.0369
10055W        W23469  10.575   0.052   2.724  0.0884  0.1864  0.1574
10056W        W23470   5.160   6.109   1.360 -0.1401  0.1518  0.2141
10057W        W23471  11.328   7.007   3.999 -0.3299 -0.4273 -0.0675
10058W        W23472   8.383   8.527  10.381  0.3343 -0.1121 -0.0585
10059W        W23473  14.117  17.142  12.447 -0.1031 -0.0428 -0.1979
10060W        W23474   3.122   8.043  10.783  0.0154 -0.4196  0.0845
10061W        W23475  12.988   9.864  16.139 -0.0781 -0.4581 -0.3993
10062W        W23476   4.093   6.078   1.211 -0.2118 -0.3754  0.0947
10063W        W23477   9.661  13.098  12.902  0.0850  0.2906 -0.3455
10064W        W23478   2.631   7.081  11.468  0.1702 -0.0386 -0.1045
10065W        W23479  16.824   6.722  12.659  0.1123  0.2450  0.0040
10066W        W23480   0.396  15.147   4.729 -0.0673  0.0275  0.1518
10067W        W23481  15.285  11.274   1.255  0.1952 -0.1202 -0.2704
10068W        W23482  12.818   7.874   0.331 -0.0342  0.4475  0.0471
10069W        W23483  14.286  16.403  14.556  0.0482 -0.3061  0.4040
10070W        W23484  16.785   3.432  13.226  0.2030 -0.3836 -0.0416
10071W        W23485   0.401   9.897   1.711  0.1523 -0.2869  0.0438
10072W        W23486  17.589   2.524  14.697  0.0055 -0.3251 -0.4745
10073W        W23487  13.475   5.407  16.180 -0.2097 -0.0668 -0.2161
10074W        W23488   0.756  18.249  12.087 -0.4002 -0.0074 -0.1130
10075W        W23489   1.740  17.008  13.581  0.1099 -0.1098  0.0580
10076W        W23490   2.064  17.678   6.703 -0.0474 -0.1455 -0.2920
10077W        W23491  13.628   5.099  11.753 -0.2066 -0.0274 -0.1608
10078W        W23492  15.949   4.924  11.608  0.1561 -0.1355 -0.1490
10079W        W23493  12.337   7.447  11.427 -0.3214  0.1343  0.0097
10080W        W23494  14.451   0.954   4.379 -0.0081 -0.2359 -0.1517
10081W        W23495   3.405  11.464  13.757 -0.1560 -0.2715  0.1195
10082W        W23496  15.081   6.084   3.253 -0.0762  0.1570  0.1287
10083W        W23497   8.971   0.473   4.488  0.0244 -0.1764  0.1329
10084W        W23498  11.759   8.555  12.641  0.0607  0.0544  0.1418
10085W        W23499   9.224  18.186  11.169 -0.0455 -0.0852  0.1352
10086W        W23500  14.364   3.267  12.423  0.0299  0.1397  0.0389
10087W        W23501   8.841   6.052   4.931 -0.3897 -0.0727  0.1627
10088W        W23502   3.577  11.843   1.588  0.1159 -0.1528  0.2784
10089W        W23503  18.132  10.023  10.517 -0.1589 -0.1657 -0.1972
10090W        W23504   7.811   3.215  10.725 -0.0125  0.3283  0.2007
10091W        W23505   6.627   8.444   2.311  0.1567 -0.3132  0.3804
10092W        W23506   7.084   6.331  13.344  0.2663  0.0810 -0.0233
10093W        W23507  18.024  14.141  15.853  0.2854  0.0274  0.0995
10094W        W23508   7.043   1.945  14.564  0.0453 -0.0759 -0.3506
10095W        W23509   6.371  13.408   4.484 -0.0947 -0.2742 -0.0774
10096W        W23510  15.502  13.594  13.500 -0.1511 -0.0145  0.0974
10097W        W23511  12.864  18.131   9.240  0.1014 -0.0153  0.2055
10098W        W23512  13.968   5.767   2.565 -0.0187 -0.0819 -0.0537
10099W        W23513  12.642   1.871   4.764 -0.1790 -0.2289  0.2562
10100W        W23514  13.508  10.296  14.877  0.0520 -0.0075  0.1988
10101W        W23515  15.084   5.643  10.853 -0.2543  0.1318  0.0583
10102W        W23516   5.707   1.391  13.663  0.0841  0.3247 -0.1368
10103W        W23517   1.494  17.176  11.218  0.0457 -0.0217  0.1641
10104W        W23518  10.349   0.191   1.187  0.2819 -0.3698  0.0363
10105W        W23519   9.780   6.899  12.104  0.3451  0.3680  0.0083
10106W        W23520   7.918  11.132  12.256 -0.0653 -0.2000 -0.0113
10107W        W23521   7.108   3.752   4.042  0.0509 -0.1238 -0.0941
10108W        W23522   0.811   1.247   4.110 -0.0206  0.0353 -0.1493
10109W        W23523   4.296   2.573   3.219 -0.0146 -0.1229  0.3149
10110W        W23524  14.250   3.344  11.864  0.0443 -0.0011 -0.1889
10111W        W23525   1.753  13.129  11.658  0.0902 -0.0254 -0.1392
10112W        W23526  15.317   2.689   4.276 -0.3330 -0.1195 -0.2653
10113W        W23527   0.437   8.983   4.532 -0.0771 -0.3240 -0.0449
10114W        W23528   9.846  14.386  10.129  0.1599  0.2153 -0.0335
10115W        W23529   3.437   5.504   4.695 -0.0018 -0.0187  0.1434
10116W        W23530  14.333   3.929   0.801 -0.1482  0.3654  0.0366
10117W        W23531  10.993  16.755   1.784 -0.2300 -0.4986 -0.0088
10118W        W23532   6.385  16.297   3.908 -0.0650 -0.0574  0.0769
10119W        W23533  16.950  10.717  12.353 -0.0438 -0.1180  0.1657
10120W        W23534   6.372  12.122  14.321  0.0253 -0.0608 -0.1238
10121W        W23535   0.230   9.864   6.843 -0.1897 -0.0328  0.2388
10122W        W23536  16.029  13.939   3.301  0.1112  0.1028  0.2135
10123W        W23537   2.587  13.686   0.053 -0.0275  0.2220 -0.2476
10124W        W23538  17.363  17.638  11.877 -0.1220 -0.0626  0.2582
10125W        W23539  16.329  12.896   1.526 -0.0375  0.0685 -0.1068
10126W        W23540   5.214  13.493   4.286 -0.1842 -0.1323  0.1193
10127W        W23541   7.470  15.761   4.972  0.2957 -0.0627  0.5544
10128W        W23542  15.148  15.179  16.055 -0.0796  0.1415 -0.2059
10129W        W23543   4.103  15.795   9.758  0.2063  0.1149  0.1710
10130W        W23544   1.908   0.176  13.736  0.0126  0.1021 -0.0992
10131W        W23545   9.625  17.557   9.592 -0.0815  0.0989  0.0775
10132W        W23546  12.045   5.439  12.975  0.0366 -0.0256  0.0970
10133W        W23547  12.545   8.365  12.039 -0.2382 -0.1439 -0.2411
10134W        W23548  11.737  16.476  13.707  0.0452  0.1966  0.0220
10135W        W23549   2.560   3.234  15.366  0.0435 -0.2340 -0.0904
10136W        W23550   7.327  11.197   9.828 -0.0300 -0.0650 -0.1158
10137W        W23551  14.297   8.667  13.747  0.0614  0.2037  0.0400
10138W        W23552   3.498  15.928   4.071  0.3091  0.3872  0.2946
10139W        W23553   5.195   9.243   5.527 -0.2535  0.0807  0.1159
10140W        W23554   1.650   6.232  12.470  0.1801  0.1911 -0.0248
10141W        W23555   1.241  15.202   0.196  0.1868  0.0282 -0.0682
10142W        W23556  11.672  10.501  11.634  0.2840 -0.1346 -0.4357
10143W        W23557   5.712   7.941  15.524 -0.1302  0.0338  0.3947
10144W        W23558  12.702  12.420   0.998  0.0750  0.1063  0.1101
10145W        W23559  13.886  11.249   0.522 -0.1611  0.2259 -0.0690
10146W        W23560  15.308   1.777  12.681 -0.0158  0.2936  0.2957
10147W        W23561   7.681  17.748   5.479  0.0626 -0.2148  0.5527
10148W        W23562  18.402  13.261  11.699  0.3581  0.2816 -0.0381
10149W        W23563  10.138  15.772   2.837  0.2674  0.1279 -0.2232
10150W        W23564  16.267  10.454  14.414 -0.1879 -0.3389  0.0095
10151W        W23565   9.800   8.775   4.402  0.0739  0.1687 -0.0752
10152W        W23566  10.545   0.489  10.426 -0.1724 -0.0793  0.0950
10153W        W23567   2.277   4.609  15.300  0.2197  0.1628  0.4377
10154W        W23568   2.626   1.956   5.468  0.0655  0.2234 -0.1262
10155W        W23569   2.609  16.568   5.230 -0.2337 -0.2385  0.2673
10156W        W23570   6.679   5.975  13.225 -0.2534  0.1252 -0.0743
10157W        W23571  14.003  13.945   1.926 -0.0092  0.0166  0.1196
10158W        W23572   5.001   5.864  12.857 -0.2336  0.2800  0.2117
10159W        W23573   3.874   0.449  16.243 -0.1770  0.4938 -0.4626
10160W        W23574  12.503  10.708   3.254  0.0657  0.0538  0.0648
10161W        W23575  16.353   1.262   1.151  0.0214  0.2519  0.0617
10162W        W23576  16.265   8.644   6.642  0.1642 -0.1662 -0.0913
10163W        W23577  16.886   6.785  11.528  0.0667  0.1832  0.0584
10164W        W23578  18.130   5.821  14.020  0.3193  0.0367  0.1201
10165W        W23579   0.220   4.911   1.382  0.2154 -0.0605 -0.1207
10166W        W23580   6.548   9.266  11.277  0.0063 -0.1949 -0.1898
10167W        W23581  17.394   3.454  13.332  0.3280 -0.1996  0.1224
10168W        W23582   6.434   7.481   4.790 -0.3497  0.1725  0.2354
10169W        W23583   2.585   6.916   6.265 -0.2319  0.2410  0.3537
10170W        W23584   0.673   7.737  13.922  0.2162 -0.0055 -0.0846
10171W        W23585  17.596   8.778   6.338 -0.1467 -0.0481 -0.1558
10172W        W23586   2.013   8.741   3.416  0.0367 -0.1860  0.3017
10173W        W23587   3.416   1.555   6.261 -0.1331  0.1641 -0.2466
10174W        W23588  15.296  12.435   0.842 -0.0760  0.2970  0.2333
10175W        W23589   3.644  10.331  13.947  0.0562  0.0875  0.0235
10176W        W23590  10.177  15.036  11.144 -0.0609  0.1138  0.0779
10177W        W23591  18.296   7.233  12.438  0.1439  0.1751 -0.0145
10178W        W23592  16.359  11.862   2.394 -0.1876  0.2215  0.0119
10179W        W23593  17.377   7.590   5.525  0.0857 -0.0134 -0.0636
10180W        W23594  18.211   1.451   2.405  0.2957 -0.2148 -0.2103
10181W        W23595   3.280   0.623  13.362 -0.2827  0.0702  0.1767
10182W        W23596   3.142   7.060   0.044 -0.2146  0.1817  0.0535
10183W        W23597  15.637   0.481  11.127  0.1664 -0.0364 -0.0695
10184W        W23598   1.191   7.917   3.606 -0.0853 -0.3358 -0.1248
10185W        W23599   5.287   6.859   1.253 -0.1003 -0.0907  0.1303
10186W        W23600   4.613  16.422   5.282  0.0925 -0.3570 -0.0808
10187W        W23601  12.888  16.705  15.134  0.3168 -0.1435 -0.2310
10188W        W23602  14.299  14.894   0.046 -0.1811 -0.1070 -0.1962
10189W        W23603  17.048   8.882  12.415  0.3481 -0.0487  0.4145
10190W        W23604   0.890  10.647  11.516  0.1501 -0.0929 -0.0416
10191W        W23605  17.765   4.558  15.516  0.0092 -0.0296  0.1572
10192W        W23606   5.924  12.959   3.869 -0.1633  0.0212 -0.0658
10193W        W23607   3.785  15.446  16.267  0.1531 -0.0646 -0.0667
10194W        W23608  10.327  11.565  16.207  0.0078  0.0089 -0.2527
10195W        W23609   5.614  17.493   5.369 -0.2517 -0.3579 -0.3573
10196W        W23610  12.340   0.558   2.878 -0.2921 -0.1625 -0.1997
10197W        W23611   4.172   1.845   3.613 -0.1592  0.2097  0.0208
10198W        W23612   5.672  11.572   4.122  0.3129  0.0167 -0.2105
10199W        W23613   7.386   1.123   5.180 -0.2297  0.0817  0.2465
10200W        W23614  12.033   5.038   0.245  0.0540 -0.1721  0.0226
10201W        W23615  13.610   6.979   6.350  0.0733 -0.0386 -0.2090
10202W        W23616   4.369   5.816   0.767  0.2095 -0.0135  0.0105
10203W        W23617  11.098  14.790  15.698  0.0494 -0.0887  0.0476
10204W        W23618   7.787   4.590  12.273  0.0187  0.4690  0.0511
10205W        W23619  16.824  16.348   5.644  0.1906 -0.0890  0.1134
10206W        W23620  17.018  10.598  14.834  0.2088  0.1263 -0.0257
10207W        W23621  14.609  12.332  15.115  0.0059  0.0690  0.1659
10208W        W23622  10.343   9.227  16.253 -0.1549  0.0494 -0.1837
10209W        W23623   2.005  17.087   0.163  0.2372 -0.2267  0.0277
10210W        W23624  17.628   8.206   5.386 -0.0552 -0.1415  0.0687
10211W        W23625   7.280  16.685   4.142 -0.1224 -0.2519  0.1353
10212W        W23626  10.234  14.610   2.016  0.1720 -0.2911  0.2686
10213W        W23627   1.924   1.538   1.877 -0.1958 -0.0545  0.0878
10214W        W23628  14.200  12.478  16.015 -0.0013 -0.2965  0.1047
10215W        W23629   8.769  12.365  15.668 -0.1320  0.0891 -0.1741
10216W        W23630  10.444  10.512   5.476 -0.0136  0.0447 -0.0904
10217W        W23631   5.277  15.762  10.975  0.1875 -0.3301  0.5145
10218W        W23632  11.010   3.460  15.153  0.0660  0.2530  0.2852
10219W        W23633  16.413  15.319   2.246 -0.2494 -0.3592 -0.1217
10220W        W23634   4.396  11.074  15.691  0.1382  0.0119 -0.2390
10221W        W23635   8.838  10.454   4.614 -0.0785  0.0216 -0.0436
10222W        W23636   9.112  13.946  10.592  0.0806  0.1292  0.0165
10223W        W23637   3.929  12.679   1.021  0.2935  0.1323 -0.0630
10224W        W23638  11.263  14.701  12.277  0.2779  0.2306  0.1217
10225W        W23639  16.203   6.730   5.810 -0.1275  0.0344 -0.3610
10226W        W23640  15.856  10.294  10.896 -0.1820 -0.3958 -0.1627
10227W        W23641  15.899   5.062  15.542 -0.0167 -0.1006 -0.0307
10228W        W23642   5.650  12.546  12.823  0.3239  0.3258  0.2073
10229W        W23643  16.744  10.755  13.346 -0.2304 -0.2240 -0.1191
10230W        W23644   4.963  15.955  14.735 -0.0425  0.3578 -0.2193
10231W        W23645   6.842   7.756  13.231 -0.1021  0.1392 -0.3163
10232W        W23646   7.248   2.219  11.584  0.0486 -0.2964 -0.0422
10233W        W23647  10.201   4.198  15.999  0.1036  0.1790  0.1051
10234W        W23648   4.747  10.906   9.863  0.1030 -0.1675  0.3364
10235W        W23649  10.666   5.291   0.819  0.1128  0.1734  0.0545
10236W        W23650  11.970  17.735  14.248 -0.3701 -0.0736 -0.2196
10237W        W23651  12.709   6.908   5.156  0.2849 -0.0551 -0.0540
10238W        W23652   2.320   4.423  14.562  0.0795 -0.0974 -0.1026
10239W        W23653   8.488   5.864  10.845 -0.1421 -0.0914  0.0463
10240W        W23654   9.852  10.235  14.007  0.2239  0.0306 -0.3250
10241W        W23655   3.844   1.638   4.455 -0.0113  0.0732 -0.4292
10242W        W23656   0.346  15.414   0.477  0.0408  0.1211  0.1098
10243W        W23657   9.815   6.678  14.973  0.0701 -0.0413  0.0204
10244W        W23658   1.629   3.843  15.302  0.1043 -0.1138 -0.2058
10245W        W23659  13.908  16.612   3.179  0.2545 -0.1031 -0.0852
10246W        W23660   5.810  12.803  14.803  0.3911  0.1865  0.2068
10247W        W23661   4.199  10.207   4.754 -0.1502  0.0871  0.1781
10248W        W23662   7.808   0.190   0.813  0.0282 -0.0855  0.1246
10249W        W23663  16.120  14.804  15.491  0.0730 -0.0064  0.2253
10250W        W23664   8.161  12.093  13.171 -0.1001 -0.0171 -0.1908
10251W        W23665  16.598  15.699  12.840 -0.1008 -0.2942  0.0835
10252W        W23666   3.592  10.403  12.319  0.0540 -0.3492  0.2364
10253W        W23667  13.943   8.099   6.186 -0.2294 -0.0017 -0.4651
10254W        W23668   4.895  18.177   5.331  0.1543 -0.0659  0.0484
10255W        W23669  10.709   8.641   4.429 -0.1004 -0.1002 -0.0798
10256W        W23670   0.514  11.939   4.735  0.0987 -0.1877  0.1338
10257W        W23671   7.473  17.789  11.487  0.0370  0.0911 -0.1801
10258W        W23672  17.208  12.395  14.952  0.3995  0.1227 -0.3069
10259W        W23673   1.765   9.568   5.549  0.1120 -0.2495  0.2305
10260W        W23674   4.427   0.877   6.026  0.0233  0.1297  0.2514
10261W        W23675  15.197  13.236   4.088  0.2951 -0.0306  0.4662
10262W        W23676   6.744   1.557   3.402  0.1261  0.1320 -0.0124
10263W        W23677  12.391   8.159  13.306  0.3029  0.0664 -0.0018
10264W        W23678   9.221   8.275  15.328 -0.0954  0.0732 -0.0503
10265W        W23679  18.169   1.533   1.414 -0.0656 -0.2024  0.0785
10266W        W23680  12.739   5.984   5.057  0.1728  0.0978 -0.2269
10267W        W23681   3.683  14.672  12.272 -0.0986  0.1451 -0.0713
10268W        W23682   3.327   8.909  10.954 -0.1798  0.0183  0.2510
10269W        W23683  17.862  10.712  14.467  0.1389  0.0370  0.1088
10270W        W23684   1.422   9.206  15.911 -0.1822 -0.4310 -0.1558
10271W        W23685  12.861   4.303  11.025 -0.1898  0.2302  0.0090
10272W        W23686   7.463  13.368  14.492 -0.2855  0.0014  0.0200
10273W        W23687  11.480  15.547   2.971  0.0011 -0.0392 -0.2153
10274W        W23688  15.508  12.658   3.155 -0.1764 -0.0695 -0.0473
10275W        W23689  11.472  17.292   4.059 -0.1991  0.1063  0.0457
10276W        W23690   6.628  12.446  15.265  0.0412  0.0200 -0.1366
10277W        W23691   1.060   0.225   0.564  0.0911  0.0438  0.0668
10278W        W23692   4.797   1.552   5.653 -0.1580 -0.0056 -0.2368
10279W        W23693   1.819   4.705   2.459  0.0321 -0.0200  0.2010
10280W        W23694   9.563  12.747  16.133  0.0451  0.0882  0.5217
10281W        W23695   7.975   2.689  13.074  0.1206  0.1666 -0.0619
10282W        W23696  10.347  15.815  10.448  0.1622  0.1387 -0.3168
10283W        W23697   9.481   1.726   4.139  0.1592 -0.1123  0.0378
10284W        W23698   9.461   1.427   4.518  0.0778  0.2418 -0.0398
10285W        W23699  14.202  14.255   3.946 -0.0002  0.0024 -0.0550
10286W        W23700   1.588   7.792  10.686 -0.2175 -0.2487  0.1787
10287W        W23701  17.494   3.806  14.451 -0.1570  0.1162 -0.3448
10288W        W23702  17.398  18.416  15.350 -0.0732  0.0047  0.0815
10289W        W23703   4.628   8.898   0.960 -0.0195  0.0045 -0.0426
10290W        W23704  16.426   2.271   5.120 -0.0679 -0.1179  0.1093
10291W        W23705   2.335  14.602   2.160 -0.0352 -0.1008 -0.1178
10292W        W23706  11.915   4.701   2.164  0.1495  0.3566  0.0893
10293W        W23707  14.243   7.207   5.549 -0.1994  0.0748  0.1132
10294W        W23708  12.234   2.409   2.252 -0.1416  0.3397  0.1730
10295W        W23709   7.635   3.332  10.281 -0.1961 -0.1955  0.1447
10296W        W23710   3.273  14.553  12.596 -0.1730 -0.0185 -0.2186
10297W        W23711   2.223  14.488  13.616  0.1230 -0.3903 -0.2103
10298W        W23712  10.214   2.944  11.366 -0.0379  0.2695  0.1785
10299W        W23713   2.900   7.449  14.606  0.2518 -0.1473  0.0667
10300W        W23714  13.856  15.754   0.502  0.2435 -0.0780  0.0079
10301W        W23715   0.779   8.485  11.332 -0.0535 -0.0695 -0.0111
10302W        W23716  14.469  15.755  10.614 -0.2139  0.0650 -0.0098
10303W        W23717   5.028   7.967  13.146  0.1068  0.1254 -0.0081
10304W        W23718  10.043  15.962  10.931  0.1196  0.1255 -0.3937
10305W        W23719  16.125   3.407   0.908  0.2067  0.1337  0.0782
10306W        W23720   4.511   4.974  12.384  0.1541 -0.0161 -0.2401
10307W        W23721   4.292   1.193   2.224  0.2863 -0.1527 -0.1391
10308W        W23722   4.020  13.844   1.929  0.3053 -0.2481  0.0778
10309W        W23723   5.780   8.125   5.664  0.0446 -0.1978 -0.1921
10310W        W23724  17.887  12.495   0.937  0.0415  0.0702  0.0367
10311W        W23725  17.026  16.684   4.030 -0.0745 -0.0079  0.2823
10312W        W23726  17.759   5.765   0.565  0.0392  0.2592 -0.1090
10313W        W23727   5.981   6.836   0.195  0.0253  0.1082 -0.1396
10314W        W23728   5.916   3.974  13.461  0.2264  0.4324 -0.1645
10315W        W23729  11.797  17.695   3.888  0.1773  0.2097  0.0289
10316W        W23730   6.201   6.914   0.768 -0.3281 -0.0009 -0.0720
10317W        W23731  10.420   6.269  13.068 -0.3169  0.0083  0.0255
10318W        W23732  11.294  17.773   3.984 -0.1684  0.1362  0.1458
10319W        W23733  16.375  16.719   0.427 -0.0615 -0.0412 -0.1460
10320W        W23734  13.682   2.618  11.732  0.1356  0.0306  0.0181
10321W        W23735  13.662   2.307  12.974  0.2683  0.1874 -0.0811
10322W        W23736   5.444   0.458   2.611 -0.0780 -0.4858 -0.0389
10323W        W23737  11.319  13.279  12.033  0.0627 -0.2189 -0.0007
10324W        W23738  16.581  16.068   3.266  0.0513  0.1329 -0.2418
10325W        W23739   5.703   3.176  15.751 -0.0718  0.1939 -0.0154
10326W        W23740   8.748  16.209  12.294  0.0164 -0.1581  0.0971
10327W        W23741   4.246   6.144   2.934 -0.1312  0.0945 -0.1961
10328W        W23742   0.151  13.396  12.136 -0.1221  0.1471  0.2023
10329W        W23743   6.717   8.129  13.510 -0.2421  0.1755  0.0298
10330W        W23744   5.752  14.011   3.895 -0.0898 -0.0653  0.2420
10331W        W23745  10.360   2.324   0.546 -0.1364 -0.3186 -0.1695
10332W        W23746   2.797   9.760   0.913  0.3808  0.1134  0.1103
10333W        W23747  11.145  18.277   3.819 -0.0287 -0.0144 -0.1110
10334W        W23748  12.426  14.357   3.099  0.2707 -0.2104 -0.0636
10335W        W23749   9.229   9.578   5.829  0.2046  0.1472  0.0616
10336W        W23750  15.889  16.121  12.046  0.2075 -0.0714 -0.1096
10337W        W23751  14.366   6.863  11.007 -0.1093 -0.0148  0.0952
10338W        W23752  16.992   7.310   3.125  0.0924 -0.1288  0.3043
10339W        W23753   7.962  17.535  13.041 -0.1423  0.0272  0.2803
10340W        W23754   0.249  10.367  13.831  0.2219  0.0696 -0.3729
10341W        W23755   8.936  17.796  14.446  0.1631 -0.1322  0.0582
10342W        W23756   2.079  12.957   3.660  0.1232 -0.0416 -0.3112
10343W        W23757   6.720   1.256   2.599 -0.0808 -0.1780 -0.1277
10344W        W23758  11.362  12.683  15.750 -0.0934 -0.2106  0.0424
10345W        W23759   1.416   5.038   4.123  0.1180  0.0314  0.0683
10346W        W23760   0.838   8.015  12.943 -0.2869  0.1471 -0.1577
10347W        W23761  14.243  12.420   0.231  0.0473 -0.0185 -0.1566
10348W        W23762   0.362   2.418  12.503  0.0695  0.1425 -0.2010
10349W        W23763  10.325  14.368  15.009 -0.2382  0.0651  0.3036
10350W        W23764  12.444   9.945  12.834  0.0593  0.0628 -0.3682
10351W        W23765   1.016   5.423   2.444 -0.0210 -0.3472  0.2750
10352W        W23766   9.064  13.607   4.990  0.2814  0.0918 -0.1482
10353W        W23767   3.917  12.102   5.368  0.1601  0.0317 -0.0734
10354W        W23768  10.222  14.290  15.674  0.1223 -0.3353 -0.1631
10355W        W23769  15.302  15.654  15.748  0.3265 -0.3475 -0.0621
10356W        W23770  12.035  10.158  12.605 -0.0727 -0.0338  0.0655
10357W        W23771  12.636  13.455   0.862 -0.1217 -0.1833  0.1068
10358W        W23772   2.429  10.205  14.494 -0.0432  0.2427 -0.2709
10359W        W23773  14.594   8.852  15.652 -0.0921 -0.0414 -0.2696
10360W        W23774  18.149  17.227  10.458  0.3662  0.2407  0.1278
10361W        W23775  17.299  12.762   4.608 -0.1205 -0.3164  0.0404
10362W        W23776  12.664  15.827   3.040 -0.0063  0.0294 -0.0630
10363W        W23777   6.260  11.115   2.403  0.2366 -0.1553  0.2605
10364W        W23778   8.086   6.467   5.131  0.1066 -0.1025 -0.1443
10365W        W23779   3.127   9.401   5.317  0.1864 -0.1198 -0.1882
10366W        W23780   2.341   6.024   1.776  0.2408 -0.0374  0.0573
10367W        W23781   1.157   2.289   0.013  0.1545 -0.1190  0.0036
10368W        W23782   8.067  14.120   0.594  0.0406  0.1318  0.0518
10369W        W23783   7.680  11.706  12.054 -0.4337  0.0589  0.3252
10370W        W23784  12.145  12.503   0.975 -0.1805 -0.0765 -0.3318
10371W        W23785   8.577   6.372  12.947  0.1723  0.0984 -0.1023
10372W        W23786   3.061   8.592  13.790 -0.1487 -0.3590 -0.1340
10373W        W23787  14.217   1.902  14.248  0.0938 -0.0180 -0.0172
10374W        W23788  10.520  16.564   5.469  0.0141  0.4063 -0.1492
10375W        W23789   5.969   7.516   4.583 -0.1503  0.3077 -0.0769
10376W        W23790   0.185  14.552  10.515  0.0044  0.0175  0.0230
10377W        W23791  16.510  18.024  13.659 -0.0290  0.1380  0.2224
10378W        W23792  16.530   4.022   2.944  0.3149 -0.0826 -0.1338
10379W        W23793   0.693   5.621   5.368  0.2007 -0.0903  0.0417
10380W        W23794   4.500  11.354   1.230  0.1795  0.2585 -0.1180
10381W        W23795   6.249  14.574   1.550 -0.1951 -0.1712 -0.1691
10382W        W23796  15.469  11.179  16.057 -0.0724  0.0856  0.1583
10383W        W23797  11.139   7.112  12.021 -0.2845 -0.0488  0.0582
10384W        W23798  13.835   3.540   3.523 -0.0200 -0.1277  0.0308
10385W        W23799   8.824  13.855  10.969 -0.0417  0.0828  0.2903
10386W        W23800   7.428   7.389   2.731 -0.0736 -0.1266 -0.2692
10387W        W23801   4.868  10.976  11.805  0.0641 -0.2213 -0.4522
10388W        W23802  13.419   1.112   2.058  0.0203  0.2669 -0.0366
10389W        W23803  17.365  17.670  13.569 -0.5023  0.3619  0.0631
10390W        W23804   6.312  12.975  13.581 -0.0185  0.2256 -0.1407
10391W        W23805  18.322   3.009   5.464 -0.3254 -0.1640 -0.4360
10392W        W23806   1.873  10.730   2.002  0.3164  0.1151 -0.3632
10393W        W23807   3.838   9.965   4.175  0.0906 -0.1559  0.0756
10394W        W23808   4.415  12.490   0.883  0.5315  0.2366  0.1738
10395W        W23809   5.456  14.325   5.443 -0.0204  0.1913  0.1652
10396W        W23810   0.896  16.834   5.453  0.0655  0.0074 -0.0065
10397W        W23811  14.622   9.017   3.056  0.0720 -0.0426  0.0459
10398W        W23812   1.583  13.303   2.313  0.1881 -0.0605 -0.1121
10399W        W23813   4.267  17.557   6.089 -0.0339  0.3301  0.0870
10400W        W23814  16.111  17.845  10.730 -0.1294 -0.2203  0.0511
10401W        W23815  14.261   0.576  11.830  0.0640 -0.0200 -0.1050
10402W        W23816  13.427  14.302   5.672  0.0129  0.3789 -0.2456
10403W        W23817  18.335  10.687  11.336 -0.2867 -0.1215 -0.1371
10404W        W23818   0.829   8.343  11.965  0.1530 -0.3005 -0.0553
10405W        W23819   6.906  17.167   4.830 -0.0047  0.1719  0.0313
10406W        W23820   0.049  11.986   5.702 -0.3560 -0.0548  0.0295
10407W        W23821   5.295  17.261  15.161 -0.0546 -0.0560 -0.1250
10408W        W23822   8.718  16.891  11.807  0.2198 -0.2663 -0.1487
10409W        W23823  15.753  18.266  13.172  0.0241  0.0447 -0.1790
10410W        W23824  11.708   3.436  12.974  0.0321  0.0279  0.1679
10411W        W23825  10.608   7.069   4.983 -0.0417 -0.0822 -0.1007
10412W        W23826  13.167  16.072  13.591  0.2086 -0.0554 -0.1119
10413W        W23827   7.282   9.209  14.459  0.1368 -0.1386  0.2403
10414W        W23828  16.801   6.142  13.989 -0.0006 -0.0724 -0.1536
10415W        W23829   1.770   8.370   3.664 -0.1395 -0.1589 -0.2647
10416W        W23830   7.352   6.416   1.965 -0.0263 -0.0900  0.0257
10417W        W23831   9.523  14.388   1.397 -0.1546  0.2284 -0.0546
10418W        W23832   3.831   7.674   2.411  0.0167 -0.3857  0.1893
10419W        W23833  11.648  17.375  14.300  0.1673  0.0421  0.2583
10420W        W23834   4.952  10.354   0.778  0.1009 -0.0764  0.0532
10421W        W23835  16.445   0.322   2.512  0.1331  0.1769  0.0367
10422W        W23836   6.429   2.141   9.862  0.1587 -0.3928  0.2582
10423W        W23837   7.803  13.598  13.117  0.3005  0.1833  0.0044
10424W        W23838   5.628  16.765   0.179  0.0016 -0.0765 -0.1911
10425W        W23839   4.729   8.508   3.545  0.0430 -0.0686 -0.1780
10426W        W23840  12.019   8.940  13.510  0.1515 -0.0416  0.0493
10427W        W23841   4.994   6.754  14.501 -0.0130  0.1585  0.1982
10428W        W23842  16.157   0.725   3.643  0.1553  0.0961 -0.1510
10429W        W23843   7.772   5.990  15.332 -0.2053  0.1320  0.1994
10430W        W23844   1.653  13.412  12.054 -0.1795 -0.0354 -0.1811
10431W        W23845   8.732  10.688  11.920 -0.0617  0.0458 -0.1394
10432W        W23846  11.600  11.634   2.596  0.1687  0.1644 -0.2528
10433W        W23847  14.555  17.698  14.855  0.1245 -0.0883 -0.1248
10434W        W23848  14.473  11.212   3.325  0.1192 -0.2422 -0.0568
10435W        W23849  10.953   3.018   0.802  0.0593 -0.2721 -0.0726
10436W        W23850  13.562  18.427  12.124  0.1196 -0.0445 -0.1891
10437W        W23851   6.451   4.287  12.912  0.2638  0.2616  0.0093
10438W        W23852   5.254   8.367  10.889 -0.1021 -0.1038 -0.3192
10439W        W23853   3.858   3.672   3.160  0.1197 -0.1982 -0.0567
10440W        W23854   7.338   8.355  14.805 -0.0282 -0.1319  0.1193
10441W        W23855   4.555   4.490  13.358 -0.2740  0.0400  0.3420
10442W        W23856  12.982  10.690  15.667 -0.1754 -0.2055 -0.0389
10443W        W23857   2.475  16.778   0.134  0.1049  0.4752  0.1320
10444W        W23858  15.617   1.335   1.902  0.0709 -0.0041 -0.4201
10445W        W23859   4.218   5.293   0.768 -0.1216  0.1334  0.0637
10446W        W23860   2.266  10.966  13.469 -0.1153 -0.1283 -0.2834
10447W        W23861  14.008   9.201   3.402  0.0203  0.2058 -0.1238
10448W        W23862  16.659  16.571  11.621 -0.2102 -0.0601  0.0503
10449W        W23863  16.271  12.033  13.623  0.0773 -0.0826  0.0075
10450W        W23864   4.107   8.875  11.457 -0.0134 -0.0539  0.4811
10451W        W23865   6.978   1.807  16.248 -0.1635  0.0335 -0.0529
10452W        W23866   8.294   2.130  16.262 -0.0793  0.0617 -0.0081
10453W        W23867  10.622   9.249   0.637  0.0250  0.2515  0.2222
10454W        W23868   2.235   2.200  11.390  0.0849 -0.2258 -0.1651
10455W        W23869   9.270  16.401  12.302 -0.1169  0.3177  0.0266
10456W        W23870   0.917   1.746  11.082  0.4162 -0.2692 -0.1824
10457W        W23871  16.871   9.099  15.563 -0.1717  0.0547 -0.1214
10458W        W23872   2.907  10.041  15.675  0.1005  0.2519  0.0686
10459W        W23873   3.645  14.828  12.789 -0.5034 -0.1281 -0.2394
10460W        W23874   5.147   2.253  14.328 -0.4576  0.1308 -0.1415
10461W        W23875  16.219   2.155   3.550 -0.0252 -0.1589  0.3018
10462W        W23876  16.640  13.195   4.711  0.0079  0.0117 -0.0188
10463W        W23877   8.054   2.477   4.503  0.4064  0.0100  0.0013
10464W        W23878  11.396  11.611  10.727  0.2044 -0.1831  0.0792
10465W        W23879  10.886   6.709  10.639  0.0816  0.1690 -0.0445
10466W        W23880  17.034  12.350   4.341  0.0181  0.2405  0.1151
10467W        W23881   9.364  13.193  15.880  0.0061  0.0901  0.1911
10468W        W23882   1.687   1.367   4.973  0.1646  0.1774  0.0773
10469W        W23883  13.456  11.228  15.024  0.0091  0.2556 -0.3387
10470W        W23884  18.438  14.756  12.285  0.0746 -0.1656  0.0073
10471W        W23885  12.260   0.318  15.328  0.5749 -0.0684 -0.1784
10472W        W23886  14.541  11.074  10.459  0.3181  0.4402  0.1654
10473W        W23887   3.225  16.412   3.448 -0.0354  0.1583  0.0175
10474W        W23888   2.182   4.664  11.758  0.2400 -0.2315 -0.1780
10475W        W23889   2.102   2.277  14.604  0.0609  0.0840 -0.3751
10476W        W23890   4.457   9.735  11.152 -0.0302  0.1030 -0.1654
10477W        W23891  18.073   8.489   4.701  0.2585 -0.0834 -0.1826
10478W        W23892  12.874  12.786  13.557  0.1474  0.0701  0.0942
10479W        W23893   3.510  15.675   0.831 -0.0774 -0.0472  0.1664
10480W        W23894   5.381   6.031  12.003 -0.2446 -0.0029  0.0614
10481W        W23895   4.048   3.068  10.203 -0.0414  0.0423  0.3082
10482W        W23896  17.743   9.954  16.165  0.2766  0.0692 -0.2462
10483W        W23897   8.078   0.467  14.758  0.0587 -0.3286 -0.1219
10484W        W23898   8.160  11.207  12.727  0.1166  0.0209 -0.2020
10485W        W23899   9.913  12.025   6.021 -0.1444 -0.1721 -0.0835
10486W        W23900  16.379   4.904  16.259  0.0018  0.0477  0.2753
10487W        W23901   1.517  12.177   4.902  0.1969 -0.1009  0.3542
10488W        W23902   0.036   5.674  12.760 -0.0351 -0.1889 -0.0861
10489W        W23903   8.144  16.289  13.518  0.1764 -0.0897 -0.0923
10490W        W23904   3.248   6.233   0.325 -0.0370  0.3157  0.1474
10491W        W23905  10.047  11.207  15.883  0.2248 -0.0872  0.1276
10492W        W23906   3.560  11.671  12.112 -0.0786  0.0639  0.0531
10493W        W23907  15.595  14.397   4.396 -0.1535 -0.5068 -0.1121
10494W        W23908  13.672   8.497  15.784  0.1611  0.0396  0.0257
10495W        W23909   7.357   0.675  11.393  0.2272 -0.2570 -0.1920
10496W        W23910   5.186  10.079   5.251  0.1422 -0.3254  0.0163
10497W        W23911   9.177   8.078  13.199  0.2097  0.1294  0.1712
10498W        W23912   6.281  10.450   3.263 -0.0109  0.0332  0.1531
10499W        W23913  12.368  10.564   5.392 -0.0268  0.2375  0.1699
10500W        W23914  16.806   8.024  15.521  0.1782 -0.1759 -0.1420
10501W        W23915  12.272   2.059   0.390 -0.3013 -0.0440  0.2890
10502W        W23916   9.757  17.421   1.667  0.0625 -0.0269  0.0044
10503W        W23917  15.008  10.687  11.107  0.1415 -0.0457 -0.2237
10504W        W23918  13.570  16.516  13.467 -0.0827  0.0442  0.2757
10505W        W23919  15.925  16.379  14.198  0.0278 -0.0418 -0.2262
10506W        W23920   8.472   6.258  10.554 -0.0423  0.1272 -0.0400
10507W        W23921   5.642  14.068   4.731  0.1458  0.4059  0.0415
10508W        W23922   0.310   1.529   2.350  0.2585  0.1036  0.1264
10509W        W23923  16.524  15.805   2.158  0.1290 -0.0590 -0.2355
10510W        W23924   7.456   1.501  16.215  0.1847  0.0266 -0.1030
10511W        W23925  14.946  17.580  11.233 -0.1162 -0.2535  0.0235
10512W        W23926  17.520   1.897  15.442 -0.2375  0.3473  0.0423
10513W        W23927  11.943   6.450   4.150  0.0909  0.1122  0.1730
10514W        W23928   3.405  10.170   2.508 -0.2505  0.0386 -0.0920
10515W        W23929   7.773  13.032  16.038  0.4169 -0.2086 -0.0643
10516W        W23930   4.030  12.935   2.327  0.0691 -0.2265 -0.0340
10517W        W23931  11.355   7.102   1.967 -0.1091 -0.2541  0.2064
10518W        W23932  14.329  18.075  14.584 -0.2538 -0.0632  0.1088
10519W        W23933  16.074   0.177   2.886  0.0993 -0.0918 -0.3500
10520W        W23934  13.608  11.858  13.924 -0.0284  0.0856 -0.1627
10521W        W23935   6.470   0.193  11.865  0.4654 -0.0241 -0.4121
10522W        W23936  10.057  13.203   1.963  0.0431 -0.1721  0.2050
10523W        W23937   1.061  17.656   3.354 -0.2220  0.3244 -0.0448
10524W        W23938  17.369  10.788  14.509 -0.2577 -0.2395  0.1751
10525W        W23939  13.719  12.177   3.197  0.1262  0.2277  0.0294
10526W        W23940  16.440  14.627  15.092  0.0003  0.0340 -0.1106
10527W        W23941   4.388  12.263  11.891 -0.3319 -0.0776  0.0196
10528W        W23942   4.654  17.981  11.516  0.1520 -0.1388 -0.5889
10529W        W23943  10.234  15.058   3.354 -0.2744 -0.1978  0.1088
10530W        W23944  13.313  10.412   2.147 -0.0483 -0.1203  0.0835
10531W        W23945   9.528  12.070   1.563 -0.0412 -0.0658 -0.2549
10532W        W23946   7.932   8.550   2.099 -0.0476 -0.0330  0.2443
10533W        W23947   8.994   2.465   3.858  0.1784 -0.0049 -0.1675
10534W        W23948   8.652   8.571  11.798  0.0744  0.0670 -0.0712
10535W        W23949   7.075  18.084  11.483  0.0851  0.1219  0.2869
10536W        W23950   6.696  15.069  14.852 -0.2565  0.0973 -0.0460
10537W        W23951  13.695  12.530  13.676  0.3269 -0.2154  0.1511
10538W        W23952  14.049  16.515   3.706 -0.0786  0.2016  0.1443
10539W        W23953   4.075  10.572  11.794 -0.0363  0.0226  0.0012
10540W        W23954   0.829   9.648   0.352 -0.0856 -0.1671  0.1943
10541W        W23955   4.621  11.028  13.352  0.0406 -0.1464 -0.1022
10542W        W23956  12.624  13.058  11.221  0.2628  0.5324 -0.0888
10543W        W23957   1.489  14.312   0.545  0.1693  0.1077 -0.1518
10544W        W23958  14.568   7.779   1.676  0.0433  0.2136 -0.0999
10545W        W23959   3.189  12.217   1.767  0.0288  0.2565  0.2057
10546W        W23960   2.529   4.615  15.754 -0.1966  0.1105  0.1812
10547W        W23961   5.385   0.647   0.919 -0.0090  0.0648 -0.2024
10548W        W23962  10.745   2.825  14.223  0.0021 -0.0105 -0.2699
10549W        W23963   6.392   0.435   2.634  0.1588 -0.0301 -0.2736
10550W        W23964   5.819  13.485   9.460 -0.1138 -0.2412 -0.1860
10551W        W23965  13.445  15.201   5.828 -0.2265 -0.0004  0.2354
10552W        W23966   4.809   6.082  10.498  0.2560 -0.1281 -0.0924
10553W        W23967   5.432   0.829   0.457 -0.1139  0.0752  0.2293
10554W        W23968  10.480  10.064   3.383 -0.0524  0.4770  0.0172
10555W        W23969  15.390  13.645   2.812 -0.2121 -0.2990 -0.1015
10556W        W23970   8.884  14.655   1.971  0.0565 -0.2597  0.1874
10557W        W23971   3.156   0.681  14.604 -0.1270 -0.0591  0.0387
10558W        W23972   7.176   9.549   3.389  0.2233  0.1276 -0.0760
10559W        W23973  12.917   1.430   0.810  0.3586 -0.2599 -0.2100
10560W        W23974   9.593  13.759  12.834 -0.0995  0.1597  0.1178
10561W        W23975   7.891   1.315   9.938  0.0148 -0.0401 -0.2457
10562W        W23976  11.507   4.038  16.139 -0.1458  0.0342 -0.1189
10563W        W23977  11.642   7.383   2.366  0.0917 -0.0766  0.1455
10564W        W23978  16.681  17.376  14.341 -0.0124 -0.3507 -0.1189
10565W        W23979  11.904   4.654  15.116  0.0130  0.1355  0.0396
10566W        W23980   1.174  15.957  13.333  0.1819  0.0455  0.0130
10567W        W23981   5.174   1.688   3.552 -0.0472  0.3606 -0.0011
10568W        W23982   9.216  11.742  15.589 -0.0482 -0.0077 -0.1386
10569W        W23983  14.250   6.839   5.198 -0.2566  0.2921  0.2218
10570W        W23984   5.326  12.831  14.506 -0.1065  0.1057 -0.3126
10571W        W23985   5.710  15.108   0.868 -0.1044 -0.1937  0.1578
10572W        W23986   7.870   9.025  13.371 -0.0332 -0.1323 -0.0468
10573W        W23987  10.275   8.000  10.576  0.0524 -0.0428 -0.0116
10574W        W23988   3.641  17.451  14.301 -0.0963 -0.0683  0.0680
10575W        W23989   2.199   7.828  12.953 -0.0809  0.0131  0.1667
10576W        W23990   5.374   2.535  11.750 -0.1438  0.1273  0.0122
10577W        W23991  13.469   9.937   1.530 -0.0882 -0.1099 -0.0895
10578W        W23992  11.141  11.617   2.721 -0.0129 -0.1634 -0.0670
10579W        W23993   0.159   2.693  14.319 -0.4272  0.0493  0.1061
10580W        W23994   9.755   2.511  16.000 -0.3512  0.3814 -0.0370
10581W        W23995  17.636   0.199   0.378 -0.1252  0.3533  0.2116
10582W        W23996  16.677   6.619   4.183 -0.0591  0.0105 -0.3265
10583W        W23997   3.584   7.365  10.892 -0.0246 -0.0540 -0.1219
10584W        W23998   0.096   9.886  11.456  0.1222 -0.1750 -0.1432
10585W        W23999   0.767  18.406  14.065 -0.2685  0.1010 -0.0580
10586W        W24000   2.856  17.354   1.164  0.0676 -0.1776 -0.2970
10587W        W24001  16.184   9.687   5.524 -0.0701 -0.0043  0.4809
10588W        W24002  18.333  12.856  12.672 -0.1344  0.0067  0.1991
10589W        W24003  14.742   7.378  14.027 -0.2529  0.1150  0.0589
10590W        W24004   9.689   0.806   2.030  0.3529 -0.2141  0.0073
10591W        W24005  14.568  11.631  11.173  0.1395  0.2339 -0.2805
10592W        W24006  17.325   4.791  13.586  0.2400 -0.0201  0.1775
10593W        W24007   7.300  10.672   3.943 -0.0551 -0.3968 -0.1934
10594W        W24008   1.389   4.169   2.022 -0.0805  0.0600 -0.3208
10595W        W24009  13.003   1.856  12.396  0.1609 -0.1815  0.0398
10596W        W24010   7.629   7.429  16.248  0.0576 -0.1011 -0.0367
10597W        W24011   4.307  12.370  13.122 -0.1949 -0.5389 -0.0855
10598W        W24012  12.461   0.327   4.976 -0.0522 -0.3188  0.1097
10599W        W24013   5.791  15.564   4.230  0.0638 -0.1464 -0.0793
10600W        W24014  17.588   7.804   6.661  0.0307  0.2643  0.0526
10601W        W24015   1.727  16.426  15.892  0.4694 -0.1153  0.1530
10602W        W24016  14.201   4.095   4.248 -0.2370  0.1803 -0.0182
10603W        W24017   2.116   8.680   1.300  0.0534 -0.2993  0.0841
10604W        W24018  14.739   3.840   0.487 -0.1582  0.0193 -0.0498
10605W        W24019  17.788   0.678   3.881  0.0705  0.2522  0.0950
10606W        W24020   6.939   8.962  15.653 -0.0568 -0.0398 -0.0402
10607W        W24021  16.504  12.259  16.224 -0.0058 -0.1031 -0.0097
10608W        W24022   2.906  13.602  12.747 -0.2419 -0.0329 -0.1167
10609W        W24023  17.564   3.600  15.416  0.1586  0.4384  0.3351
10610W        W24024   0.442   2.299  14.345 -0.0219  0.0114 -0.1313
10611W        W24025   3.361  17.352   0.222  0.0196  0.0657 -0.0492
10612W        W24026  13.513  11.151  12.024  0.0190  0.2013 -0.3412
10613W        W24027   1.479   0.287  15.224  0.1528 -0.1173  0.2185
10614W        W24028  15.239   8.933   6.352 -0.1043  0.1646  0.0302
10615W        W24029  16.525  15.864   4.361 -0.3251  0.0469 -0.0428
10616W        W24030  12.057  11.678  12.205  0.1242  0.2646 -0.1153
10617W        W24031  10.432  16.237   1.726 -0.1413 -0.0721  0.0524
10618W        W24032   8.098  17.226   4.282  0.0452 -0.0516 -0.1297
10619W        W24033   5.134   1.674  11.002  0.0598  0.3051 -0.0007
10620W        W24034   8.321   3.541  13.768 -0.2322 -0.3571 -0.1390
10621W        W24035  10.729   0.209  11.308  0.0644 -0.0644  0.2042
10622W        W24036   0.858   0.800   2.116  0.0983  0.1746  0.2302
10623W        W24037   3.568   5.968   1.967  0.1539  0.0164 -0.1660
10624W        W24038   8.378   7.166   3.412 -0.5153 -0.0374  0.1498
10625W        W24039   7.297  13.761   0.885 -0.0125  0.0666 -0.1621
10626W        W24040  14.004  17.204  15.660  0.0037 -0.2276  0.4198
10627W        W24041   5.069  12.617  12.962 -0.0666  0.5274 -0.5661
10628W        W24042   5.271   2.892   5.529  0.1335 -0.0585  0.0819
10629W        W24043  17.803   6.217  13.931  0.0225  0.0523  0.0625
10630W        W24044  17.669  12.234  14.911 -0.1132  0.2345 -0.2219
10631W        W24045  10.273   3.222  13.732 -0.2442  0.0772 -0.2533
10632W        W24046   2.874   4.925   5.226  0.0136 -0.1585  0.0065
10633W        W24047   7.623   6.820  12.882  0.2685  0.0291 -0.1417
10634W        W24048  15.113   4.336   0.542  0.2073  0.0550 -0.0270
10635W        W24049   0.443  16.893  13.848  0.1760 -0.0225  0.0144
10636W        W24050   0.844   0.820   3.660 -0.5037 -0.0258  0.0139
10637W        W24051  15.046   7.905  12.016  0.2667 -0.4306 -0.2657
10638W        W24052   1.626  16.582  11.149 -0.4613  0.0285 -0.1059
10639W        W24053   3.697   4.887  13.614 -0.3120 -0.1896  0.2561
10640W        W24054  12.913  11.690  14.245 -0.2228  0.1646  0.0770
10641W        W24055   1.734   8.546   0.503 -0.1825 -0.2860  0.0905
10642W        W24056   3.955  18.402   1.705  0.0494  0.1934 -0.0498
10643W        W24057   5.139  14.228  10.549  0.4859 -0.0537  0.3969
10644W        W24058  14.445  13.756  12.900 -0.2033  0.0466 -0.0363
10645W        W24059   6.372  14.811   3.403 -0.1750  0.0742 -0.3367
10646W        W24060  16.928  14.148   4.272 -0.1897  0.0775 -0.0123
10647W        W24061  17.379  13.557  13.139  0.1799 -0.0721  0.0199
10648W        W24062  14.728   6.176  14.791  0.1443 -0.6955 -0.1351
10649W        W24063  14.908  17.305  13.510 -0.0168 -0.1243 -0.1108
10650W        W24064  16.097   8.505   3.967 -0.0446 -0.2044  0.2713
10651W        W24065  13.023  17.423  10.116 -0.0592 -0.1876 -0.3508
10652W        W24066  10.460  12.721  11.730  0.5459 -0.2669  0.0199
10653W        W24067   3.396   4.646   1.662  0.2244  0.1836  0.1790
10654W        W24068   4.281   9.157  13.837 -0.1674  0.0289 -0.0175
10655W        W24069   6.444   9.551   3.796  0.2874  0.0671 -0.1094
10656W        W24070  13.847  18.239  11.809  0.0065 -0.0503  0.1121
10657W        W24071   2.290  16.559   0.678 -0.1906  0.2076  0.2781
10658W        W24072  17.249  11.058  12.092 -0.2476 -0.0810  0.3911
10659W        W24073  10.127  10.308  10.615 -0.1249 -0.1229 -0.1876
10660W        W24074   5.758   3.674  13.053  0.0084 -0.0956  0.0280
10661W        W24075   6.954   4.721  15.299 -0.1502  0.0488 -0.3280
10662W        W24076   5.616  12.435  13.862  0.1365  0.1859 -0.1838
10663W        W24077   6.965   1.801  12.419  0.1329  0.0769 -0.1166
10664W        W24078   2.402   8.714  10.864 -0.0464 -0.0267  0.1228
10665W        W24079  14.157  11.743   4.034  0.1239 -0.1532 -0.0865
10666W        W24080  13.650   0.234  15.586  0.2105 -0.3960  0.0218
10667W        W24081  15.222  12.858  14.757 -0.0075 -0.2139 -0.2504
10668W        W24082  11.268   6.431   0.733  0.0015 -0.0325  0.1088
10669W        W24083   8.537  10.994   0.356 -0.1365 -0.2870  0.0224
10670W        W24084  15.889   0.295   1.291  0.2185  0.1412 -0.3339
10671W        W24085   7.895  11.827  11.115 -0.2151 -0.3665 -0.1968
10672W        W24086   1.744   2.038  14.990  0.1168  0.2172 -0.0798
10673W        W24087  14.228  10.680   3.502  0.0484  0.0445  0.2945
10674W        W24088  18.239  13.211   6.080 -0.1902  0.1500  0.1612
10675W        W24089   0.150   9.385  15.433 -0.1696 -0.0814 -0.1345
10676W        W24090   0.046  16.040   2.409  0.2695 -0.3880  0.1447
10677W        W24091   8.862   4.398  10.799  0.0358  0.0484 -0.0381
10678W        W24092  13.210   3.464  12.714  0.0902  0.0820  0.0860
10679W        W24093   5.516   1.031   4.768  0.0976 -0.3121 -0.4753
10680W        W24094   8.609  11.990  12.903 -0.0137  0.1910 -0.2003
10681W        W24095  16.302  14.435  11.064  0.0290  0.0212 -0.0599
10682W        W24096   3.624   3.634  15.290 -0.3354 -0.2694 -0.0819
10683W        W24097   5.011   1.194  13.299  0.0408  0.0514  0.0072
10684W        W24098   4.384  15.412  16.020 -0.0586 -0.0257 -0.0341
10685W        W24099  16.799  14.396  15.371  0.0671 -0.0313  0.2267
10686W        W24100  11.862   3.268  11.701  0.2369  0.3134 -0.1060
10687W        W24101   5.342  13.208   1.659  0.2117 -0.2764  0.3942
10688W        W24102   1.240   2.258  12.295 -0.1962  0.0431 -0.1983
10689W        W24103  15.944  10.729  15.850 -0.1496 -0.0261  0.0198
10690W        W24104   7.315  13.778  12.383  0.3720  0.1407  0.0245
10691W        W24105  11.330  16.789  15.972  0.1521 -0.3216 -0.1595
10692W        W24106   0.107   3.737  12.818 -0.0601  0.1551 -0.0479
10693W        W24107  16.464  14.048  13.096  0.0455  0.3242  0.0659
10694W        W24108  13.439  10.811  14.693  0.1110 -0.4231  0.1049
10695W        W24109   0.257   7.189  15.479  0.0667 -0.2722 -0.0618
10696W        W24110  17.635   8.006   2.083 -0.1375 -0.0247  0.1012
10697W        W24111   7.317   4.493   0.456  0.1578  0.1061 -0.0974
10698W        W24112  12.665  10.615   2.442 -0.0793 -0.3812 -0.3935
10699W        W24113  13.562   7.257   3.107  0.1763 -0.0888 -0.1694
10700W        W24114   6.631  17.290  12.314 -0.1162 -0.1869 -0.2584
10701W        W24115   5.055   9.780   3.395  0.0337 -0.1988 -0.1855
10702W        W24116  11.456  18.102   2.364 -0.1160 -0.4187 -0.1002
10703W        W24117  13.551   5.474  14.490 -0.2206 -0.1359  0.2821
10704W        W24118   9.653   8.462   1.680 -0.3478 -0.2218  0.0908
10705W        W24119  12.279  15.329   1.747  0.0019 -0.0199 -0.0857
10706W        W24120  11.631  12.402  13.818 -0.0511  0.1705 -0.0977
10707W        W24121   0.118  16.755  13.493  0.0421 -0.0375  0.0118
10708W        W24122   1.611   3.823   0.674  0.0403 -0.0173  0.0573
10709W        W24123   1.308  10.583  12.046 -0.0139 -0.0463  0.0404
10710W        W24124   6.070  13.207  12.305  0.1035  0.0295  0.1576
10711W        W24125   9.583   1.645   1.404 -0.1831  0.1610  0.0270
10712W        W24126  18.065   4.701  16.144  0.0332 -0.0533  0.3152
10713W        W24127   4.348  17.156   6.430 -0.1602  0.1308  0.1553
10714W        W24128  16.929   0.601   6.684  0.1227 -0.4611 -0.1956
10715W        W24129   5.333  11.600  10.688  0.0489  0.0670  0.1047
10716W        W24130   7.176  14.953   3.952 -0.2045 -0.2320  0.0670
10717W        W24131   3.633  16.182   1.236  0.1130 -0.1584 -0.2930
10718W        W24132  15.778   7.320  11.194 -0.1722 -0.0481  0.4057
10719W        W24133  13.437   5.768   3.888 -0.1190  0.4810  0.1952
10720W        W24134  18.271   6.807  15.604  0.0600 -0.2051  0.0343
10721W        W24135   4.188  17.090   1.957  0.1490  0.4599 -0.0336
10722W        W24136  11.412   8.984  13.113 -0.0109 -0.0582 -0.1251
10723W        W24137   4.452  17.044   2.760  0.0550 -0.2171 -0.3012
10724W        W24138  11.399   2.785  16.235 -0.3257  0.0791  0.0475
10725W        W24139  14.926   2.885  15.639 -0.2805 -0.0694  0.1046
10726W        W24140   7.907  17.478   1.883  0.0042  0.2770  0.0865
10727W        W24141  12.621  11.910   2.221 -0.2462 -0.2315  0.1277
10728W        W24142  17.785   5.619   0.023  0.0532 -0.0120  0.2869
10729W        W24143   9.583  13.961   1.776 -0.0478  0.1456  0.3969
10730W        W24144  10.966  11.055  15.608 -0.1624 -0.4289 -0.0357
10731W        W24145  11.578   9.836   0.807  0.0048 -0.0702 -0.1454
10732W        W24146  17.359   1.808   0.240 -0.1863  0.0079 -0.1707
10733W        W24147  15.369  17.852  12.993 -0.1151  0.1205  0.3256
10734W        W24148  13.828  16.522  14.185  0.0684 -0.0739  0.0623
10735W        W24149   7.474  14.218   3.526  0.0622 -0.0402 -0.3136
10736W        W24150  13.168   8.706  15.440  0.0945 -0.2815  0.0800
10737W        W24151   0.340   1.281  15.528  0.2060  0.1619 -0.0766
10738W        W24152  11.403   6.269  11.947  0.1661  0.0609 -0.0030
10739W        W24153  10.734  16.501  11.108  0.1437 -0.3785 -0.0540
10740W        W24154   9.506   0.428  11.326 -0.1563  0.1897 -0.0221
10741W        W24155   7.889  16.688  16.102  0.0289 -0.1144  0.0610
10742W        W24156   3.969   0.428  13.903 -0.0305  0.1455 -0.1219
10743W        W24157  10.601   6.443  12.596 -0.0743 -0.1901 -0.0462
10744W        W24158   6.720   4.805   2.423 -0.1275  0.0679  0.1347
10745W        W24159   4.188   5.667  15.019 -0.0511  0.0245 -0.0413
10746W        W24160   5.395  10.705  11.943 -0.0768 -0.1639 -0.1121
10747W        W24161  14.114   6.166  14.511  0.1443  0.0653  0.1416
10748W        W24162  17.672   0.480   4.346 -0.2210 -0.0348  0.3441
10749W        W24163  12.379   2.029  11.013  0.3886  0.0109 -0.1135
10750W        W24164  12.900  12.210   0.535  0.2749  0.2361  0.0835
10751W        W24165   3.822   3.712  14.767  0.0688 -0.3180  0.0207
10752W        W24166   2.568  17.418   5.520  0.2001  0.0877 -0.2981
10753W        W24167  17.432  17.750   2.814 -0.0429  0.0072  0.0115
10754W        W24168   6.969   7.957   3.434 -0.1966  0.2351  0.2489
10755W        W24169   0.027   1.244  10.761 -0.2690  0.0979 -0.3616
10756W        W24170  12.389   9.228  11.784 -0.0602  0.4334  0.0028
10757W        W24171   5.309   9.035   0.467  0.1435 -0.1694  0.4038
10758W        W24172  10.253   1.450   0.555 -0.2438 -0.1395  0.0392
10759W        W24173   1.789  16.000   1.790  0.0279  0.0020 -0.1362
10760W        W24174  13.020   9.225   4.277  0.0157 -0.1898 -0.1273
10761W        W24175  11.485  13.925  12.576  0.0024 -0.0269  0.3239
10762W        W24176   7.225  11.066   6.032 -0.0934  0.0013  0.1730
10763W        W24177  17.710  17.365   4.669  0.1053 -0.1052  0.0458
10764W        W24178  14.467   4.888   2.666 -0.0714 -0.2633 -0.0439
10765W        W24179   8.228   7.736  10.809  0.3189  0.0601 -0.1316
10766W        W24180   8.638  17.923   2.519  0.1676 -0.0860 -0.0201
10767W        W24181   3.075   2.890  10.373 -0.1805 -0.0779 -0.0073
10768W        W24182  17.534  17.952  11.528  0.0186 -0.1712  0.0041
10769W        W24183  15.688   0.046   1.752  0.1543 -0.4260  0.1955
10770W        W24184  10.550   4.280   1.826  0.2025  0.1023 -0.0659
10771W        W24185  17.753  13.901  11.926  0.0853 -0.0300 -0.0765
10772W        W24186   2.056  17.445  13.215  0.1016 -0.0841  0.1188
10773W        W24187   8.396  16.925   5.455 -0.0250 -0.3756 -0.4186
10774W        W24188   5.772  13.499  15.111 -0.0698  0.0121  0.1149
10775W        W24189   4.146  12.166   4.943  0.1742  0.1129 -0.0212
10776W        W24190  11.249   5.065   3.592 -0.1735  0.3082  0.1829
10777W        W24191   8.036  18.373  15.895 -0.2648  0.0290 -0.0050
10778W        W24192   6.081   2.427  13.367 -0.0754  0.1183  0.2313
10779W        W24193  14.137   6.350  15.661  0.2015 -0.2202  0.1840
10780W        W24194   9.761  18.161  12.951 -0.0642  0.0645  0.0413
10781W        W24195  10.048   4.706  15.157 -0.5610  0.0097 -0.0108
10782W        W24196   6.103   3.346   2.938 -0.0110 -0.1892 -0.2004
10783W        W24197   6.167   9.965  10.498 -0.2061  0.1261 -0.2704
10784W        W24198  13.177  10.730   4.951 -0.0268  0.3363  0.0315
10785W        W24199   6.094  15.893   3.779 -0.2298  0.0558 -0.1066
10786W        W24200   9.971   5.188  11.884 -0.2527  0.0271 -0.0436
10787W        W24201   6.188   5.029  11.901  0.1513 -0.0565 -0.1091
10788W        W24202  11.269  11.144  11.197 -0.2060  0.1490 -0.0320
10789W        W24203  13.277   3.779   1.266 -0.1138 -0.0466 -0.2910
10790W        W24204  17.741  10.491   0.048 -0.3574  0.1044  0.4013
10791W        W24205  11.265   4.814   1.456 -0.0365 -0.0751 -0.1293
10792W        W24206  14.033  16.679   0.664  0.1428 -0.2386  0.2385
10793W        W24207   1.904  12.537   4.447  0.1192 -0.3867  0.0329
10794W        W24208   1.864  14.668   1.903 -0.5239  0.1535  0.1222
10795W        W24209   7.488   7.841   5.557 -0.4569  0.0527  0.1259
10796W        W24210  11.068   6.186  12.379 -0.0227 -0.1100  0.0366
10797W        W24211  11.020  10.331  11.103  0.1133 -0.4286 -0.0917
10798W        W24212   9.066   8.646   5.454 -0.0917 -0.2711  0.2793
10799W        W24213   8.251   4.498  13.845  0.0983  0.2415  0.0154
10800W        W24214  17.060  17.780   4.676 -0.0136  0.2001  0.0568
10801W        W24215   7.062   1.839  13.518 -0.0951  0.2295  0.2747
10802W        W24216   9.351  11.108  12.726 -0.0123 -0.0444 -0.3860
10803W        W24217   5.047  12.721  11.047  0.0223 -0.1404 -0.1400
10804W        W24218   4.921   0.192  15.046  0.1623 -0.1833  0.0796
10805W        W24219  16.818  18.387   0.301  0.1152  0.2373  0.4714
10806W        W24220  16.828  15.976   4.767  0.0477 -0.3155 -0.2011
10807W        W24221   5.426   8.283  13.045  0.0624 -0.1737  0.0040
10808W        W24222  10.661  13.161   1.149 -0.1091 -0.3413  0.2714
10809W        W24223  11.393  17.115  10.735 -0.1345 -0.2657 -0.1627
10810W        W24224  12.419  15.935   4.846  0.2804  0.1340 -0.0125
10811W        W24225   5.352   0.985  15.401 -0.3941 -0.1016  0.1179
10812W        W24226   2.523   5.125   1.312 -0.0566  0.3093  0.0374
10813W        W24227  16.459  10.846  12.039 -0.0415  0.2979  0.0820
10814W        W24228  13.003  13.235  13.660  0.1282  0.0085 -0.0877
10815W        W24229  12.015   9.328  11.433 -0.2054  0.0340  0.0331
10816W        W24230  13.114   5.027  11.636 -0.1465 -0.0254  0.0940
10817W        W24231  10.097  11.313  10.601 -0.1404 -0.2641  0.1154
10818W        W24232  17.143  17.218   5.368 -0.0664  0.0902 -0.0073
10819W        W24233   7.218   5.876  12.009  0.2521  0.2590  0.1743
10820W        W24234   5.118  15.825  13.122  0.1422 -0.0936  0.1989
10821W        W24235  15.068   4.535  12.634  0.0118  0.2625  0.1499
10822W        W24236   6.625   2.954  16.018 -0.3176 -0.0313  0.0966
10823W        W24237   2.933  15.164   3.395  0.0459 -0.1023 -0.1295
10824W        W24238   1.295  11.096   5.105  0.1252 -0.0230 -0.5629
10825W        W24239  13.492   0.573   5.211 -0.0751  0.5270  0.1748
10826W        W24240  18.416  17.049   2.553  0.0429  0.0306 -0.0570
10827W        W24241  11.303   8.309  12.847 -0.1769  0.0577  0.3305
10828W        W24242  12.513   6.467   4.005  0.0619  0.3681  0.1304
10829W        W24243  13.535   5.615   5.555 -0.0455  0.0468 -0.0178
10830W        W24244  14.032  17.326   0.935 -0.1228 -0.1895 -0.1628
10831W        W24245  11.717   4.478  15.953  0.1071 -0.0286 -0.1082
10832W        W24246   2.513  12.818  15.163  0.0780  0.3411 -0.0358
10833W        W24247  13.184   0.902   5.047  0.1554  0.1242  0.0784
10834W        W24248   0.027   1.455  12.610  0.1181 -0.0655  0.0497
10835W        W24249   2.870   1.097   4.418  0.0383 -0.1662 -0.2355
10836W        W24250  15.863   2.180  11.237  0.0572 -0.2015  0.0823
10837W        W24251  11.561   8.378   0.555 -0.1166  0.0139  0.1571
10838W        W24252  15.858   8.443  14.606  0.0875 -0.0847  0.2413
10839W        W24253   0.904   0.698   0.973 -0.0919  0.1291  0.1818
10840W        W24254   6.624  11.612   4.185 -0.4010  0.0176  0.0324
10841W        W24255  16.056  14.615  11.664 -0.0590  0.0756  0.0001
10842W        W24256   1.582  16.897  14.641  0.4225 -0.0808  0.1928
10843W        W24257  15.933  10.651   9.835 -0.3277  0.0444  0.1472
10844W        W24258  13.936   0.833   5.259  0.0575 -0.0748 -0.1773
10845W        W24259   2.232  12.800   5.875 -0.0191 -0.1296 -0.1482
10846W        W24260   9.676  17.786  10.030 -0.0908 -0.1700 -0.6116
10847W        W24261   5.294  16.808  13.683  0.4826 -0.0681  0.0947
10848W        W24262   3.228   2.456  16.053  0.3958  0.0663  0.2663
10849W        W24263  17.880  15.870   1.239 -0.2734  0.1733 -0.1130
10850W        W24264  17.936   1.688  12.769 -0.1305  0.3228 -0.0370
10851W        W24265   7.476  14.837  13.331  0.0788  0.3265 -0.1942
10852W        W24266  12.177  17.736   3.069  0.3699  0.2361  0.0316
10853W        W24267   6.296   8.982   0.201 -0.0831  0.0280 -0.1731
10854W        W24268   8.005  14.685  13.019 -0.1092 -0.3081  0.0469
10855W        W24269   9.720  14.157  12.551  0.2568  0.1275 -0.0437
10856W        W24270  14.937   2.007   4.627  0.0155 -0.3165  0.0421
10857W        W24271   3.533   4.069  11.027 -0.1225 -0.0126  0.1492
10858W        W24272   5.678   0.876   3.228 -0.3447  0.0782 -0.1342
10859W        W24273   9.378  11.881  12.397  0.1575 -0.0887  0.0928
10860W        W24274  16.381   1.138   4.346  0.3227  0.3522 -0.1376
10861W        W24275  12.238   2.134   0.907 -0.0683 -0.0187  0.1534
10862W        W24276   1.671   1.939  13.516 -0.0794  0.0672  0.1008
10863W        W24277   2.597  17.136   6.017  0.0696  0.0541  0.0702
10864W        W24278   9.432  11.189   3.161  0.0280 -0.0640 -0.2691
10865W        W24279   3.810   6.616  16.074  0.1137 -0.0274 -0.0088
10866W        W24280  13.909   1.613  11.957  0.1788 -0.0279 -0.2072
10867W        W24281   9.581   1.920  14.598  0.1259 -0.2691  0.0043
10868W        W24282   8.007   9.613  15.951 -0.2189 -0.0273  0.0209
10869W        W24283   1.037  14.081   3.052 -0.1917 -0.0182  0.0502
10870W        W24284   8.101   6.649   6.015  0.0856 -0.0268  0.0132
10871W        W24285   7.762  13.757   1.113  0.2227  0.0530 -0.0809
10872W        W24286   7.097  12.811   3.247  0.0701 -0.0974 -0.2918
10873W        W24287  14.062  17.419   3.180  0.0198 -0.2152 -0.0743
10874W        W24288   0.251  15.723  12.398  0.1655 -0.0057 -0.1923
10875W        W24289   0.480  16.721  13.188 -0.2970  0.0700 -0.6151
10876W        W24290  15.748   1.971  13.012  0.0453 -0.0050 -0.2195
10877W        W24291  11.181  10.512   3.396  0.0133  0.1747 -0.0850
10878W        W24292   4.063   1.100   3.087  0.1408 -0.1308 -0.0217
10879W        W24293  12.603  16.741   4.669 -0.0683 -0.4233 -0.2808
10880W        W24294   2.780   3.019   3.809 -0.0134 -0.0137  0.0764
10881W        W24295   7.301   3.256   5.341 -0.0173  0.0051 -0.2433
10882W        W24296   8.093   7.060   3.869  0.0639  0.0264 -0.0205
10883W        W24297  16.988   8.209   4.271  0.1681  0.1088  0.3986
10884W        W24298  12.540   4.668   4.669 -0.2242 -0.2266  0.0969
10885W        W24299   4.371   4.732   1.519  0.0241  0.0677  0.0904
10886W        W24300   6.766   2.548   1.623 -0.1354  0.1599  0.0029
10887W        W24301   2.074   7.973  12.246  0.2619 -0.0872 -0.0984
10888W        W24302  15.510   6.649  12.056  0.2996 -0.2688 -0.2582
10889W        W24303  17.676   6.661   5.632  0.1807  0.4907 -0.2947
10890W        W24304  18.111  11.271  13.502 -0.1028 -0.1585 -0.1074
10891W        W24305   7.825   1.210   4.161 -0.3314  0.2058 -0.0724
10892W        W24306  10.785  12.106   4.684  0.2120  0.1184 -0.3945
10893W        W24307  15.397   3.321   4.421 -0.1809  0.2038 -0.3608
10894W        W24308   0.304  16.345  10.862 -0.0091 -0.0771  0.0331
10895W        W24309  16.869   5.164   4.665 -0.3233  0.2085 -0.1479
10896W        W24310  13.894   1.300   4.069 -0.0389 -0.3238 -0.0487
10897W        W24311   1.907  15.719  13.387  0.1546 -0.0767  0.0885
10898W        W24312   3.165   5.125  10.602 -0.2463 -0.0940  0.0360
10899W        W24313   8.689   4.381   4.394 -0.2483 -0.1579 -0.0954
10900W        W24314   5.418  13.639   2.823  0.1122  0.3273 -0.1598
10901W        W24315   2.502   1.408   5.270 -0.1393 -0.1902 -0.1086
10902W        W24316  14.466   6.351   4.054  0.2542 -0.0512 -0.0401
10903W        W24317   0.489   1.885  11.236 -0.2142 -0.0352 -0.1554
10904W        W24318   9.779   8.105  11.060  0.0463  0.0299  0.0025
10905W        W24319   2.181  16.179  12.446  0.0441 -0.0694  0.3185
10906W        W24320  14.741  13.221  13.544 -0.1482  0.3293 -0.3969
10907W        W24321   4.398  17.615   2.881  0.1579  0.1582 -0.0025
10908W        W24322   6.320  13.706  13.425  0.0214  0.2459 -0.0730
10909W        W24323  14.229   4.029  14.674  0.0593  0.1411  0.1074
10910W        W24324   4.476   3.239   3.765 -0.4331  0.2342  0.1247
10911W        W24325  10.887   5.143   2.429 -0.2841 -0.2087 -0.2131
10912W        W24326  16.315   5.181   1.960 -0.3113  0.0319 -0.1369
10913W        W24327   5.209   0.216   5.980  0.1890 -0.0963  0.3411
10914W        W24328  11.736   9.663  14.878 -0.1335  0.1750  0.4800
10915W        W24329   1.132  13.446  13.553 -0.1724  0.1010  0.0090
10916W        W24330   4.226  13.588   5.697 -0.0120 -0.0708  0.1534
10917W        W24331  12.696   9.228  13.636 -0.1848 -0.2882 -0.1078
10918W        W24332  15.044  15.197  14.784 -0.1238  0.0405  0.1049
10919W        W24333  16.327   5.353  14.628  0.0172  0.1731 -0.0231
10920W        W24334   0.377  11.188   0.623 -0.1267 -0.1994  0.0395
10921W        W24335   2.827   3.975   2.798  0.0016  0.1168  0.3722
10922W        W24336  16.729  10.713  14.348  0.2965  0.2559 -0.0551
10923W        W24337  16.782  17.019   0.942  0.1408 -0.3592 -0.1218
10924W        W24338   2.859   3.164  10.706  0.2692  0.0688 -0.1857
10925W        W24339  12.255  16.326  15.121  0.1643  0.0788  0.1006
10926W        W24340   9.173  15.425  12.199 -0.0460 -0.1261 -0.2415
10927W        W24341   3.796  15.734   4.503  0.2622 -0.0431  0.1780
10928W        W24342  16.605   1.651   3.657 -0.0968  0.3467  0.1172
10929W        W24343  16.470   5.114   1.319 -0.3824  0.2501 -0.1558
10930W        W24344   7.058  15.475  10.406 -0.5209 -0.0330  0.1642
10931W        W24345   7.696   6.499   2.870  0.0725 -0.1921  0.1275
10932W        W24346   3.900  14.049   0.561 -0.1184 -0.3108 -0.0716
10933W        W24347   4.799   3.401  10.639 -0.0374 -0.1891 -0.2223
10934W        W24348  10.103  11.570   1.305 -0.2030 -0.1957  0.0759
10935W        W24349  10.966  10.014  13.370  0.1643  0.0177  0.1443
10936W        W24350   0.213  18.333  13.859 -0.5415  0.0223 -0.0217
10937W        W24351  12.635  12.194   5.333  0.1499  0.0981  0.1474
10938W        W24352   6.474  12.681   1.253  0.0997 -0.2119 -0.1575
10939W        W24353   0.179  15.205   2.367 -0.0185 -0.1011 -0.1147
10940W        W24354   8.529   9.010   0.206 -0.0452 -0.1434 -0.2018
10941W        W24355   1.250  15.068  11.109  0.0768  0.0201  0.1591
10942W        W24356  17.858  16.534  11.851 -0.2197  0.0373 -0.2129
10943W        W24357  16.686   2.738   5.280  0.0262 -0.2938  0.0263
10944W        W24358   5.085   4.099  14.319  0.0529 -0.0558  0.1942
10945W        W24359   1.800  14.667  16.066  0.1216 -0.2923  0.4774
10946W        W24360   0.109   2.947  10.156  0.0564  0.3115  0.3551
10947W        W24361   9.426   0.564   3.312  0.0586 -0.1702  0.3460
10948W        W24362   0.755   4.446  12.459  0.1379 -0.1365  0.0057
10949W        W24363  10.299   6.657  15.097  0.1087  0.0870  0.1124
10950W        W24364  10.689  17.638   1.637 -0.1857 -0.2643 -0.2794
10951W        W24365   0.749  13.361  10.632  0.1738 -0.0499  0.0023
10952W        W24366  12.190  17.425  15.219 -0.0619 -0.1548 -0.0683
10953W        W24367   2.066   3.055  10.806  0.1194 -0.0688  0.1820
10954W        W24368  13.398  12.462  15.865 -0.1423  0.0373  0.0297
10955W        W24369   0.380   4.544   2.340 -0.2357 -0.1154 -0.1277
10956W        W24370  17.148   0.511   1.151  0.1083 -0.0567  0.0424
10957W        W24371   7.474  14.140   9.846  0.1146 -0.1255 -0.0963
10958W        W24372  17.860   9.937  14.010 -0.1152  0.1046  0.0625
10959W        W24373   3.493   9.296  11.348 -0.2368  0.2241  0.0190
10960W        W24374   8.580  10.096  12.615  0.2159  0.2026 -0.0977
10961W        W24375   8.184   3.674  13.192 -0.1828  0.0892 -0.0073
10962W        W24376   9.037  15.143   0.195 -0.2188  0.2309 -0.0990
10963W        W24377  16.543   2.427   4.489 -0.0375  0.0013  0.0293
10964W        W24378   8.758   5.054   4.882  0.2559  0.1754 -0.4146
10965W        W24379  12.550   1.003  12.942  0.1263  0.4059  0.0906
10966W        W24380   0.530  15.498   1.949  0.1080 -0.3358  0.1439
10967W        W24381  12.442  12.981  13.715 -0.4042  0.0523 -0.3445
10968W        W24382   6.891   1.444  11.521  0.1440 -0.2778 -0.1478
10969W        W24383   3.375   8.875   5.891  0.0001 -0.0473 -0.4383
10970W        W24384  14.466   2.770  11.125  0.0441 -0.0807  0.1457
10971W        W24385  10.292   5.295   1.697  0.1277 -0.1561 -0.1841
10972W        W24386   7.714   5.382   0.212  0.0871  0.0586  0.1943
10973W        W24387   6.382   6.859   4.791  0.0190 -0.3211  0.2301
10974W        W24388   7.822  12.857  12.698 -0.0431 -0.1080 -0.1284
10975W        W24389   5.498  14.667  13.161 -0.2951  0.0419 -0.0874
10976W        W24390   3.335  10.860  11.036  0.0109 -0.1285 -0.0940
10977W        W24391   7.058  15.965  12.299 -0.1157 -0.1459 -0.0946
10978W        W24392   5.353  15.454  14.857  0.0301  0.0655 -0.4063
10979W        W24393  10.399   6.226   1.842  0.0375 -0.0046  0.2312
10980W        W24394  17.925   7.114  14.228  0.3311  0.1509 -0.2272
10981W        W24395  10.950   5.680  10.638  0.0527 -0.4535 -0.0158
10982W        W24396   6.424   9.779   5.160  0.1546 -0.0694  0.1795
10983W        W24397   9.173  17.111   3.492 -0.1876  0.0548 -0.3090
10984W        W24398  10.647   8.311   4.079 -0.2445 -0.2033  0.1982
10985W        W24399   8.394   5.773   1.406  0.0452  0.0760 -0.1429
10986W        W24400   6.807  11.948   3.270  0.4209  0.1564  0.0563
10987W        W24401  10.278  18.127  12.922  0.0423  0.0666  0.0558
10988W        W24402   8.195  10.904  15.854  0.0582 -0.0965  0.2917
10989W        W24403  13.984  15.414  10.756 -0.1359  0.1957 -0.0492
10990W        W24404  10.701   3.982  10.667  0.2606 -0.2159 -0.2002
10991W        W24405   8.131   4.584  15.346 -0.3786  0.0334 -0.0243
10992W        W24406   8.541  11.203  14.636 -0.1616 -0.3479  0.0123
10993W        W24407  18.384  16.554   1.195 -0.2798 -0.1960  0.1054
10994W        W24408  12.574  15.886  11.736  0.0286  0.1373 -0.0522
10995W        W24409   9.444  15.509  11.340  0.1528  0.0936 -0.0499
10996W        W24410   6.906   2.990   1.370  0.2132  0.1400 -0.1231
10997W        W24411  10.199  10.641   0.444 -0.0756  0.0098 -0.1785
10998W        W24412   1.349  17.397  14.012 -0.2551 -0.1325 -0.1582
10999W        W24413   2.073  15.496  14.321 -0.1819 -0.0330  0.2612
11000W        W24414  16.247   9.138  10.598 -0.0522 -0.1996 -0.0117
11001W        W24415  11.428   9.297   5.392 -0.0309  0.0231 -0.2151
11002W        W24416   2.698  10.652   3.048 -0.2449  0.2001 -0.2379
11003W        W24417  17.460   5.447   6.206 -0.1089 -0.0570  0.0648
11004W        W24418  17.215   1.120   5.970 -0.0887  0.2020  0.4503
11005W        W24419   6.420   5.110   0.222 -0.0539  0.0409 -0.2086
11006W        W24420   8.857   1.128   5.217  0.0861  0.2634 -0.0632
11007W        W24421   9.982  15.035   4.305  0.0548  0.0393 -0.1144
11008W        W24422  12.847  16.947   2.578 -0.2109 -0.3833 -0.1357
11009W        W24423  18.059  18.054   5.358  0.4533  0.0496  0.1984
11010W        W24424   3.443  12.484  13.565 -0.2550 -0.2064  0.0854
11011W        W24425   4.416   6.326  14.432  0.3608 -0.2087  0.0151
11012W        W24426   7.402  11.029   1.516  0.1968  0.0649 -0.0997
11013W        W24427  11.294  16.808   4.343 -0.0643  0.0058  0.3209
11014W        W24428  17.045   5.062   1.173  0.1754  0.4306 -0.0505
11015W        W24429  17.569   4.313  14.388  0.3164  0.0701  0.0759
11016W        W24430   7.676  10.004  10.360  0.2375  0.1988  0.0332
11017W        W24431  10.789   9.068  13.837  0.1325 -0.3724  0.2615
11018W        W24432  16.073  17.242   0.417  0.0949 -0.1473  0.1107
11019W        W24433   8.878  10.475   5.374 -0.3342 -0.0657 -0.0934
11020W        W24434  14.210   3.565   6.202 -0.0714 -0.2464  0.0734
11021W        W24435   9.396  15.448   5.170 -0.0066  0.0543 -0.0373
11022W        W24436  17.523   8.620   1.168  0.0136  0.4823 -0.2664
11023W        W24437   4.047   6.718  10.694  0.2481  0.3090 -0.1025
11024W        W24438   9.787   2.531  13.904  0.2612  0.0815 -0.0149
11025W        W24439  11.572  15.484  13.543 -0.1373  0.2438  0.4307
11026W        W24440   4.942   0.109   4.977 -0.0124  0.0051 -0.0858
11027W        W24441   1.645   0.537   3.179  0.0499 -0.0421  0.1468
11028W        W24442   1.756   7.579   6.144  0.0596  0.0546 -0.0452
11029W        W24443   3.457   4.527  11.260 -0.1036  0.1615  0.1907
11030W        W24444  14.155   5.909   4.156 -0.0212  0.1271  0.0576
11031W        W24445  17.532   3.976  14.981 -0.2589  0.0298  0.0968
11032W        W24446  11.364  13.433   3.359  0.0715  0.0256 -0.3304
11033W        W24447   3.849   9.468   3.977 -0.0916  0.2953  0.0749
11034W        W24448  15.521   4.845  12.574  0.2703 -0.1941  0.3150
11035W        W24449   6.305   8.461   3.158 -0.1092 -0.2458  0.3694
11036W        W24450  15.881   6.236  12.899 -0.1736 -0.3433  0.3179
11037W        W24451  13.369  10.040  15.777  0.2714  0.0385 -0.1946
11038W        W24452  15.728  13.284   1.870 -0.1317  0.1672 -0.0125
11039W        W24453  14.372  17.360  13.206 -0.0654 -0.1206  0.0112
11040W        W24454  16.487   0.669   4.124 -0.1658 -0.1905  0.1217
11041W        W24455  11.397   8.878  14.629 -0.0600 -0.2280  0.0779
11042W        W24456   7.289   3.209  13.606 -0.1493  0.1925 -0.0047
11043W        W24457   8.433  13.306  10.290 -0.0133 -0.0481  0.1443
11044W        W24458  17.139  16.365  16.040 -0.0188  0.1180 -0.0885
11045W        W24459  10.265   1.552  10.847 -0.2144 -0.1166  0.1371
11046W        W24460  15.737   3.404  11.890  0.3390  0.0511 -0.0799
11047W        W24461   3.786   8.381  10.031 -0.2034  0.0828  0.1757
11048W        W24462  11.235   7.186   6.680  0.0813  0.1595 -0.1037
11049W        W24463  15.445   7.971   3.720 -0.0305 -0.0148  0.1109
11050W        W24464   2.271  10.706   4.206  0.0065  0.0181 -0.0308
11051W        W24465   2.590  15.002  10.904 -0.0875 -0.3316  0.0789
11052W        W24466   7.580   6.308  11.154  0.0265  0.2521 -0.3821
11053W        W24467   0.993   7.671   2.105 -0.0663 -0.1313 -0.0078
11054W        W24468   2.073  15.056  12.467 -0.1273 -0.1610 -0.0951
11055W        W24469  11.736  10.213  11.256  0.1579  0.2001 -0.0720
11056W        W24470  14.469   7.529  15.268  0.0321  0.0095 -0.1548
11057W        W24471   6.497   6.514   0.534  0.0600  0.0533 -0.0003
11058W        W24472  18.290  16.818   2.153 -0.1140 -0.0742 -0.0303
11059W        W24473   7.347  17.255  15.390 -0.0109 -0.0775 -0.1907
11060W        W24474  17.996  16.966   1.399  0.0184  0.1990 -0.0077
11061W        W24475   3.264  17.085  12.759  0.2194 -0.0264 -0.1095
11062W        W24476   6.027   4.550   0.503  0.3035 -0.2139 -0.0276
11063W        W24477  10.335  13.654  11.669  0.0838  0.1269  0.1164
11064W        W24478   4.374  18.107  13.238 -0.2779  0.0002 -0.3346
11065W        W24479  10.955   3.038   0.093  0.3154 -0.1599  0.1222
11066W        W24480  18.203  11.241  12.354 -0.1209 -0.3107  0.1836
11067W        W24481   6.975   9.316   1.071 -0.1899 -0.0937  0.1229
11068W        W24482   2.097   9.853   5.259 -0.0350  0.2628 -0.1320
11069W        W24483  13.995   9.374  16.080 -0.0595 -0.1113 -0.1962
11070W        W24484  10.664   3.803   1.915  0.2037  0.0135 -0.1057
11071W        W24485  14.996   4.870   2.485  0.0047  0.0016 -0.1806
11072W        W24486   3.601  17.087   2.327  0.3444  0.2954  0.3888
11073W        W24487   9.972  11.347   0.898 -0.0229  0.5710 -0.0370
11074W        W24488  14.472   0.403   2.163  0.1586  0.0342 -0.1724
11075W        W24489   8.475  18.386   5.110 -0.1025 -0.2375 -0.1183
11076W        W24490  18.324  14.715   2.919  0.2111 -0.1651 -0.1285
11077W        W24491  12.674   5.226  11.860  0.0683 -0.0945 -0.0551
11078W        W24492   4.730   8.247  12.447  0.4745  0.1797  0.2455
11079W        W24493   5.777   4.963  11.462 -0.2077 -0.0983  0.1097
11080W        W24494   4.235   3.745   3.641 -0.0207  0.1683 -0.1102
11081W        W24495   0.705   2.550  11.292  0.0742  0.1731 -0.3705
11082W        W24496   8.827   3.519  13.717 -0.1123  0.3998  0.1530
11083W        W24497   1.194   4.921  12.792  0.0263  0.0268  0.0396
11084W        W24498   1.798   5.989   3.652 -0.1749 -0.0985  0.1620
11085W        W24499   2.298   1.205   1.195 -0.1056  0.0590  0.0216
11086W        W24500  10.048   9.273   4.349  0.0156 -0.1181 -0.0673
11087W        W24501  13.888   5.485   0.223 -0.1430 -0.0070 -0.1532
11088W        W24502   4.707   0.182  15.783 -0.1157  0.0499 -0.0802
11089W        W24503   0.814  12.232  16.198  0.0660  0.1917 -0.1367
11090W        W24504   4.443  10.141  11.608 -0.0076  0.1132  0.2051
11091W        W24505   5.374  14.794   3.843 -0.4085 -0.2240 -0.2829
11092W        W24506  10.898   9.450   2.786  0.0397 -0.0647  0.3919
11093W        W24507   1.618   2.966   5.224  0.4773  0.1481  0.0115
11094W        W24508   7.664  15.803  15.137  0.0404 -0.0697  0.0131
11095W        W24509   2.839   8.423  15.172  0.0582 -0.0531 -0.0829
11096W        W24510   0.366   4.816  13.613 -0.1788  0.1475  0.1700
11097W        W24511   2.868   7.495   0.914  0.0103 -0.0022  0.3492
11098W        W24512  14.300  15.691  12.470  0.1446 -0.0857  0.0543
11099W        W24513   1.780  11.782   2.599  0.2077  0.0339 -0.0864
11100W        W24514   3.382   5.626  13.397  0.1297  0.2259 -0.2091
11101W        W24515  10.134  17.766  10.313 -0.1955 -0.1405 -0.0734
11102W        W24516   0.367   8.821  12.836 -0.1146  0.1312  0.0494
11103W        W24517  18.378  15.503  13.545 -0.1491  0.1540  0.0454
11104W        W24518   7.025  17.111  14.090 -0.2127  0.4818  0.1479
11105W        W24519   2.428  12.886   0.619  0.0955  0.1150 -0.0255
11106W        W24520   1.531   8.054   1.337  0.0288  0.3484  0.1620
11107W        W24521  10.511   8.399   2.084  0.1395  0.1353 -0.0395
11108W        W24522   1.730  13.839  11.160  0.2490 -0.0325  0.3957
11109W        W24523   8.748   8.845  12.290 -0.1907 -0.1151 -0.5277
11110W        W24524   0.416   4.507   5.366  0.1227 -0.0230 -0.2870
11111W        W24525   5.041   3.388   0.568 -0.0163  0.0944 -0.0584
11112W        W24526   2.072   6.730   5.884  0.1089 -0.3996  0.2611
11113W        W24527  17.569  16.014   5.648  0.0697  0.0180  0.1786
11114W        W24528  16.363   1.484   0.287  0.3332 -0.1640  0.1661
11115W        W24529  17.175  17.721   3.842  0.0435 -0.0005  0.0103
11116W        W24530  14.679   8.232   1.483 -0.2546  0.0228 -0.1433
11117W        W24531   5.487  12.158  12.582 -0.2007  0.1924 -0.0698
11118W        W24532   4.358   4.741  12.799 -0.1700  0.3349 -0.1783
11119W        W24533  17.456  15.602   4.200 -0.0272  0.2575 -0.0413
11120W        W24534   6.700  13.131   1.351  0.1859 -0.1690 -0.1299
11121W        W24535  14.809  10.828  14.786 -0.3008  0.2529 -0.0600
11122W        W24536  14.027   6.303   4.921  0.0754  0.1029  0.0348
11123W        W24537   5.881  14.663   3.321 -0.4115 -0.2656 -0.2805
11124W        W24538   4.864   8.001  10.745 -0.0565  0.0542 -0.1827
11125W        W24539   0.240   7.465   2.638  0.0604  0.2157 -0.1211
11126W        W24540   4.154  13.253   0.215  0.0794  0.2498 -0.0668
11127W        W24541  11.204  17.636   3.498 -0.2647  0.0198 -0.0025
11128W        W24542   0.019   1.991   4.988  0.1577 -0.1143  0.1365
11129W        W24543   6.559  10.557   0.986 -0.2603  0.0995 -0.1872
11130W        W24544  16.789  11.436  13.399  0.2467  0.1830  0.0245
11131W        W24545   9.460  16.402   2.258 -0.2103  0.0892  0.1282
11132W        W24546  11.973  15.812   0.374 -0.3325 -0.0104  0.3920
11133W        W24547   5.583   4.215   0.386  0.1190 -0.0253 -0.2719
11134W        W24548   6.911  11.368  12.853 -0.2249 -0.0559  0.2176
11135W        W24549  17.079   1.638   2.540  0.0050  0.0178 -0.0885
11136W        W24550  14.202   3.599  10.183  0.0520  0.1369  0.0460
11137W        W24551  17.958   6.951   3.923 -0.0638  0.1527  0.1032
11138W        W24552  17.149  10.819   2.889 -0.3070 -0.1528  0.1561
11139W        W24553   1.569   6.023   1.764  0.1704 -0.0264  0.1410
11140W        W24554   1.557   1.795   3.738 -0.0426  0.2071 -0.1634
11141W        W24555   3.302  16.469   4.081  0.2932  0.0129 -0.2001
11142W        W24556   7.078   4.806   9.995 -0.0701  0.1211 -0.1065
11143W        W24557   9.900   3.089  12.668  0.3845  0.2565 -0.1265
11144W        W24558  10.198   4.625   1.452 -0.0647 -0.1256  0.2746
11145W        W24559   9.523   4.216  13.509  0.0735  0.0247 -0.0330
11146W        W24560   6.432  12.457   0.752 -0.1724  0.1096 -0.1385
11147W        W24561   6.970  10.232  11.761 -0.1155 -0.0403 -0.0222
11148W        W24562   4.838  17.191   3.895  0.1564 -0.1579 -0.0075
11149W        W24563   0.138  11.707   1.001 -0.1295  0.0985  0.0717
11150W        W24564  15.048   9.484   4.795  0.0390 -0.2289  0.0223
11151W        W24565   8.977  10.708  13.759 -0.0566 -0.1203  0.1739
11152W        W24566   5.422   5.237  16.192  0.1160 -0.0423 -0.2112
11153W        W24567  10.997   9.828   1.385  0.4504 -0.1013 -0.2766
11154W        W24568  16.819  11.233   3.592 -0.1968 -0.0242  0.3308
11155W        W24569  14.754   7.922  12.560 -0.2410 -0.0751 -0.0060
11156W        W24570   7.831   9.689  13.132  0.1041 -0.3514 -0.3043
11157W        W24571  10.169   6.608  12.177 -0.3031 -0.0335  0.3018
11158W        W24572   7.814  11.655   4.737 -0.1794 -0.2323 -0.0958
11159W        W24573   4.604  14.044   0.654 -0.0196  0.0072  0.1969
11160W        W24574  11.747  13.508   2.089  0.1424 -0.0521  0.0217
11161W        W24575  15.976  11.201   3.081  0.2095 -0.2726 -0.1898
11162W        W24576   8.433   6.400  11.861 -0.1882  0.2096  0.1048
11163W        W24577   4.027   1.398   1.263 -0.0883 -0.0157 -0.0512
11164W        W24578  11.653  10.631   5.222 -0.1435 -0.2342  0.1611
11165W        W24579   9.428   5.286   1.987  0.1191 -0.2062 -0.2343
11166W        W24580   2.851  15.467   0.163  0.1341  0.0726  0.1751
11167W        W24581   2.672   4.102  11.044 -0.0017 -0.0772  0.1016
11168W        W24582  13.010   2.440  12.464  0.4208  0.0525  0.1667
11169W        W24583  18.242   1.779   2.991 -0.0678  0.1418 -0.1173
11170W        W24584   7.175   2.928   3.213  0.1387 -0.1116  0.0809
11171W        W24585   1.775   1.302   3.603 -0.0494  0.1205 -0.1448
11172W        W24586  15.784  14.908  14.421  0.2419  0.2297 -0.0893
11173W        W24587  10.994   8.921  10.699  0.0526  0.1382 -0.0989
11174W        W24588  12.941   9.364  11.578 -0.2019 -0.1103  0.1341
11175W        W24589   9.166   1.159  14.465 -0.1399 -0.0602  0.1437
11176W        W24590   8.765   7.748   0.902  0.0923 -0.0478 -0.1873
11177W        W24591  11.693   8.964   5.737 -0.0504 -0.2379 -0.2765
11178W        W24592   5.867   3.305   2.151  0.3008 -0.1167 -0.0378
11179W        W24593   3.813   0.839  14.793 -0.1299  0.1170 -0.1549
11180W        W24594  12.440   7.316  13.490 -0.0646  0.0377 -0.1765
11181W        W24595  14.510   8.569   2.355 -0.1161  0.0987  0.0158
11182W        W24596   8.241  14.733   5.223 -0.1110 -0.0867  0.7700
11183W        W24597   2.749   8.515  12.493 -0.0484  0.0218 -0.0704
11184W        W24598   5.272   5.092   1.195  0.1406 -0.0419 -0.0116
11185W        W24599   9.515   7.772   5.447 -0.1009  0.0601  0.3066
11186W        W24600  13.058   6.744  11.514  0.3914  0.0061  0.1187
11187W        W24601  16.531   8.247  13.951 -0.0437 -0.2124 -0.1769
11188W        W24602   1.494   8.927   4.179 -0.0501 -0.0184  0.4292
11189W        W24603  13.042  11.476   0.123  0.0169  0.1477  0.1657
11190W        W24604  17.263   7.643   6.093 -0.2003  0.2797 -0.2317
11191W        W24605  16.810  15.099  11.029 -0.0804  0.0513  0.1374
11192W        W24606  13.686  15.511   0.016  0.3376  0.0522 -0.0506
11193W        W24607   5.113   8.669   5.119  0.3397 -0.3069  0.2479
11194W        W24608  17.841   5.515   1.053 -0.0328  0.3142 -0.0131
11195W        W24609   1.410   8.807   9.915  0.0505  0.2775 -0.0609
11196W        W24610  11.997  15.211  15.896  0.1419  0.0544 -0.1225
11197W        W24611  18.289  10.889   3.603  0.0581  0.0394  0.1317
11198W        W24612  15.229   0.395   9.968 -0.3711 -0.0515  0.0090
11199W        W24613   7.512   6.166  14.497  0.2030  0.0101 -0.4287
11200W        W24614   9.000   9.962  10.816 -0.0667 -0.1017 -0.0557
11201W        W24615  13.006  17.886  12.955  0.0211  0.0541 -0.1761
11202W        W24616   1.215   3.059   1.031  0.1915 -0.1711 -0.1127
11203W        W24617  17.199  12.192   5.954 -0.0551  0.1966  0.0968
11204W        W24618   2.444  10.009   4.923 -0.4603  0.1589 -0.0296
11205W        W24619   0.592  11.823  12.586 -0.0066  0.2336 -0.0377
11206W        W24620   1.677   1.258  10.761  0.1361  0.3945 -0.0390
11207W        W24621  15.474   1.492   3.310 -0.1462  0.0416  0.0730
11208W        W24622  11.888   8.201  15.675  0.0456 -0.1520 -0.2485
11209W        W24623   4.569   8.474   4.088 -0.2736 -0.1523  0.2084
11210W        W24624   4.852   0.731  15.838  0.3202 -0.1444 -0.1399
11211W        W24625   4.578  12.833  13.094 -0.4089  0.1877 -0.0926
11212W        W24626  16.615  17.352  12.278 -0.0707 -0.1213 -0.1954
11213W        W24627   9.635  17.104   4.285  0.3292 -0.0706 -0.0207
11214W        W24628  16.310   0.404  14.745 -0.0376 -0.3937 -0.0711
11215W        W24629  15.429   0.761  10.426  0.5528 -0.1539 -0.3015
11216W        W24630   3.056  16.635  10.674  0.0868 -0.2194  0.0624
11217W        W24631  16.874   0.741  12.874  0.1033 -0.0046  0.0063
11218W        W24632   7.626  12.496   5.497  0.3071 -0.1250  0.2984
11219W        W24633   8.702  15.706  12.057  0.0177  0.0989 -0.3525
11220W        W24634  12.953   3.518   5.660 -0.0724 -0.2310 -0.3784
11221W        W24635   2.304   8.258   4.646  0.1739  0.1710  0.1694
11222W        W24636  16.145   0.676   2.899  0.0460  0.0496  0.1866
11223W        W24637   1.006  12.262  15.720  0.1687 -0.0178 -0.0300
11224W        W24638  18.384   0.716  14.033 -0.1853 -0.1427 -0.2881
11225W        W24639   4.328   9.314   4.023  0.2306 -0.2299  0.1502
11226W        W24640   6.794   4.768  16.037  0.1252  0.3521 -0.0325
11227W        W24641   8.276  18.203   4.299 -0.1562 -0.0587  0.1353
11228W        W24642   0.428  12.890   0.147  0.0404 -0.1631 -0.2502
11229W        W24643   3.922  10.993  15.410  0.1967 -0.0239  0.3217
11230W        W24644  12.823  16.984   1.305 -0.0605 -0.5166  0.3007
11231W        W24645  13.339  17.844   5.181 -0.0945  0.1039  0.0566
11232W        W24646  10.434  11.224  10.148 -0.0950  0.0955  0.0015
11233W        W24647   5.173  11.406   2.011 -0.0012  0.2341 -0.0800
11234W        W24648  11.980  13.630  15.654 -0.0722 -0.0580  0.0585
11235W        W24649   7.300  16.505   6.178  0.2190  0.2424 -0.4110
11236W        W24650  14.219  12.512   1.953 -0.1560  0.5313  0.2446
11237W        W24651   9.449  16.888  12.496  0.2207 -0.0796  0.2413
11238W        W24652   5.001  12.638   0.554  0.1196  0.1119 -0.0757
11239W        W24653   4.076   5.783  15.615  0.2976 -0.1163 -0.0790
11240W        W24654  17.607  18.311   2.930  0.2971 -0.1968 -0.0758
11241W        W24655   2.845   8.024  15.863 -0.3417  0.3955  0.2155
11242W        W24656  14.458   6.321  11.027 -0.1010 -0.0274 -0.0692
11243W        W24657   4.089  12.439   1.514  0.0652  0.1442 -0.2157
11244W        W24658   7.184  14.916   4.672  0.1595 -0.0715 -0.0001
11245W        W24659   1.619   3.897  11.320 -0.1169 -0.0428  0.3385
11246W        W24660   9.716   5.773   0.801 -0.2519 -0.3653 -0.1372
11247W        W24661  12.971   3.732   4.348  0.2875 -0.2038 -0.0863
11248W        W24662  17.686  11.835  12.291 -0.0449 -0.4015 -0.2222
11249W        W24663   5.465   0.782   2.206 -0.3222  0.0077 -0.2552
11250W        W24664   4.319   3.870  14.914 -0.1497 -0.0173 -0.1591
11251W        W24665   3.620   7.742  13.023 -0.3882  0.2830 -0.0850
11252W        W24666   0.846   6.751  14.860 -0.1099 -0.0687 -0.2232
11253W        W24667   5.633  15.706  10.630 -0.0638 -0.1150 -0.0398
11254W        W24668  13.078   5.402  13.394 -0.1241  0.0124 -0.2301
11255W        W24669   7.460   4.701   2.523  0.5497 -0.1494  0.2195
11256W        W24670   7.421  10.807  14.876  0.0904 -0.1142  0.4935
11257W        W24671   3.786  12.270  14.350  0.1117  0.0422  0.2011
11258W        W24672  13.390  15.654  11.833  0.1646  0.0180  0.1286
11259W        W24673  12.088   4.201  13.406  0.0028  0.2088 -0.1547
11260W        W24674   4.978  13.074  16.241  0.0363  0.0730 -0.0026
11261W        W24675   3.533  12.477  12.416 -0.0444 -0.0028  0.0234
11262W        W24676  12.719  16.204   2.674 -0.1557  0.1230 -0.0428
11263W        W24677   9.674   0.972  14.639  0.0647  0.2395 -0.1665
11264W        W24678  13.931   9.746  12.805 -0.1186  0.2315  0.0496
11265W        W24679  16.187  15.930  13.591 -0.1463 -0.2136 -0.0240
11266W        W24680   0.943   0.213   6.211 -0.1505  0.1858  0.0081
11267W        W24681  17.613   4.331   5.103  0.1205 -0.1223 -0.1835
11268W        W24682   2.965   1.614   4.506  0.2853 -0.2181 -0.1093
11269W        W24683  18.118  13.352  10.820  0.3059 -0.2500 -0.0105
11270W        W24684   0.443   0.055   0.100  0.1702 -0.1137 -0.0743
11271W        W24685  16.281  15.161  12.343  0.0555  0.0282  0.1609
11272W        W24686   3.104  10.718   2.625  0.0628  0.0369 -0.1288
11273W        W24687  14.229   3.918  12.297  0.1018 -0.1324 -0.0691
11274W        W24688  10.762  16.260  16.240  0.0879  0.0511  0.3888
11275W        W24689  13.822   3.411  11.620 -0.0206  0.0247  0.2130
11276W        W24690  16.182   2.198  12.824 -0.4175  0.0427 -0.3148
11277W        W24691   0.475   5.576  10.053  0.2662 -0.0177 -0.0075
11278W        W24692  12.366  12.010   5.808  0.4401  0.0963 -0.1042
11279W        W24693   2.710  14.552  11.144 -0.2655 -0.0102  0.0223
11280W        W24694  12.343  14.912   3.862 -0.0463 -0.0841 -0.0682
11281W        W24695   7.014   1.180   0.933  0.1138 -0.1237 -0.0050
11282W        W24696   8.362   6.840  12.252  0.3434  0.1740  0.1594
11283W        W24697   3.387   1.143   4.964 -0.1066 -0.1502  0.0516
11284W        W24698   9.323   3.981  12.358  0.0471  0.1389  0.0594
11285W        W24699   4.498  16.890   3.673 -0.0076  0.3078  0.0173
11286W        W24700  16.615  17.996   5.459 -0.1170  0.1871 -0.0274
11287W        W24701   4.354   2.018  16.245  0.0395 -0.1000  0.2141
11288W        W24702  17.839   3.614   4.789  0.2292  0.2315  0.5290
11289W        W24703   9.684   7.362   1.783  0.0891 -0.2964  0.2059
11290W        W24704   6.320   7.228  13.917  0.1035 -0.0629  0.0581
11291W        W24705   9.842   4.056  12.994  0.1119 -0.1552  0.0295
11292W        W24706  14.241   4.523   0.034  0.3418  0.0935  0.2790
11293W        W24707  14.449  13.485   4.749  0.3074  0.1586  0.0981
11294W        W24708   3.994  15.996   4.021  0.1113  0.0785  0.0378
11295W        W24709   7.987  10.470  15.739 -0.1144 -0.2459  0.1507
11296W        W24710   7.238   5.983  14.066  0.1280  0.2957 -0.0135
11297W        W24711   0.817   4.278   4.219  0.0988  0.3649 -0.0366
11298W        W24712   8.462  15.029   2.137  0.0255  0.0238  0.3143
11299W        W24713  14.692  11.631   0.553  0.1378  0.0206 -0.0554
11300W        W24714  10.557   5.298   6.050 -0.0278 -0.2432  0.4784
11301W        W24715  15.974   9.899   0.084 -0.0398 -0.2994 -0.0441
11302W        W24716   5.264  14.094   5.055  0.1186 -0.0732 -0.0422
11303W        W24717   5.798  10.489   4.687 -0.3159 -0.1021  0.2990
11304W        W24718  13.695  11.687   3.899  0.2676  0.0590  0.2397
11305W        W24719   8.553   8.706  11.343 -0.1499  0.0170  0.0106
11306W        W24720   5.033  13.508   9.907  0.1153 -0.1132  0.1755
11307W        W24721   7.071  13.715  10.800 -0.0745  0.2873 -0.1185
11308W        W24722  15.698   9.907  13.251  0.3191  0.1252 -0.2634
11309W        W24723   0.745   6.182  15.076  0.1883 -0.2179 -0.2098
11310W        W24724  10.399   0.512  14.743 -0.1318 -0.0750  0.0872
11311W        W24725  14.015   5.364  12.343 -0.1116  0.1123 -0.4616
11312W        W24726   7.353   2.906   1.644 -0.1515 -0.2208 -0.1937
11313W        W24727  11.368  17.493   3.013 -0.1002 -0.1852 -0.1018
11314W        W24728   8.927   4.738  15.826 -0.1818  0.0093 -0.4193
11315W        W24729  17.851   1.577   4.266 -0.1176  0.5315 -0.0463
11316W        W24730   9.684   6.495   6.361 -0.1246 -0.3217 -0.1124
11317W        W24731  11.747  13.036   5.577  0.0850  0.2690  0.0494
11318W        W24732  15.355  14.382  12.306  0.0627 -0.0569  0.0301
11319W        W24733   1.010   5.220   0.770  0.0736  0.1870  0.3131
11320W        W24734   3.105   3.060   0.889 -0.3346 -0.0993  0.0574
11321W        W24735  12.233  13.856   5.249 -0.3888 -0.1603 -0.2095
11322W        W24736   1.592  17.834  14.968  0.0658 -0.1716 -0.0156
11323W        W24737  14.968  18.436  10.137 -0.1783 -0.0464 -0.0684
11324W        W24738  13.655  14.621  14.735 -0.1734 -0.1063  0.0633
11325W        W24739  10.183  12.736   0.587 -0.1778  0.0480  0.0864
11326W        W24740  14.667   2.237  14.403  0.0786 -0.1014  0.2144
11327W        W24741  16.814   3.553   4.593 -0.1487  0.0782  0.0065
11328W        W24742  10.573   5.594   2.505 -0.0042 -0.0733  0.0086
11329W        W24743   6.866   0.262   3.430  0.2123  0.2230  0.2880
11330W        W24744  12.863  11.990   5.787  0.3482 -0.1903  0.2668
11331W        W24745   0.337  12.300  15.846  0.4804  0.1642  0.2075
11332W        W24746   8.405   2.329  11.579 -0.0563 -0.1157 -0.0052
11333W        W24747   8.422   6.390  10.075 -0.1860  0.1475  0.0442
11334W        W24748  18.274   1.360  16.260  0.0576 -0.0974 -0.1829
11335W        W24749  14.163   5.298   2.640 -0.2601 -0.0958  0.3148
11336W        W24750   7.379   0.157   1.779  0.3145 -0.3816 -0.2876
11337W        W24751  16.773   7.855  11.765 -0.2095 -0.3509 -0.1843
11338W        W24752   0.951   9.842  13.996 -0.4535 -0.0231 -0.0059
11339W        W24753   7.651   2.095   2.844  0.0027  0.1021 -0.3176
11340W        W24754  14.447  17.262   1.299 -0.1928 -0.1865 -0.0298
11341W        W24755   0.763  16.680  11.282 -0.1630 -0.1210 -0.4834
11342W        W24756   6.703   3.099  13.586  0.1821 -0.2809  0.2036
11343W        W24757   4.428   3.183  12.596  0.2178  0.0089 -0.1501
11344W        W24758   9.697   7.954  15.312 -0.0149  0.1307 -0.0486
11345W        W24759   8.125   5.433   3.896  0.0501  0.3091  0.0292
11346W        W24760  10.813  18.107   4.727 -0.2897 -0.2565 -0.0038
11347W        W24761  16.093  11.983  16.263  0.3423  0.0605 -0.0092
11348W        W24762  14.772   1.545  10.048  0.0680 -0.0137 -0.0421
11349W        W24763   5.377   6.395  13.052  0.1576 -0.4212  0.4972
11350W        W24764   7.790   0.816  16.178  0.1284  0.1972 -0.0806
11351W        W24765   9.901   2.945   2.900 -0.1586  0.0076  0.1223
11352W        W24766   9.215   4.195   2.904 -0.0846 -0.2021 -0.1467
11353W        W24767   8.360   9.509  15.607 -0.2025 -0.0848 -0.0286
11354W        W24768   0.049   1.403   5.351  0.2196 -0.2642  0.2936
11355W        W24769   4.137  16.278   1.155 -0.3183 -0.2446  0.3057
11356W        W24770  10.694   0.133   4.576 -0.0272  0.3877 -0.0026
11357W        W24771   6.468   7.998   3.960 -0.4057 -0.0966  0.0683
11358W        W24772  11.443   5.234  12.699 -0.2945  0.0407  0.0773
11359W        W24773  17.803   9.235   3.037 -0.1704  0.0104  0.0924
11360W        W24774  15.317   4.547   2.819 -0.1713 -0.3202 -0.0965
11361W        W24775  16.188   5.796   4.442 -0.1058 -0.0560 -0.1187
11362W        W24776   3.012  13.786  10.668 -0.1087  0.1097  0.0793
11363W        W24777   8.901  16.791   1.604 -0.2013 -0.0772  0.0216
11364W        W24778   4.897   6.067   3.774  0.5349 -0.4056 -0.1130
11365W        W24779  18.309   9.961  13.700  0.1892  0.1893 -0.0217
11366W        W24780   6.843  10.933   1.355 -0.0185  0.0186 -0.0649
11367W        W24781  15.762   3.086  12.262  0.2315 -0.2281 -0.3060
11368W        W24782   8.416  18.317  14.242 -0.3310  0.2661  0.0925
11369W        W24783  17.273  14.759  15.009  0.1653 -0.2345 -0.3330
11370W        W24784  15.893  17.452   5.241 -0.0343  0.2038  0.3719
11371W        W24785   4.121   4.591  12.295 -0.1818 -0.2446 -0.4254
11372W        W24786  14.532  14.543   0.905  0.1351 -0.0097 -0.1059
11373W        W24787   9.814  12.639   5.508  0.1965 -0.0673  0.0455
11374W        W24788  17.079   2.483   1.535  0.0094  0.1290 -0.1435
11375W        W24789  14.803   3.793   6.839 -0.1185 -0.2013  0.2230
11376W        W24790  14.709  14.618  12.715  0.2028  0.1574 -0.1357
11377W        W24791   5.999  10.699   2.671 -0.2817 -0.2252 -0.0815
11378W        W24792   3.588   7.861   5.678 -0.3050 -0.0693 -0.0188
11379W        W24793  12.377   5.203   5.922 -0.0270 -0.0093 -0.0168
11380W        W24794   0.047  12.334   1.680 -0.1269  0.1768  0.1275
11381W        W24795   0.713   1.760   2.601  0.0205  0.0716 -0.0355
11382W        W24796  14.452   3.562   4.950 -0.2380  0.0951  0.0436
11383W        W24797  11.478   0.953  15.040 -0.1422  0.0477 -0.3567
11384W        W24798   0.502   5.247   2.495 -0.0370  0.0900  0.1276
11385W        W24799   2.645  15.189   9.949  0.1918  0.1460  0.0739
11386W        W24800   8.518   6.003  12.160  0.1829  0.2082  0.1781
11387W        W24801  13.894  10.841   5.659 -0.1271 -0.0581  0.0670
11388W        W24802  13.360   4.606   0.309 -0.0097  0.0297  0.2341
11389W        W24803  14.218  16.515  10.222 -0.0442  0.0806 -0.0836
11390W        W24804  14.896  11.799   1.966  0.0643 -0.0299  0.0455
11391W        W24805   3.916  15.178   3.537 -0.0609 -0.2180  0.3123
11392W        W24806   2.404   8.284  12.086  0.2192 -0.1419 -0.2382
11393W        W24807  18.433   0.932  11.844  0.1310  0.1068  0.0720
11394W        W24808   1.243  17.885  13.375  0.0965  0.0955  0.2195
11395W        W24809  17.653   9.425   5.386 -0.2358 -0.0562  0.3141
11396W        W24810   4.019   9.567   0.518 -0.2125 -0.3165 -0.1259
11397W        W24811  15.809   6.778   0.753 -0.0152 -0.0041  0.4436
11398W        W24812   0.271   0.118  14.631 -0.0104  0.1573  0.0439
11399W        W24813   9.629   5.646  15.472 -0.0636 -0.3785 -0.1289
11400W        W24814  17.829   9.878   5.559 -0.0598  0.0438  0.2175
11401W        W24815   2.014  10.847   1.312  0.4688  0.0433 -0.0875
11402W        W24816  17.933  15.528  14.847 -0.1051  0.5958 -0.2498
11403W        W24817  11.516  13.058   1.357 -0.0650  0.0232 -0.3375
11404W        W24818  11.424  10.006   4.107  0.2487 -0.3680  0.2056
11405W        W24819   4.332  10.163   2.347 -0.0491 -0.4070 -0.1477
11406W        W24820  18.337   0.175   6.141 -0.0955  0.2322 -0.0941
11407W        W24821   3.020   9.876   5.650  0.1295 -0.1638 -0.1204
11408W        W24822  15.445  14.138  14.943  0.0044  0.4412  0.3412
11409W        W24823  12.927  15.449   4.819  0.0810 -0.2379  0.0731
11410W        W24824   1.212  12.470   4.058 -0.0463  0.0237 -0.0666
11411W        W24825   3.976  11.963  12.098 -0.4577 -0.0402 -0.1337
11412W        W24826   7.373  14.210   1.126  0.3216  0.1518  0.1686
11413W        W24827   5.349   9.261   4.204 -0.0357  0.1252 -0.1426
11414W        W24828   1.314   6.423   5.368  0.0385  0.2542 -0.2027
11415W        W24829  13.756  10.812   2.678  0.0985 -0.1717  0.2780
11416W        W24830  12.756  12.721   3.688  0.2435  0.2512  0.2306
11417W        W24831  12.818   9.583   1.327  0.1495 -0.2429  0.2037
11418W        W24832  14.091   3.112  11.105 -0.1919  0.0293 -0.0727
11419W        W24833  12.708   0.332   1.942  0.2564 -0.1759 -0.1251
11420W        W24834  13.041  10.860  10.764 -0.2623 -0.0002 -0.2025
11421W        W24835  13.915   8.349  16.178 -0.1198 -0.1609 -0.0329
11422W        W24836   9.577  15.907   2.974 -0.0547 -0.2862 -0.3728
11423W        W24837   0.179  16.982   1.060  0.3464 -0.1025  0.0957
11424W        W24838   8.521   8.054  16.077 -0.1110  0.1484  0.1399
11425W        W24839   8.748   7.515   3.451  0.0172 -0.0945  0.3357
11426W        W24840   4.569   9.787   2.495 -0.1694 -0.0538 -0.4574
11427W        W24841   8.241  13.839   3.193 -0.1512 -0.0871  0.2826
11428W        W24842   1.401   1.997   0.366  0.1735 -0.2264  0.1191
11429W        W24843  15.726  12.644   0.469  0.1350 -0.0570 -0.0591
11430W        W24844   8.614   7.000   2.698  0.1511  0.0948 -0.0302
11431W        W24845   0.757  10.716   5.709 -0.0215 -0.1107  0.2001
11432W        W24846   0.671   9.146  13.041 -0.1264  0.1225 -0.1073
11433W        W24847   9.953  17.220   3.114  0.1379 -0.0957 -0.1051
11434W        W24848   5.639   7.824  12.718  0.1635  0.0005  0.0209
11435W        W24849  17.556  13.258  12.769  0.1002 -0.0475  0.0791
11436W        W24850   8.310   4.024   4.365 -0.0677 -0.0750 -0.2230
11437W        W24851  18.142   9.766   3.457 -0.2175  0.1653  0.2787
11438W        W24852   0.613  15.394  12.536  0.1013  0.0885 -0.2902
11439W        W24853  16.125   9.830   3.611 -0.0186 -0.1050 -0.0589
11440W        W24854  12.981  15.255   4.355 -0.1453 -0.0769  0.0706
11441W        W24855   9.071   9.770  16.089  0.1266 -0.0735 -0.4560
11442W        W24856   5.944  18.040   3.588 -0.1590  0.3142 -0.0839
11443W        W24857   6.304   7.508   4.218  0.2455  0.3574  0.1149
11444W        W24858  16.098  10.949  14.324 -0.2718 -0.2512  0.3729
11445W        W24859   3.715   3.106   1.884 -0.0295 -0.1593  0.0977
11446W        W24860  11.322   2.271  13.662  0.0657  0.3328 -0.1648
11447W        W24861   1.943   3.179   0.145  0.0246 -0.4448 -0.1887
11448W        W24862  16.033   1.474  15.570 -0.1280 -0.1316 -0.2426
11449W        W24863  17.586  16.310  14.658 -0.3176  0.2075  0.0981
11450W        W24864  16.399   4.238   2.011  0.0318 -0.0325  0.0982
11451W        W24865   1.607  11.998   5.357 -0.2185 -0.0867 -0.0065
11452W        W24866   1.453   0.038  10.997  0.2597 -0.4239 -0.0534
11453W        W24867  12.804   3.362  13.249  0.0084  0.1892 -0.1896
11454W        W24868  14.500  16.210  16.113 -0.1564 -0.0382 -0.1701
11455W        W24869   2.938   9.800   4.268  0.2269 -0.0480 -0.0879
11456W        W24870   4.856   8.344  12.973  0.0365  0.3889  0.1332
11457W        W24871   5.415  16.502   3.232 -0.3036  0.1237  0.2417
11458W        W24872  12.565  14.749  10.802 -0.0199 -0.0810  0.1588
11459W        W24873   0.591   2.412   4.377  0.0895 -0.0099 -0.1289
11460W        W24874   0.452   6.297  13.840 -0.0982  0.1420  0.0673
11461W        W24875   6.529  15.589   2.599  0.0660 -0.0438  0.0494
11462W        W24876  12.041  17.470   2.570 -0.1217  0.2352  0.0503
11463W        W24877  12.461   3.253   5.554  0.1005 -0.0241 -0.0865
11464W        W24878  13.423  13.052   1.291 -0.0313 -0.2795  0.1107
11465W        W24879  14.974  14.903  12.293  0.1096  0.0506  0.2526
11466W        W24880   4.929   4.832   0.900  0.2371  0.0289 -0.1047
11467W        W24881  12.276  10.392  15.631  0.0717  0.1000  0.1468
11468W        W24882  16.735   5.784   4.545 -0.0469  0.0575  0.2703
11469W        W24883  17.171  10.959  15.243  0.2237 -0.0023  0.2908
11470W        W24884   2.707  17.994  14.053  0.1581  0.1906 -0.0011
11471W        W24885   5.249  17.305  12.402 -0.1084  0.0403 -0.1262
11472W        W24886   2.923   7.775   0.516 -0.0547 -0.1417 -0.2213
11473W        W24887  15.174  16.765   2.943 -0.1151 -0.3607 -0.0808
11474W        W24888  16.664  11.032   4.808 -0.0694  0.1581 -0.0885
11475W        W24889  18.125   8.477  12.942 -0.3702 -0.0508 -0.1601
11476W        W24890   1.812  15.707   3.833 -0.0680  0.0143 -0.0610
11477W        W24891   9.561   6.780   2.789 -0.1154 -0.2401  0.2022
11478W        W24892  10.140  10.250   2.343  0.1733  0.5349 -0.2614
11479W        W24893   5.412  10.035   3.140  0.0138 -0.0866 -0.0777
11480W        W24894  18.233  16.516  15.875 -0.0844  0.0953 -0.1224
11481W        W24895   1.322  10.953  13.581 -0.0587  0.1049 -0.1743
11482W        W24896   4.588  13.491  16.257  0.2027  0.0645 -0.0826
11483W        W24897  10.370  11.144  11.195  0.0112  0.1442 -0.2475
11484W        W24898   5.509   8.586  11.303  0.1089  0.1843 -0.2111
11485W        W24899   0.200   3.994   0.593 -0.1650 -0.1654  0.0026
11486W        W24900  11.388   2.918   1.104  0.0983  0.3474 -0.0746
11487W        W24901  16.101  12.727  14.384 -0.2094  0.0613  0.2817
11488W        W24902   5.947   1.770   3.197 -0.2248 -0.0042  0.0636
11489W        W24903  16.346   3.813  13.956  0.0209  0.1289  0.5213
11490W        W24904   2.278  15.499   2.273 -0.1266 -0.2112 -0.0830
11491W        W24905   7.138   7.541   3.713  0.2677 -0.2884  0.1143
11492W        W24906   7.051   8.406   3.609 -0.1408 -0.0093  0.4483
11493W        W24907   2.622   1.456  14.248  0.1836 -0.1024  0.1354
11494W        W24908   1.703   0.665   0.161 -0.1903  0.2792 -0.4370
11495W        W24909  15.282   6.212   3.710  0.0462  0.1917  0.3503
11496W        W24910   3.065  17.058  13.634  0.1101  0.0916 -0.1708
11497W        W24911   9.801   9.762   3.635 -0.0435 -0.0471  0.1895
11498W        W24912   0.950   3.974  14.484 -0.0582  0.0498  0.1824
11499W        W24913   4.974  16.178  15.678  0.2129  0.3207 -0.0740
11500W        W24914  12.487  15.230   4.851 -0.3265 -0.0996  0.0839
11501W        W24915   0.771  11.607   5.734 -0.1905 -0.1829  0.0036
11502W        W24916  10.836  16.486  10.009 -0.1335  0.1162 -0.1863
11503W        W24917   0.856   2.705   0.710  0.0763 -0.1826  0.1460
11504W        W24918  10.387  13.791   2.783  0.1441  0.1380  0.1144
11505W        W24919   3.797  15.351   1.141 -0.0063 -0.1129 -0.0814
11506W        W24920  16.403  15.144  15.865  0.0803 -0.0139 -0.2571
11507W        W24921  13.067   9.845  15.275 -0.1197  0.3985 -0.0097
11508W        W24922   2.507   6.533  13.217 -0.4004 -0.3272  0.1663
11509W        W24923  10.311   8.735   0.057 -0.0644  0.0705 -0.0127
11510W        W24924   2.718   4.444  12.793  0.2097 -0.0045  0.1397
11511W        W24925   7.438   6.107   4.304 -0.0731 -0.2129  0.2617
11512W        W24926   2.306   1.988   4.037  0.1312  0.1146  0.2192
11513W        W24927   0.189  14.359  11.349 -0.2113  0.0565 -0.0001
11514W        W24928  12.239   0.693   5.363 -0.1745 -0.1630  0.3459
11515W        W24929  11.766   8.698  14.976 -0.2154  0.2568 -0.1378
11516W        W24930   4.030   7.918   2.015 -0.0095  0.1444  0.2663
11517W        W24931   7.600   6.334  15.674  0.0994 -0.0138  0.4068
11518W        W24932   2.458   2.554  15.850 -0.1193 -0.0852 -0.0499
11519W        W24933  10.586  10.556  11.548 -0.1470  0.0108 -0.2212
11520W        W24934   8.744  17.115  12.685  0.0933  0.0671 -0.2215
11521W        W24935  10.712  16.838  14.335 -0.0935 -0.0518  0.1329
11522W        W24936  17.732  10.829  13.167 -0.1749 -0.0483 -0.0006
11523W        W24937   2.184   2.854  15.459 -0.3367 -0.1461 -0.1017
11524W        W24938   0.021   8.232  14.630 -0.2060  0.1234 -0.0444
11525W        W24939  10.937   5.355   4.621  0.4807  0.4086 -0.1878
11526W        W24940   5.765  13.735  13.325 -0.1734 -0.1686 -0.0179
11527W        W24941   9.296  10.752   4.476  0.0483 -0.1985  0.0257
11528W        W24942  16.014  13.214   5.437 -0.1255  0.0590 -0.2316
11529W        W24943   2.873   1.975   1.996 -0.0126 -0.0439 -0.1853
11530W        W24944   1.948  16.794   1.020 -0.2571  0.2351  0.2550
11531W        W24945  16.824   4.539   3.699  0.0503 -0.3849  0.2439
11532W        W24946   0.400   0.799   6.389  0.0525 -0.0424 -0.2327
11533W        W24947   0.205   9.901   2.642  0.0890 -0.0777 -0.1662
11534W        W24948   8.091   1.259   0.709 -0.1215  0.1458 -0.1115
11535W        W24949  17.137  11.622   6.372  0.0811  0.0949  0.0800
11536W        W24950  13.144  17.021   0.785  0.1714 -0.1894 -0.1188
11537W        W24951   4.290  14.595   5.940  0.3230  0.0838 -0.0332
11538W        W24952  16.105   5.997  14.853  0.2030  0.1921 -0.4407
11539W        W24953   2.890   6.988   0.981 -0.1453  0.1503  0.0416
11540W        W24954   7.306  11.431   4.806 -0.0074  0.1719  0.1068
11541W        W24955  16.728  12.341   3.921  0.1688  0.0124  0.2243
11542W        W24956   3.294   1.738   0.344  0.0917 -0.2530 -0.2257
11543W        W24957  12.195   4.784   1.049  0.3252  0.0112  0.0109
11544W        W24958   0.246   6.561   0.237  0.1489  0.1744  0.0514
11545W        W24959  10.723  14.182   2.539  0.0298  0.0879 -0.3197
11546W        W24960   1.213   5.566  15.915 -0.1172  0.1054 -0.3095
11547W        W24961   7.124  12.985  15.796  0.1452 -0.2668 -0.0940
11548W        W24962   7.794  12.786  15.218  0.0042 -0.0196  0.1923
11549W        W24963  15.630  13.204  15.612 -0.0747  0.0689  0.0427
11550W        W24964   2.662  14.729   4.626 -0.1697  0.1157 -0.0321
11551W        W24965  14.681  13.576   3.860 -0.0941  0.1118 -0.0895
11552W        W24966   6.059   7.618  14.102 -0.2327  0.1329 -0.2594
11553W        W24967  13.082   3.265   2.417 -0.4039  0.3139  0.3127
11554W        W24968  14.460  18.087   2.697  0.0192  0.0405  0.1391
11555W        W24969  15.580  18.287   2.312  0.0695 -0.0859 -0.0512
11556W        W24970  11.624  15.520   0.652  0.1826  0.0330  0.2833
11557W        W24971  15.384   8.411  14.803 -0.1711 -0.3224 -0.0263
11558W        W24972   6.034   6.889   6.140 -0.0006  0.2572  0.0292
11559W        W24973   8.536   3.959   0.712 -0.1446 -0.0801  0.1677
11560W        W24974  16.289   7.904   2.006 -0.2708  0.0556  0.0199
11561W        W24975   7.896  10.375  16.230 -0.0111  0.0386  0.1172
11562W        W24976  15.897  15.130  13.934 -0.0319 -0.0732  0.1268
11563W        W24977   2.627  15.418   1.925 -0.0937  0.2324  0.3631
11564W        W24978   7.904  15.145  16.014 -0.2347  0.0624  0.0628
11565W        W24979  15.184   6.638   3.375 -0.1763  0.2046 -0.0964
11566W        W24980   5.702   0.264   1.079 -0.1873  0.2174  0.0630
11567W        W24981  15.061   0.084   5.688 -0.0122  0.1440 -0.0296
11568W        W24982   9.469  10.748  13.161 -0.0954  0.1364  0.3672
11569W        W24983   2.609  10.012   3.886 -0.1084 -0.1062  0.0830
11570W        W24984   2.258  17.296  14.382 -0.2293  0.1414  0.0637
11571W        W24985   3.015   2.220  10.981 -0.2181 -0.4619 -0.1775
11572W        W24986   6.532   2.086  13.574 -0.2026  0.1647  0.2360
11573W        W24987   4.686   7.196  14.728 -0.3749  0.3665 -0.1230
11574W        W24988   9.071  13.362   4.000 -0.0423  0.3703 -0.4588
11575W        W24989   5.506   6.321  13.853 -0.0661  0.1138  0.1190
11576W        W24990  12.964  12.912   2.149  0.0966  0.1138  0.0893
11577W        W24991  12.457  18.216  10.411 -0.1964 -0.2160 -0.2321
11578W        W24992   2.763  14.424  12.169  0.0657  0.1120  0.0561
11579W        W24993   5.206   2.415  12.674  0.1634 -0.0236  0.1353
11580W        W24994   3.445   9.185  13.555 -0.0885  0.1266 -0.1342
11581W        W24995  13.060   1.442  12.066 -0.0734 -0.1006  0.1044
11582W        W24996   0.692  16.278  12.077  0.0160  0.0737 -0.1106
11583W        W24997   1.933   9.999  10.206 -0.2453 -0.2854  0.1295
11584W        W24998  13.945  15.092  15.573 -0.0812  0.3208  0.2331
11585W        W24999  11.032   1.242   4.001  0.0011 -0.0695 -0.1871
11586W        W25000   7.934  10.263   0.430  0.1531 -0.2366 -0.1586
11587W        W25001   8.014   9.992  15.604  0.0177 -0.0595 -0.3017
11588W        W25002   6.244  17.505  12.824  0.3577  0.0193 -0.0115
11589W        W25003  16.936  16.222   6.130 -0.1296  0.1244 -0.1559
11590W        W25004  17.135  13.086  15.530  0.2579  0.0129 -0.1624
11591W        W25005  13.756   4.092   3.476 -0.0097 -0.0750  0.2616
11592W        W25006  17.027   8.376   0.492  0.5947 -0.0386  0.1864
11593W        W25007   7.671  14.589  13.814 -0.1010  0.1289 -0.1918
11594W        W25008   7.661   1.718  14.925 -0.3121 -0.1490  0.3840
11595W        W25009  16.955   2.330  12.487  0.0770 -0.1077 -0.4299
11596W        W25010   1.894   4.345  11.452 -0.0674  0.2722  0.2240
11597W        W25011  10.947   1.917  15.904  0.0279  0.1373 -0.2342
11598W        W25012   3.628  10.660  16.162  0.1664  0.1482 -0.1507
11599W        W25013   4.231   9.048  11.939 -0.2732  0.1383  0.0671
11600W        W25014  10.152  12.021  12.226  0.1785  0.1628 -0.1259
11601W        W25015  15.696   7.560   2.913  0.2391 -0.2115  0.2917
11602W        W25016  16.716  10.154  14.341  0.0598  0.3874 -0.2190
11603W        W25017   2.009   4.098   1.692  0.3512 -0.2218  0.0965
11604W        W25018   3.127  17.276  16.086  0.2641 -0.0376  0.1175
11605W        W25019  17.711   8.571   5.010  0.0471 -0.1455 -0.2344
11606W        W25020  12.590  16.704   3.718 -0.0607  0.0089 -0.2194
11607W        W25021  16.872  16.305   4.307  0.2276  0.0537  0.1739
11608W        W25022  14.796   1.991   2.359  0.3075 -0.0971  0.0153
11609W        W25023  17.145  15.294  13.717 -0.2227  0.4259 -0.0741
11610W        W25024  16.939  14.196  12.970  0.2905 -0.3853  0.0459
11611W        W25025  11.815  14.161   5.229 -0.1276 -0.0964  0.0096
11612W        W25026  10.999   4.663   1.029  0.3052  0.0800 -0.1102
11613W        W25027   5.909   2.208   5.179 -0.1528  0.0183 -0.0636
11614W        W25028  17.815   7.731  10.704  0.0241 -0.0245  0.1493
11615W        W25029   9.327  10.546  12.009  0.2171 -0.3712 -0.1539
11616W        W25030   4.866   8.213   1.875 -0.1754 -0.1802 -0.0395
11617W        W25031   0.716  13.541   1.762 -0.0339 -0.0100  0.2444
11618W        W25032   5.098   4.787  10.200 -0.0893 -0.2733 -0.1255
11619W        W25033   2.793   7.520  16.055  0.0451  0.3073 -0.1717
11620W        W25034  13.753  17.800  11.510 -0.1278  0.1754 -0.2190
11621W        W25035  11.239   9.489   4.210 -0.1607  0.0271 -0.0321
11622W        W25036   4.020   7.260   6.180  0.0659 -0.0605 -0.0864
11623W        W25037  18.353  15.345   4.665 -0.2860  0.1307  0.1589
11624W        W25038  15.593   2.895   0.595  0.2012 -0.1238 -0.2372
11625W        W25039   7.968  12.566   3.344  0.1963  0.3757 -0.0720
11626W        W25040  11.141  11.043   0.349  0.0119 -0.0364 -0.0668
11627W        W25041  10.208   7.720   3.810  0.2696 -0.0086  0.1942
11628W        W25042  11.092  16.266  15.819 -0.0955  0.0043  0.0563
11629W        W25043  16.122  16.233  10.624 -0.3091 -0.2752 -0.1880
11630W        W25044  16.278   7.674  11.720  0.2450  0.1517  0.4047
11631W        W25045   8.398   7.620  12.802 -0.1642 -0.2276 -0.0653
11632W        W25046   5.301  17.244  13.853 -0.3700 -0.1623 -0.2249
11633W        W25047  16.122   2.562   2.189  0.0573  0.1167 -0.0087
11634W        W25048  10.806  11.937  11.548 -0.1160 -0.0349  0.0469
11635W        W25049   2.975   5.766   4.994 -0.1336  0.1602 -0.1520
11636W        W25050  14.312  10.444  14.716  0.0621  0.0064  0.1984
11637W        W25051  12.549  16.633  13.479 -0.1447 -0.1335  0.0045
11638W        W25052  14.834  16.105  10.650  0.2369 -0.0181  0.0779
11639W        W25053   2.107  18.069  14.858  0.3065  0.1603  0.1702
11640W        W25054   0.825  18.151   6.307  0.1473  0.1606  0.0803
11641W        W25055  11.230   0.289  14.003  0.1529 -0.0079 -0.1794
11642W        W25056  10.690  10.933   2.103 -0.0049 -0.0552 -0.3275
11643W        W25057  15.135  14.427   3.885 -0.1446  0.2562 -0.4848
11644W        W25058  16.855  15.527   1.833 -0.0581  0.0686  0.0330
11645W        W25059  17.996   3.541  10.918 -0.0978 -0.0161 -0.0937
11646W        W25060  14.033   9.474   3.828  0.0257  0.1580  0.2174
11647W        W25061   3.737   3.454  14.345  0.1210  0.1031 -0.0769
11648W        W25062  10.968   6.771  11.215 -0.2237 -0.1047  0.1247
11649W        W25063   1.279  16.572   3.324  0.1285 -0.1304 -0.0707
11650W        W25064  16.053  14.060  12.694 -0.1782  0.1931  0.0147
11651W        W25065   9.960  11.714  10.954  0.1906  0.0104 -0.5095
11652W        W25066  13.406   4.460   0.774  0.1262 -0.1509 -0.1864
11653W        W25067  16.870   0.913   1.236 -0.1193  0.1898  0.1888
11654W        W25068   7.732   5.190  14.266 -0.1753 -0.0913 -0.0806
11655W        W25069  16.831  12.053   3.359 -0.0253 -0.1869 -0.2189
11656W        W25070  12.968   2.355  14.868  0.3688  0.3498 -0.3645
11657W        W25071   8.230   4.901   6.087 -0.0975 -0.0969  0.2029
11658W        W25072   4.355   1.098  14.472 -0.6911  0.0705 -0.1350
11659W        W25073   1.542   5.229  12.358 -0.0593  0.1433 -0.1055
11660W        W25074   8.511  14.089   1.155 -0.0441 -0.1881  0.1967
11661W        W25075   8.404   0.206   5.532  0.0127  0.1594 -0.0303
11662W        W25076  16.645   9.668   0.287 -0.1218 -0.1461  0.0317
11663W        W25077  11.309   3.982  15.286  0.0631  0.0327 -0.1617
11664W        W25078  18.096   8.692  14.039  0.2344 -0.0161  0.0067
11665W        W25079  16.562   8.016  10.475 -0.0423  0.2092  0.0130
11666W        W25080   2.021   6.689  13.469 -0.1037  0.1377  0.0309
11667W        W25081   2.384  15.722   1.522  0.1230 -0.3378  0.1785
11668W        W25082  16.314   9.267  15.765  0.0761 -0.1994  0.0793
11669W        W25083   1.695   6.471  14.193 -0.1245  0.0216 -0.0845
11670W        W25084  11.749   9.677   4.295  0.0075 -0.2853  0.0833
11671W        W25085   5.508   9.054  13.186  0.1469 -0.2055  0.1016
11672W        W25086   7.908   2.161  14.810 -0.2343  0.2481  0.0877
11673W        W25087   6.375   0.426   3.704 -0.0138  0.0248  0.1166
11674W        W25088  12.772   1.614  15.453 -0.2173  0.2874  0.0820
11675W        W25089  17.541   5.219   3.285  0.2617  0.3324 -0.3937
11676W        W25090   7.752   1.405  12.686  0.1499 -0.1362 -0.0014
11677W        W25091  17.580   2.863  14.327 -0.0226 -0.0355 -0.1474
11678W        W25092   4.706   7.115  13.422 -0.0748  0.1573  0.0544
11679W        W25093  11.330   2.591   1.847 -0.2114 -0.1040  0.0144
11680W        W25094   1.101  10.877  12.481 -0.3819 -0.0648 -0.1231
11681W        W25095  12.171   2.912  11.569 -0.0139 -0.0080  0.3831
11682W        W25096   0.252   0.515  16.203 -0.1252  0.0523  0.1409
11683W        W25097   2.550   8.813   5.741 -0.0697  0.5749  0.0128
11684W        W25098   2.724  12.771   6.135  0.0881 -0.0438  0.1395
11685W        W25099   9.632  14.551   0.575 -0.1397  0.1528 -0.0550
11686W        W25100   6.623   7.606  14.221 -0.0970 -0.0985  0.2381
11687W        W25101   8.595  13.852   4.902  0.2176  0.2748  0.0126
11688W        W25102   3.084   9.636   0.026 -0.0667  0.3866  0.0583
11689W        W25103   3.087   4.579  12.184  0.0327  0.1740 -0.1305
11690W        W25104   2.288  12.982  12.691 -0.2283  0.1766  0.1093
11691W        W25105   0.189   6.130   5.588  0.2346  0.0396 -0.1166
11692W        W25106  17.708   5.231  14.761 -0.0284 -0.1204  0.0944
11693W        W25107  16.083  13.126   4.958  0.1396  0.0754  0.2028
11694W        W25108   2.470  15.764  12.158  0.2004 -0.1707  0.0970
11695W        W25109  13.802  12.017  13.495 -0.0418  0.0466  0.0556
11696W        W25110   1.824   5.710  15.045  0.0384  0.0475 -0.2081
11697W        W25111   9.963   5.706  14.000 -0.2233 -0.1663 -0.0015
11698W        W25112   7.805  11.009  14.601  0.1906  0.1248 -0.1268
11699W        W25113   6.607   1.395  12.582  0.0613  0.0379  0.1757
11700W        W25114   7.436  13.862  13.351  0.0195 -0.1932  0.2082
11701W        W25115   8.278   9.078   3.819  0.0940  0.1254  0.0813
11702W        W25116  12.726   7.610  14.526  0.0057  0.0309 -0.0363
11703W        W25117   7.954  10.865  10.713  0.2177  0.1416 -0.0401
11704W        W25118   1.541  18.383  15.606  0.3897  0.0684 -0.1565
11705W        W25119  11.934   1.803  12.924 -0.1108  0.1986 -0.6184
11706W        W25120  17.765   2.806   3.187 -0.3312 -0.0261 -0.1833
11707W        W25121   2.533   1.166  15.651  0.1164  0.1326 -0.0822
11708W        W25122  16.676  10.074  11.607 -0.1347 -0.1262 -0.4476
11709W        W25123   7.682  15.818   4.351 -0.0430  0.1199 -0.0630
11710W        W25124  17.755  10.415   1.583 -0.2161 -0.0552  0.2397
11711W        W25125   7.561  12.790   3.486  0.0573 -0.2637 -0.1554
11712W        W25126  11.593   1.049  12.708 -0.0941 -0.1950 -0.2609
11713W        W25127   7.957   5.578   9.972 -0.1273  0.1176  0.0827
11714W        W25128  13.047   3.625   0.847  0.1303 -0.3195 -0.1917
11715W        W25129   3.792  12.263  14.870  0.0409  0.3369  0.1642
11716W        W25130   1.559  16.852   6.526 -0.2051 -0.0430  0.2801
11717W        W25131   6.621  17.318  14.408 -0.0422  0.1065  0.0875
11718W        W25132   7.116  13.593  13.702  0.1497 -0.4717 -0.0157
11719W        W25133  14.882   5.774   2.110 -0.0134  0.2685  0.0203
11720W        W25134   4.224  18.405   3.243 -0.2517 -0.1489 -0.1030
11721W        W25135  16.782  11.448  14.761  0.0702 -0.1864 -0.0596
11722W        W25136  18.083  13.643   1.502 -0.0807  0.3836 -0.0993
11723W        W25137   8.844   6.700   3.576 -0.1661  0.0379  0.2447
11724W        W25138   1.206   0.053   2.163  0.1511 -0.1132 -0.1491
11725W        W25139  10.229  16.623   0.706 -0.1275  0.1198  0.1126
11726W        W25140   3.916  10.790  12.493 -0.0932 -0.1060  0.2646
11727W        W25141   8.122  17.646   2.439 -0.2263 -0.1551  0.1068
11728W        W25142   9.651  15.043  11.357 -0.2101 -0.0722  0.1354
11729W        W25143   7.058  14.512   1.862 -0.1606  0.0005  0.0724
11730W        W25144  16.526   6.740  11.176  0.2667 -0.2049  0.1627
11731W        W25145   5.497   0.489  12.200  0.0463 -0.4046  0.0938
11732W        W25146  13.519   7.858   1.825  0.2084 -0.0384  0.0593
11733W        W25147  15.741  18.022  11.038  0.2455  0.1075 -0.1083
11734W        W25148  13.918   6.246  14.046 -0.0128 -0.1526  0.0073
11735W        W25149   9.151  10.328  13.360 -0.2379  0.1894 -0.1005
11736W        W25150  12.326  10.231  10.443  0.2647 -0.0423 -0.0418
11737W        W25151  17.944   4.254  13.802  0.0958 -0.2340 -0.0549
11738W        W25152   3.650   9.771   0.047 -0.0281  0.0980  0.0820
11739W        W25153  17.674   1.608  11.931 -0.0633  0.0574 -0.0287
11740W        W25154   9.384   7.427   2.555  0.2765  0.1102  0.1244
11741W        W25155  14.768  10.857  12.844 -0.0170  0.0184 -0.3282
11742W        W25156   4.501   8.637  12.714 -0.1048  0.2533  0.1502
11743W        W25157   9.776   0.790   9.368  0.1645  0.1009 -0.4696
11744W        W25158   6.352   5.261   4.742  0.0403  0.0635  0.1599
11745W        W25159  14.465  14.768   3.167 -0.0058  0.1109  0.0112
11746W        W25160   8.538   9.538   4.443  0.3745 -0.0638  0.1860
11747W        W25161   1.819   9.719  11.618  0.0939 -0.2146  0.1402
11748W        W25162   6.447  11.058   3.903  0.2630  0.0308  0.0314
11749W        W25163   8.132  18.008  13.859  0.0887  0.0967  0.0745
11750W        W25164  13.537   8.298  12.762  0.0725  0.0753 -0.1275
11751W        W25165  17.238   1.272  11.461 -0.0425 -0.0241 -0.1043
11752W        W25166  15.849   3.231   1.399 -0.0729 -0.0593  0.0776
11753W        W25167  17.203  11.727   0.210  0.0478  0.0331  0.2281
11754W        W25168   6.143   9.752   1.502  0.0460  0.1375 -0.1212
11755W        W25169   4.529  17.739   2.035 -0.3974  0.3883 -0.2100
11756W        W25170  13.232   0.646   1.241 -0.1569 -0.1535 -0.1302
11757W        W25171   7.177   2.084   2.220  0.2020 -0.0559  0.6887
11758W        W25172  15.032  10.645   3.684 -0.0288  0.0477 -0.3976
11759W        W25173   3.564   6.962   4.741  0.1620 -0.2876 -0.3550
11760W        W25174   7.121  11.323  10.823 -0.1676  0.0004  0.3166
11761W        W25175   2.164   8.476  11.243  0.0816  0.0167  0.1412
11762W        W25176  12.762   3.266  15.680 -0.2904 -0.1749  0.1239
11763W        W25177  15.231  17.972   4.271 -0.0121 -0.2725  0.0933
11764W        W25178  14.469   6.024   5.000  0.1861 -0.3920  0.3333
11765W        W25179   7.934  14.082  11.056 -0.0171  0.2841  0.3444
11766W        W25180   7.400  15.407  14.242 -0.0954  0.2889  0.0316
11767W        W25181   4.598   8.433   5.098 -0.3627 -0.0136  0.0070
11768W        W25182   1.220   9.879   2.245 -0.1445  0.0630  0.0515
11769W        W25183   4.018  17.190  15.721 -0.2789 -0.1774  0.1281
11770W        W25184   7.512   1.130   2.719 -0.2407 -0.1587  0.1664
11771W        W25185   2.484  14.765  14.306  0.0863 -0.2024  0.0678
11772W        W25186   6.726  16.984  13.590 -0.3415  0.0208 -0.4872
11773W        W25187  13.520  13.342   4.753 -0.0994  0.1626  0.3026
11774W        W25188   8.873   2.389  11.367  0.0708 -0.0594  0.0461
11775W        W25189   0.926   5.442   4.370  0.0085 -0.0690 -0.0679
11776W        W25190   2.511  14.184   4.837 -0.1464 -0.0421  0.2705
11777W        W25191   8.687  14.593   3.158  0.3755  0.0857 -0.0531
11778W        W25192   5.086   4.262   4.283  0.2726 -0.2330  0.0654
11779W        W25193   3.632   3.426   0.733 -0.1284  0.1464 -0.2861
11780W        W25194  17.800  13.957   4.470  0.2038 -0.2467  0.0320
11781W        W25195   5.986   3.953  16.069  0.1943 -0.1818  0.0073
11782W        W25196   4.551   5.260   1.633 -0.1327 -0.0171  0.1102
11783W        W25197   7.460  12.980  11.157  0.1781  0.0902 -0.1130
11784W        W25198   9.868  17.774   5.133  0.0337  0.0721 -0.0260
11785W        W25199   2.151  13.938   0.008  0.4501 -0.2060 -0.2822
11786W        W25200   3.683  18.372  11.576  0.0963 -0.0868 -0.0986
11787W        W25201  15.630   2.603   5.047 -0.0323 -0.0576 -0.0695
11788W        W25202   9.242   0.590  11.810  0.0221  0.1384 -0.1564
11789W        W25203   8.117   7.873   1.533  0.2337 -0.2307  0.0649
11790W        W25204  18.224  14.677  13.124  0.1272 -0.3871 -0.0196
11791W        W25205   4.647   5.942   3.254 -0.3614 -0.0572  0.1260
11792W        W25206  13.393   9.824   4.947 -0.0822 -0.0031  0.2628
11793W        W25207  16.501   0.843  12.284  0.1757  0.1513  0.1426
11794W        W25208   9.946   6.530   2.078  0.1292  0.0671  0.1450
11795W        W25209   3.921  16.141  14.890  0.2516  0.4237 -0.0121
11796W        W25210  15.440  10.448  15.169  0.1281 -0.2534  0.0991
11797W        W25211  17.389  13.724  11.153 -0.1712 -0.1119 -0.1655
11798W        W25212   1.104  15.113  12.492 -0.1784  0.0144 -0.1500
11799W        W25213   2.986  12.340  10.993  0.3382 -0.3943  0.1836
11800W        W25214  13.668  17.059  15.330  0.0946 -0.2145 -0.2346
11801W        W25215   6.805   5.433   2.895  0.0316 -0.0920  0.2060
11802W        W25216  14.292  11.124  12.923 -0.5441  0.2424 -0.3228
11803W        W25217   7.893  16.180  13.971 -0.0077  0.0631 -0.2292
11804W        W25218  10.014   4.508   0.111 -0.1881 -0.0161  0.0078
11805W        W25219   9.579   9.753   6.347 -0.0514 -0.1793 -0.1547
11806W        W25220   6.420   4.862   5.105 -0.0711 -0.0518 -0.2115
11807W        W25221  12.805   6.230  14.566 -0.1411 -0.2107 -0.1571
11808W        W25222  11.850   8.218  16.240  0.4340  0.2990  0.1049
11809W        W25223   3.238   8.269   0.877  0.2066 -0.0851  0.0670
11810W        W25224  14.379   9.944   3.743  0.1051  0.2398 -0.2551
11811W        W25225   4.925   3.068   1.042  0.2822 -0.2329 -0.0043
11812W        W25226  14.504  14.229  13.360  0.0655 -0.0256  0.1480
11813W        W25227   6.683  16.402   4.863  0.0670  0.0335 -0.0153
11814W        W25228   4.328   2.425   1.333  0.1755 -0.0503  0.1273
11815W        W25229   0.822  11.213  10.948 -0.0515 -0.1731  0.3421
11816W        W25230   9.144  11.146   4.876 -0.0466  0.1162  0.1264
11817W        W25231   7.911   2.345   0.946 -0.0119 -0.1387  0.0118
11818W        W25232  10.554  15.950   1.343  0.0042  0.0443 -0.4385
11819W        W25233  16.430  13.578   4.220  0.2344  0.0076 -0.0467
11820W        W25234  15.657   6.503   5.104 -0.1962 -0.1183  0.0864
11821W        W25235   7.107  17.606   1.512  0.1626 -0.2768  0.1619
11822W        W25236  12.407  13.862  12.596 -0.1760  0.2017 -0.0318
11823W        W25237   1.123  10.449  13.432 -0.2993 -0.1417  0.3625
11824W        W25238  12.280  16.244  11.514 -0.2143 -0.3899 -0.0288
11825W        W25239  10.293   8.158   5.140  0.1523 -0.0969  0.4940
11826W        W25240  11.624   6.797   5.472 -0.1275 -0.0665  0.2714
11827W        W25241  10.613  14.292  11.461 -0.2442 -0.1544  0.5200
11828W        W25242   2.312   2.907   0.363  0.0500 -0.1676 -0.1113
11829W        W25243   8.644  17.368   5.146  0.2050  0.0263 -0.0268
11830W        W25244   0.479  11.935  11.006  0.0333  0.0469  0.1638
11831W        W25245  15.935  16.080  15.075  0.0639  0.4123 -0.0107
11832W        W25246   3.772  17.739  13.904  0.0150 -0.0943 -0.3759
11833W        W25247  14.032   7.896   0.046  0.0847 -0.1226 -0.1385
11834W        W25248   9.944   1.450  11.819 -0.1144  0.0925 -0.3195
11835W        W25249  13.527  14.835  11.237 -0.0750  0.4197  0.2606
11836W        W25250  12.149  18.280  10.893 -0.0267  0.1104  0.1020
11837W        W25251   6.044  11.201   0.393  0.1946 -0.1972  0.3218
11838W        W25252   0.277  14.163  14.882  0.2718 -0.3432  0.1072
11839W        W25253  10.474  15.699   1.873  0.0242 -0.0346  0.1088
11840W        W25254   0.061   4.338   1.300  0.1259 -0.1815 -0.0642
11841W        W25255  14.707   0.288   3.749  0.0786  0.0192 -0.1522
11842W        W25256  12.685  13.850  14.395  0.0466  0.2890  0.1323
11843W        W25257   3.684   1.591  12.999  0.2861 -0.1428  0.2500
11844W        W25258  12.588  14.772   0.340 -0.3011 -0.1051  0.1066
11845W        W25259   3.442   1.893  11.152 -0.0045 -0.0337 -0.3201
11846W        W25260   9.052   8.874   0.098  0.2677 -0.0284 -0.0283
11847W        W25261   7.560   4.254  14.082 -0.2303 -0.1682 -0.0575
11848W        W25262   4.399   4.662  14.005 -0.3251  0.1474 -0.1045
11849W        W25263  12.584  11.732  13.049  0.2677 -0.1452  0.0211
11850W        W25264   9.531   9.737  11.500 -0.3385 -0.1646 -0.0085
11851W        W25265  11.073   5.043   1.944  0.0033  0.0179  0.0327
11852W        W25266  10.964   9.291  14.337 -0.1453  0.0779 -0.0567
11853W        W25267  12.709  14.447   1.769  0.1137  0.1226  0.0675
11854W        W25268  16.428   4.079   6.225  0.1845  0.0149  0.0776
11855W        W25269  14.011  13.663   1.439  0.0488 -0.1174  0.1141
11856W        W25270   4.483  17.641  13.156  0.3390 -0.0280  0.3189
11857W        W25271   2.585  11.512  10.103 -0.1599  0.2091  0.1562
11858W        W25272   1.229  12.316  14.673  0.0340  0.1482 -0.1663
11859W        W25273  16.981  12.514   3.135 -0.0195  0.0869  0.0093
11860W        W25274  15.923   9.173  12.341 -0.1967 -0.1400 -0.0436
11861W        W25275  16.783  17.411   4.370  0.0593 -0.0529  0.2214
11862W        W25276  11.110   2.210  14.974  0.2143  0.2260 -0.1471
11863W        W25277  16.093  15.949   2.313 -0.1664 -0.2666 -0.1441
11864W        W25278  13.477   3.897   0.814 -0.0202 -0.2118  0.2143
11865W        W25279  13.416  15.077  12.617 -0.0627 -0.0655 -0.0331
11866W        W25280  17.292  15.096   1.115  0.0466 -0.2132  0.0687
11867W        W25281  15.893  11.190  15.701  0.1981  0.0520 -0.0843
11868W        W25282  16.457   7.770  13.482  0.2495  0.1407 -0.0294
11869W        W25283  11.785  11.975  15.086 -0.0758 -0.1606 -0.2739
11870W        W25284  10.616   4.744  12.666 -0.0580 -0.2608  0.0652
11871W        W25285  16.689   5.705   2.657 -0.0380  0.0316 -0.3411
11872W        W25286   8.134  10.238  15.156  0.2037 -0.0951 -0.1390
11873W        W25287   2.564  16.572  11.821  0.0233 -0.1641  0.1105
11874W        W25288  13.549   7.447   4.827 -0.1667  0.2463  0.0832
11875W        W25289  16.519  18.308  15.920 -0.2659  0.0179 -0.1455
11876W        W25290   2.574   4.723   3.291 -0.2459 -0.2335 -0.1027
11877W        W25291  14.772   3.240  11.830 -0.2737 -0.0700 -0.3367
11878W        W25292   1.674   9.567  16.180 -0.1498 -0.3326 -0.0820
11879W        W25293   7.917   4.181  10.899  0.2901  0.0956  0.1212
11880W        W25294   5.170  10.335  11.091  0.1165  0.1306 -0.0793
11881W        W25295  12.922  16.298   1.924  0.1043  0.0659  0.2447
11882W        W25296  11.655  12.688   0.850 -0.0326 -0.1013 -0.0766
11883W        W25297   8.888   7.365   1.287 -0.0781  0.0275 -0.0330
11884W        W25298   3.206  11.666   4.197  0.2888 -0.3328  0.2417
11885W        W25299  17.395  15.341   1.595 -0.0843 -0.1724 -0.1290
11886W        W25300  17.351   6.921  13.588 -0.1612  0.1205  0.1801
11887W        W25301   3.730   4.297  12.265  0.0775  0.3577 -0.0555
11888W        W25302   2.868   5.461   4.566 -0.1353  0.2869  0.3356
11889W        W25303  18.170   8.556   1.016 -0.2091 -0.3012  0.0292
11890W        W25304   6.433   5.614  14.274 -0.1680  0.2802  0.0801
11891W        W25305   3.087   9.889   6.679  0.0153  0.1989  0.2737
11892W        W25306   8.457   2.152  14.887  0.1043  0.0262  0.0416
11893W        W25307  14.656   9.568  15.037 -0.0035  0.2279 -0.0415
11894W        W25308  10.803   7.733   5.971  0.1902  0.2784 -0.1263
11895W        W25309   1.321   6.652   4.901 -0.3226 -0.0546  0.0443
11896W        W25310   6.541  17.272  10.593  0.1896  0.0429  0.0525
11897W        W25311  12.921   7.350   2.882 -0.2456 -0.4537 -0.0706
11898W        W25312  10.616  12.571   6.220 -0.1236  0.0397  0.2128
11899W        W25313   0.293   8.133   4.329  0.3564  0.1022 -0.1138
11900W        W25314  11.264  14.257  15.846 -0.0925  0.2332  0.0829
11901W        W25315   0.819  11.894   3.414 -0.0149 -0.2484  0.3201
11902W        W25316   4.238  10.429   5.307 -0.2502 -0.1087  0.1783
11903W        W25317   1.572   1.324  10.076 -0.2226  0.3721  0.1384
11904W        W25318   2.030   3.466   3.487  0.2681  0.0711  0.1530
11905W        W25319   9.425  11.078   2.316  0.2695 -0.2840 -0.3634
11906W        W25320   3.645  12.991   4.484 -0.1772 -0.2534 -0.0976
11907W        W25321   3.047  14.793  15.329 -0.0431  0.1295  0.1716
11908W        W25322   1.617  16.793   1.404 -0.1475  0.1219  0.1580
11909W        W25323  18.288   4.344   1.735  0.0159  0.0405 -0.2129
11910W        W25324  17.650  10.821  12.427  0.3794  0.1247  0.1447
11911W        W25325  13.679   7.586  16.103  0.0915  0.2708 -0.0375
11912W        W25326  11.907   3.156   9.748 -0.0413 -0.1336  0.3621
11913W        W25327  10.516   4.703   0.998 -0.0731 -0.3331  0.0048
11914W        W25328   4.051  17.570  16.085  0.1516  0.2386  0.1224
11915W        W25329   1.892   7.501  13.851  0.0442 -0.1360  0.1838
11916W        W25330  17.471   8.284  15.575 -0.1776  0.2761  0.2701
11917W        W25331   2.351   8.923   1.645  0.0779 -0.0165  0.1985
11918W        W25332   5.045  17.817   0.918  0.1643 -0.4178 -0.4701
11919W        W25333  16.787   5.703   2.065  0.1285 -0.4000  0.1229
11920W        W25334  10.170   6.156  13.802  0.1114 -0.2104  0.2501
11921W        W25335   8.843   3.308   1.732  0.0661  0.0152 -0.0552
11922W        W25336   3.172  11.013  13.601  0.1857  0.0849 -0.1006
11923W        W25337  16.407   2.932   0.739  0.0765 -0.2113 -0.2761
11924W        W25338  13.363  16.923   5.281  0.0258  0.1620 -0.1156
11925W        W25339  15.263   1.688   2.289 -0.0773  0.0842 -0.0158
11926W        W25340   0.266   3.354  16.052 -0.0515  0.4480  0.2583
11927W        W25341   7.233  17.515   3.917  0.1441 -0.0484  0.3769
11928W        W25342   5.933  16.341  13.853  0.0606  0.0439 -0.1608
11929W        W25343   7.407  16.062   2.440 -0.2303  0.3041 -0.0089
11930W        W25344   4.774   1.171   5.983  0.1097 -0.3162 -0.1199
11931W        W25345   8.878  17.101   2.060 -0.2529 -0.1421  0.1564
11932W        W25346   4.730  10.121   2.020 -0.0738 -0.1700 -0.1804
11933W        W25347   5.723   1.820   5.483 -0.4124  0.1264  0.1462
11934W        W25348   2.964  14.061   0.211  0.1299 -0.2402  0.1304
11935W        W25349   7.695   7.274  11.619 -0.1889 -0.1311  0.3291
11936W        W25350   6.609   0.138  12.732  0.1934  0.0759 -0.1789
11937W        W25351   2.160  14.011   3.158  0.1457 -0.2543 -0.1045
11938W        W25352   4.275   1.938  13.332  0.1406 -0.3357 -0.0092
11939W        W25353   2.969  17.275   0.602  0.2078  0.1483 -0.1706
11940W        W25354  12.313  15.728   3.467  0.2902  0.0196 -0.1612
11941W        W25355  12.172   3.387  13.578  0.0811  0.1687  0.0608
11942W        W25356   8.734   0.255  11.864 -0.2132 -0.0898 -0.1702
11943W        W25357   1.808  17.368   2.369 -0.3605  0.1048 -0.1795
11944W        W25358   7.496   5.627  13.530  0.0768  0.1465  0.0200
11945W        W25359   3.386   9.374  14.077  0.1448 -0.1470 -0.0035
11946W        W25360   2.852   4.993  12.144 -0.3259 -0.2012  0.0698
11947W        W25361  18.444  11.557  10.825 -0.2347 -0.1060 -0.4645
11948W        W25362   3.384  12.050   0.701 -0.1220 -0.0085 -0.0745
11949W        W25363  11.494   2.794  14.381 -0.0289  0.1933  0.2919
11950W        W25364  11.436  16.800   0.961  0.0362  0.1940 -0.0986
11951W        W25365   2.213  11.981  11.548  0.0756 -0.2273  0.0945
11952W        W25366   0.301   7.384  14.953  0.2187 -0.0111  0.1187
11953W        W25367  17.434  10.579   3.200  0.0826  0.0747 -0.0389
11954W        W25368   5.692  12.874   0.961  0.1732  0.0053 -0.2547
11955W        W25369  14.918   8.304  12.813  0.0775 -0.1518 -0.2196
11956W        W25370  10.849   5.697   5.297  0.0147  0.2495  0.0296
11957W        W25371  16.274  15.454   0.120  0.2116 -0.0695  0.0733
11958W        W25372   2.288   4.220   4.247  0.1297  0.1115 -0.1629
11959W        W25373   6.564   5.227   3.257  0.0762 -0.0849 -0.0440
11960W        W25374   0.248   7.176   6.095 -0.1242 -0.0840  0.0457
11961W        W25375  15.142  10.225   0.751  0.1119 -0.0643 -0.1604
11962W        W25376   6.099  13.755   4.224  0.1282  0.1480  0.4890
11963W        W25377   1.412  12.009  15.493  0.2069 -0.1682 -0.2790
11964W        W25378   7.085  14.195  15.230 -0.1073  0.0653 -0.1125
11965W        W25379   8.138   6.469   3.114  0.0792 -0.1167 -0.1647
11966W        W25380  15.157  16.170  10.986 -0.5315 -0.2785 -0.0469
11967W        W25381   1.850   7.679   5.343  0.1208 -0.4092  0.1579
11968W        W25382  15.514   4.538   1.748 -0.3613 -0.2560 -0.0972
11969W        W25383   2.696   0.059   0.678  0.0722  0.1415  0.2025
11970W        W25384  14.391   3.633   4.130  0.1279 -0.2708 -0.1017
11971W        W25385  14.923   9.712  12.514 -0.1544  0.0034  0.0519
11972W        W25386   8.305  16.397  13.031 -0.2178 -0.1120 -0.1732
11973W        W25387  10.696   3.715   6.153  0.1294  0.1937  0.0133
11974W        W25388   1.203  17.509   5.193  0.3180  0.0727  0.1113
11975W        W25389   3.292   8.491  11.635 -0.0975  0.1990  0.3226
11976W        W25390  11.855   8.539   5.501 -0.1532 -0.1044 -0.1488
11977W        W25391   4.056  11.127   1.566  0.4352 -0.0507  0.2766
11978W        W25392   1.361   7.021  14.714 -0.1224  0.2798 -0.5655
11979W        W25393  13.976  14.925   3.036  0.0079 -0.1059 -0.1011
11980W        W25394   9.487   2.493   0.219 -0.2229  0.1437 -0.2799
11981W        W25395  10.230   5.550  12.190  0.3540  0.1569 -0.7434
11982W        W25396  11.648   6.093   1.104 -0.1914 -0.0872  0.2303
11983W        W25397   1.874  14.485   2.969  0.1063 -0.1846 -0.0411
11984W        W25398   2.353  11.087   2.030 -0.0502 -0.0679 -0.2035
11985W        W25399  10.545   4.903   4.648 -0.0438  0.0757 -0.1669
11986W        W25400   0.879   6.029   2.650 -0.1897  0.4699 -0.1109
11987W        W25401   7.008  12.352   1.873 -0.1169  0.1184 -0.0598
11988W        W25402   2.769  12.020   5.558 -0.2141 -0.0583  0.0904
11989W        W25403   5.687   6.633   2.546  0.2053  0.1587  0.0351
11990W        W25404  15.018  14.102   1.667 -0.2476  0.0234  0.2486
11991W        W25405  13.393   0.422  10.413 -0.0631  0.1507 -0.0155
11992W        W25406  17.372  10.448  13.639 -0.0700  0.2030 -0.3196
11993W        W25407  15.585   8.216   0.539 -0.2152  0.2574 -0.0808
11994W        W25408   2.915  10.288   3.559 -0.2271 -0.2372 -0.1712
11995W        W25409  14.259  13.294  15.574 -0.1845 -0.0177  0.2633
11996W        W25410   6.654  14.547  12.383  0.0205 -0.2394 -0.0661
11997W        W25411   5.889  13.876  12.316  0.1780  0.2137 -0.0430
11998W        W25412   9.478  15.514  12.572  0.1873  0.0602  0.2183
11999W        W25413   2.584   5.503  14.873  0.1890  0.0343  0.0745
12000W        W25414   9.450   9.139  13.478 -0.1646  0.1208 -0.0729
12001W        W25415  15.506   3.543   3.959 -0.0019  0.3483  0.1399
12002W        W25416   8.578   9.382  11.546  0.0727 -0.1308 -0.0279
12003W        W25417  10.292  14.323   3.888 -0.0665  0.0341  0.1036
12004W        W25418   2.237   5.790   2.646  0.0823  0.0589 -0.1177
12005W        W25419   0.621   8.225  10.845  0.0036 -0.1147 -0.0590
12006W        W25420  12.570   1.040  10.690  0.3221  0.1255 -0.3257
12007W        W25421  11.941   5.589   0.431  0.2125 -0.3051  0.0922
12008W        W25422  15.445   1.803  14.056 -0.1403  0.0160 -0.1091
12009W        W25423   0.940  15.150   4.289 -0.0739 -0.2748 -0.0744
12010W        W25424  17.733  17.263   5.807  0.0398 -0.2154  0.3281
12011W        W25425  13.276  14.612   2.446 -0.0529 -0.2439  0.1176
12012W        W25426   9.684  15.624   2.581  0.0393 -0.0906 -0.1043
12013W        W25427   1.849   4.358  13.079 -0.0098 -0.2501 -0.2422
12014W        W25428   4.027  15.330  13.917 -0.0764  0.2233  0.2817
12015W        W25429  15.123   3.198   0.538 -0.2279  0.1337  0.1719
12016W        W25430  12.655  15.432   0.829 -0.1876 -0.3240 -0.1978
12017W        W25431   2.427   1.882   0.424  0.2746  0.0832  0.1883
12018W        W25432  12.315  10.401  12.190  0.1152  0.2620  0.1388
12019W        W25433  18.401  11.720   3.897 -0.0099 -0.0894 -0.1899
12020W        W25434   7.282   9.327   2.462  0.1216  0.3151 -0.1855
12021W        W25435   4.306   4.994   2.589 -0.1827 -0.0787 -0.1834
12022W        W25436  16.385   2.175  14.866 -0.0606 -0.0590 -0.0549
12023W        W25437   4.286   2.085  11.326 -0.0504  0.1375 -0.2705
12024W        W25438  16.057  15.411   0.686 -0.2792  0.3012  0.1554
12025W        W25439  15.026  11.639   4.295 -0.1188 -0.0225  0.0318
12026W        W25440   9.998  14.082  12.042 -0.0677 -0.0946 -0.2819
12027W        W25441   9.540   6.333   3.816  0.1152 -0.0762 -0.2729
12028W        W25442   2.628  11.523   1.015 -0.1897 -0.1004  0.1202
12029W        W25443   0.994  17.265  10.144  0.0143  0.0842 -0.0095
12030W        W25444  15.543   6.161  13.318  0.0420  0.2498  0.1134
12031W        W25445  13.928   8.872   0.319 -0.0453  0.1847 -0.0817
12032W        W25446  15.683   9.414  13.087 -0.0074 -0.0908 -0.2976
12033W        W25447   5.773   3.729   0.333  0.0039 -0.3365 -0.2162
12034W        W25448  10.345   2.863  14.503  0.1327  0.1321  0.0882
12035W        W25449   3.348  18.411   0.653  0.0714  0.0430 -0.2320
12036W        W25450   2.368  18.423  16.131  0.0387 -0.0527  0.3518
12037W        W25451   1.569  14.185   5.331 -0.0657  0.2277 -0.1908
12038W        W25452   5.623   9.003   5.830 -0.0511 -0.0823 -0.2657
12039W        W25453   8.578   8.712   3.626 -0.4018 -0.0774 -0.3182
12040W        W25454   0.254   1.132   3.094  0.2197  0.1222  0.2893
12041W        W25455  12.292   4.745  14.759 -0.1400  0.1531 -0.0594
12042W        W25456   9.113  16.869  12.907 -0.3827 -0.2593  0.0342
12043W        W25457  16.409   4.147   5.710 -0.0797 -0.1494  0.0288
12044W        W25458   1.637   3.312  11.010  0.0303  0.1271  0.2219
12045W        W25459  16.184  13.328  12.312  0.0469 -0.0338 -0.1051
12046W        W25460   2.018  12.244   2.444  0.1336  0.0110  0.0087
12047W        W25461  16.051   7.925   4.687  0.0377  0.0612  0.3402
12048W        W25462  10.141   1.643   3.582 -0.2107  0.2212  0.0049
12049W        W25463   1.786  12.997   1.121 -0.1655 -0.0246 -0.0616
12050W        W25464  15.199   0.520   0.101 -0.1066 -0.2215  0.1516
12051W        W25465   5.789  15.994  15.070  0.0564 -0.0805  0.1156
12052W        W25466  16.844  12.425   5.277  0.1068 -0.1161 -0.0660
12053W        W25467  12.136   6.149   1.071  0.0209 -0.0248  0.0285
12054W        W25468   0.142   8.908  12.386 -0.2439  0.4054  0.1468
12055W        W25469  16.400   2.572  12.001  0.0906 -0.0569 -0.1291
12056W        W25470  16.224   5.716  15.298 -0.0441 -0.1228 -0.0759
12057W        W25471  10.320  15.451   6.333  0.0820  0.3041 -0.0083
12058W        W25472   8.815  11.656   9.961  0.0211  0.0467 -0.0559
12059W        W25473   3.633  14.418   4.560  0.0708 -0.0537 -0.0776
12060W        W25474   4.779   2.567   5.427 -0.1782  0.4659  0.1037
12061W        W25475  18.336  10.987  13.173 -0.0323  0.2266  0.0821
12062W        W25476   9.767  12.144   5.538 -0.1395 -0.1151 -0.1011
12063W        W25477  12.881  16.535  15.606 -0.2827 -0.2294 -0.1971
12064W        W25478   2.618  11.358   3.455  0.0513 -0.2316 -0.1141
12065W        W25479  10.183   7.693  14.098  0.1262  0.0133 -0.2256
12066W        W25480  12.869  14.354  13.702  0.2649  0.3404  0.1947
12067W        W25481  17.572  17.490  11.244  0.1175 -0.0067  0.3440
12068W        W25482  13.305   8.373   4.095 -0.2365  0.2725 -0.0475
12069W        W25483  11.538   8.773  13.580 -0.1651 -0.3761 -0.0750
12070W        W25484   3.266   9.601   4.019 -0.0988  0.1852 -0.2237
12071W        W25485   7.014   1.390  13.309  0.1024 -0.0403 -0.1843
12072W        W25486  15.076  17.409   2.919  0.0086  0.1983  0.0681
12073W        W25487  15.142   9.213   3.297 -0.1931 -0.0333 -0.1178
12074W        W25488  16.630  14.089  14.101 -0.1549  0.0252 -0.3176
12075W        W25489  16.739   3.489  13.932 -0.2229  0.0811  0.0669
12076W        W25490   5.818   8.331   3.095 -0.2756  0.1078 -0.0092
12077W        W25491   2.254  12.789   4.232  0.0588 -0.0282 -0.0429
12078W        W25492   4.771   2.186   4.051 -0.1449 -0.2193 -0.0601
12079W        W25493   8.422   3.632   1.740 -0.0980  0.0703 -0.0306
12080W        W25494  17.847   5.401   5.181  0.0366 -0.2776 -0.0657
12081W        W25495  11.966   5.792  15.678 -0.0618  0.3492  0.0691
12082W        W25496  16.077  11.427   1.532 -0.1904 -0.2243 -0.4403
12083W        W25497  15.993   2.656  12.681  0.1421 -0.0388  0.0915
12084W        W25498  10.385   1.734   4.615  0.0507 -0.0062  0.1274
12085W        W25499  10.489  10.281  15.375  0.1132  0.1816  0.3245
12086W        W25500   9.768  14.200   5.436  0.2584 -0.0464  0.2530
12087W        W25501  15.725  18.323  15.916 -0.0771  0.0684 -0.0202
12088W        W25502   7.632  17.577  15.698  0.0876  0.3820 -0.1944
12089W        W25503   1.001   6.403   4.359 -0.0993  0.0612  0.0833
12090W        W25504   5.921   8.748   1.695  0.1982  0.1144 -0.0146
12091W        W25505   2.539  13.257   3.508 -0.2420  0.0774 -0.1378
12092W        W25506   4.549   7.885   5.636  0.0608  0.1749 -0.3230
12093W        W25507  10.859   3.444  12.503 -0.1047 -0.0660  0.1138
12094W        W25508   0.891  12.758  13.144  0.0188  0.0941  0.5571
12095W        W25509   9.258   7.447  10.732  0.0030 -0.0892 -0.0999
12096W        W25510  17.958   4.670   5.332 -0.2298 -0.1171  0.1921
12097W        W25511  10.334   6.080  12.421 -0.1425 -0.0534  0.0474
12098W        W25512   9.697   3.450   0.218 -0.2535 -0.3598 -0.0216
12099W        W25513   3.609   8.726  10.536  0.1105 -0.0794 -0.1274
12100W        W25514  14.615  16.182  12.226  0.3011  0.2941 -0.0891
12101W        W25515  12.613   7.919   4.973  0.1438  0.3588 -0.1937
12102W        W25516  12.932   8.805   6.372  0.2766 -0.0900  0.2454
12103W        W25517  18.085  11.295   3.807 -0.2420 -0.1139 -0.1596
12104W        W25518   0.321  15.367   6.097 -0.4190  0.0135 -0.0437
12105W        W25519  12.554   3.075   5.113 -0.2914 -0.1256  0.1483
12106W        W25520   1.636  10.387   5.902  0.2798  0.1166 -0.0697
12107W        W25521  11.694   2.181  10.625  0.0492 -0.0360 -0.0060
12108W        W25522  11.877  17.953  13.347 -0.2186  0.4803 -0.2837
12109W        W25523   8.452  13.204  14.716  0.0541 -0.0943  0.0276
12110W        W25524   4.842   6.054  14.415  0.1113  0.1812  0.0972
12111W        W25525   5.822   6.543  12.876 -0.3140  0.1617 -0.1106
12112W        W25526  12.421   9.545   1.051  0.0556  0.1397 -0.0965
12113W        W25527   8.797  17.977  10.887 -0.2646 -0.0458 -0.0636
12114W        W25528  16.348  16.920  14.872  0.2374  0.0285  0.1360
12115W        W25529  13.724   2.167  11.960 -0.0735 -0.1997 -0.1554
12116W        W25530   3.126   3.037   2.211 -0.1058 -0.2957 -0.3822
12117W        W25531  14.400  13.623   5.675 -0.0198  0.0508  0.0055
12118W        W25532   0.216  11.153  15.882 -0.1663 -0.0436 -0.0744
12119W        W25533  12.402   6.080  15.865 -0.0570  0.0429 -0.1339
12120W        W25534   1.141  14.667   2.500  0.1495 -0.2245  0.0690
12121W        W25535   1.998   8.078  10.605  0.2674  0.3068 -0.0028
12122W        W25536  12.806  15.958  12.698 -0.3406 -0.1723  0.1359
12123W        W25537   0.141  14.453  11.843 -0.0094  0.2626  0.1149
12124W        W25538   7.035  11.770   4.554 -0.2136 -0.3197  0.1392
12125W        W25539   6.036  10.254  13.691  0.2576  0.4287 -0.1337
12126W        W25540  17.093  12.335   1.979  0.0121  0.0231  0.0839
12127W        W25541  15.757  12.039  13.734  0.0375  0.0124 -0.1847
12128W        W25542  11.497  18.297  14.189 -0.0381 -0.3028 -0.1592
12129W        W25543   0.617   7.984   2.879  0.1575  0.2199 -0.3536
12130W        W25544   2.671   3.784  11.568  0.1400  0.1843  0.1470
12131W        W25545   4.467   8.377   1.339  0.0699 -0.2823  0.0591
12132W        W25546  17.592  10.797  14.957  0.0961 -0.2068 -0.1142
12133W        W25547   4.420  11.971  13.370  0.4767 -0.0209 -0.2829
12134W        W25548   2.028   9.558   3.258 -0.0421  0.2211 -0.1943
12135W        W25549   9.556  17.943  15.159 -0.0111  0.0593  0.0947
12136W        W25550  11.017   6.287   2.816 -0.1741  0.1520  0.0171
12137W        W25551   9.029   8.868   3.416 -0.0134  0.1645  0.0973
12138W        W25552   8.160  12.039  13.701  0.1335 -0.1036  0.0384
12139W        W25553   1.260   9.441   5.566 -0.0067  0.2630  0.1263
12140W        W25554   9.237   3.150  13.697 -0.0455  0.0127  0.0635
12141W        W25555  13.811  12.179   1.090 -0.1402 -0.1559  0.0991
12142W        W25556  10.488   8.606   2.586  0.0640 -0.0493  0.5248
12143W        W25557  14.131   0.144  12.061 -0.3026 -0.0399  0.1870
12144W        W25558   2.507   8.276  15.569 -0.2614  0.3304 -0.0179
12145W        W25559   4.743  18.041   4.239  0.1189 -0.0383  0.0994
12146W        W25560  14.890  13.180   3.617  0.1630 -0.3222  0.0300
12147W        W25561  12.160  16.028   3.824  0.4354 -0.0008  0.1562
12148W        W25562  16.285  16.102   0.838  0.1098 -0.1533  0.1605
12149W        W25563  12.500   2.435  13.064  0.1987  0.1087  0.1193
12150W        W25564   1.700  16.543   5.585 -0.3605  0.1402  0.1614
12151W        W25565  15.992  16.506   5.535 -0.3325  0.1403 -0.1581
12152W        W25566  10.253  11.154   2.274  0.0285 -0.1071 -0.0665
12153W        W25567  14.469  16.938   2.124 -0.0904  0.1848 -0.2993
12154W        W25568   0.176   2.287  16.142  0.0244  0.1334 -0.0652
12155W        W25569   4.702  16.150  13.008 -0.0908  0.1274 -0.4956
12156W        W25570  11.309  18.180  12.028  0.0361 -0.1496 -0.0376
12157W        W25571   5.343   3.218  10.842 -0.1536  0.1241 -0.4130
12158W        W25572   2.811  16.946   5.524  0.1087  0.1134  0.0923
12159W        W25573   0.446  16.314  11.364  0.1117 -0.1062 -0.1544
12160W        W25574   1.778  17.442  16.121 -0.0293 -0.1604 -0.3214
12161W        W25575  14.244  10.546  13.640 -0.4016  0.0415  0.0237
12162W        W25576   8.210   0.289   0.578 -0.0267  0.0812  0.1378
12163W        W25577   5.511  11.854   4.480 -0.0477  0.1339  0.0337
12164W        W25578  18.038  16.039   1.977 -0.0183  0.2355  0.0495
12165W        W25579   0.103  13.234   3.766  0.2354  0.0111  0.0127
12166W        W25580  13.478   6.781   3.218 -0.1959 -0.0788  0.0444
12167W        W25581   0.616  10.620   0.673 -0.0017  0.3732 -0.1166
12168W        W25582   3.994   9.543   1.173  0.1204  0.0753  0.1753
12169W        W25583   6.735  13.188  11.833  0.0627 -0.1655 -0.2535
12170W        W25584  13.329   9.893   3.242  0.1234 -0.0161  0.1388
12171W        W25585  10.315   3.597   3.845 -0.2355  0.2620  0.1006
12172W        W25586  12.399   4.065  13.075 -0.3885  0.0784 -0.1676
12173W        W25587   5.073  18.302  12.986 -0.0143  0.1636  0.4118
12174W        W25588   0.976  12.223   4.907 -0.1757  0.1602  0.3404
12175W        W25589  15.602  14.815  15.407 -0.2832 -0.1410 -0.0122
12176W        W25590  14.963   8.029  15.642 -0.0966 -0.3248  0.2744
12177W        W25591   1.748   7.568   0.726 -0.1594 -0.3005  0.2464
12178W        W25592   5.616   9.865  12.333 -0.4018 -0.0224  0.0856
12179W        W25593   1.360   8.614  13.956  0.1980  0.0000  0.0263
12180W        W25594  13.619   1.239   2.570  0.3592 -0.0717 -0.1331
12181W        W25595   6.283   0.009   2.284 -0.0156 -0.5047 -0.3258
12182W        W25596   3.681   1.947   1.967 -0.0248 -0.1216 -0.1906
12183W        W25597  11.112  14.809   3.665 -0.1412  0.0761  0.0665
12184W        W25598   2.961  15.584   4.018 -0.0823  0.2941  0.0658
12185W        W25599  17.133   3.322  12.724 -0.3051 -0.1236  0.2217
12186W        W25600  15.447  13.734   4.535  0.0710  0.0755 -0.0695
12187W        W25601   7.133  16.305   2.778  0.4719 -0.1485  0.0295
12188W        W25602  10.709   1.710  11.581  0.0221  0.0465 -0.0497
12189W        W25603   1.054   2.709   0.232  0.2690 -0.0076 -0.4287
12190W        W25604  18.312   4.262  15.486  0.0088 -0.0306 -0.2144
12191W        W25605   6.413   5.235  12.812  0.2539 -0.3334  0.0801
12192W        W25606  12.023   4.765   2.688 -0.1296  0.0660 -0.0212
12193W        W25607  16.058  10.547  11.910  0.0635  0.0520  0.2107
12194W        W25608   4.520  14.148  11.839  0.1453 -0.1394 -0.1810
12195W        W25609  17.834  12.923   4.819 -0.1490  0.3634  0.0625
12196W        W25610  11.386   9.109   4.884  0.1112  0.0056 -0.0584
12197W        W25611  18.406   8.322  11.702 -0.3645 -0.0670 -0.1576
12198W        W25612  13.235   0.637  13.347 -0.0730 -0.0450  0.3579
12199W        W25613   6.409  16.300  10.770 -0.0822 -0.0529 -0.1335
12200W        W25614   4.994  13.141  15.352  0.0531 -0.2686  0.0237
12201W        W25615  14.727  13.257   1.733 -0.1646 -0.1754 -0.2611
12202W        W25616  10.083  16.340   3.617 -0.0548 -0.2217 -0.0115
12203W        W25617   6.407  13.297  13.986 -0.1807 -0.1740  0.1826
12204W        W25618   9.014  15.771  14.527  0.1184  0.0133  0.0436
12205W        W25619  16.442   1.266   6.033 -0.2767 -0.0995 -0.0769
12206W        W25620  17.593   6.539  14.972 -0.3175  0.0602 -0.2064
12207W        W25621   7.538  12.835   2.945  0.0537 -0.3101 -0.1274
12208W        W25622   4.948   6.111   1.845 -0.2291  0.0361 -0.0374
12209W        W25623  10.778   5.829   4.416 -0.1484  0.0207  0.2127
12210W        W25624   6.411  17.885   5.409 -0.3618  0.0960 -0.2697
12211W        W25625   3.684  16.441   3.223 -0.3978 -0.1017 -0.5944
12212W        W25626   8.485   6.519   1.349  0.2617  0.0025  0.1858
12213W        W25627  17.303  16.722  13.411  0.2512  0.0154 -0.0433
12214W        W25628   4.022  15.518  10.322 -0.2312  0.0190  0.0999
12215W        W25629   2.160   5.118   4.714 -0.2093 -0.1215  0.0684
12216W        W25630   9.869   5.265   3.272  0.1279  0.2942 -0.0969
12217W        W25631  14.856  14.951   4.006 -0.1976  0.0381  0.0921
12218W        W25632  15.933  16.480  12.391  0.1847 -0.0404 -0.1618
12219W        W25633  15.405  17.294  11.241  0.2130  0.3016 -0.0462
12220W        W25634   8.493  14.260  16.093 -0.1446  0.0781 -0.3379
12221W        W25635   4.247   7.976   2.470 -0.1076 -0.0755 -0.1543
12222W        W25636   4.392   1.602  11.945  0.1731  0.0060 -0.1236
12223W        W25637   1.476   1.882   6.265 -0.2194  0.3839  0.3784
12224W        W25638   7.312   1.634   2.046 -0.1522 -0.4380  0.0750
12225W        W25639  13.220   5.873  16.046 -0.0169  0.1031  0.1533
12226W        W25640   0.565   0.336  13.762  0.0055  0.0232 -0.1020
12227W        W25641  12.055  12.638  14.065 -0.2107 -0.3153 -0.1416
12228W        W25642   2.629   0.207   4.359  0.0432 -0.1793  0.0055
12229W        W25643  17.431   6.648   5.128  0.2102  0.0629 -0.2134
12230W        W25644  17.992  13.645  15.057  0.4642 -0.0375  0.1117
12231W        W25645   3.587  18.121   1.451 -0.1515 -0.2731  0.1106
12232W        W25646   6.777   7.018   0.321  0.1327 -0.0308 -0.2409
12233W        W25647   0.065  13.622   5.605 -0.3188  0.2637 -0.0295
12234W        W25648   0.632  15.036   2.148  0.3181  0.0003 -0.0694
12235W        W25649  17.071   2.738   4.339 -0.3139 -0.3431  0.2048
12236W        W25650  13.963   7.104  14.565  0.0077 -0.2104  0.0584
12237W        W25651  11.895   3.545  14.007 -0.1738  0.2799 -0.1848
12238W        W25652   1.278  10.553  15.234  0.1149 -0.2552 -0.1936
12239W        W25653   1.607   4.105  13.444  0.0187  0.1012 -0.1881
12240W        W25654   5.109   6.269   4.600 -0.2245  0.1452 -0.1268
12241W        W25655   7.630  11.612  16.052 -0.1418  0.4478  0.0810
12242W        W25656   5.287   5.609  13.254  0.2235  0.0011  0.2440
12243W        W25657  16.347  18.446  14.422  0.3281 -0.0045 -0.1142
12244W        W25658  16.717  11.337   4.409 -0.0563 -0.1349  0.1456
12245W        W25659  18.150   6.791   5.824 -0.3978  0.1658 -0.3552
12246W        W25660  18.296   3.848   6.108 -0.0981 -0.2326 -0.0455
12247W        W25661   5.077   3.203  11.238  0.0048 -0.1182  0.0002
12248W        W25662   6.269   9.185  11.876 -0.1056  0.3964 -0.1702
12249W        W25663  17.661  16.577   2.645  0.3782  0.1467  0.0256
12250W        W25664   4.197  16.466   0.646 -0.1606 -0.1151  0.0118
12251W        W25665   4.034   5.576   4.634  0.1981  0.0610 -0.0271
12252W        W25666  16.722   7.327   5.554 -0.0573  0.0674 -0.0461
12253W        W25667   9.902   3.479   0.813  0.2845  0.3228 -0.0294
12254W        W25668  17.391   3.517  13.849 -0.0516 -0.2708 -0.0719
12255W        W25669   7.722   5.130   0.646 -0.1810  0.0984 -0.2455
12256W        W25670   9.801   5.401   1.543  0.0124 -0.0256  0.0669
12257W        W25671  17.446   6.962  15.259  0.1265 -0.0873  0.0101
12258W        W25672  17.814  18.424  11.505 -0.1124  0.0479 -0.0003
12259W        W25673   7.296  13.831  14.109  0.2050  0.0274  0.0441
12260W        W25674  12.482   4.881   3.938 -0.0030 -0.1859  0.1385
12261W        W25675  17.816   2.536  12.544  0.0663 -0.0561 -0.0330
12262W        W25676   9.201   1.571  14.157 -0.2392 -0.3545 -0.1798
12263W        W25677  14.440   8.396  12.534 -0.1552 -0.0711  0.0465
12264W        W25678   3.900  14.686   2.724  0.0593 -0.0980 -0.2437
12265W        W25679   5.926   8.936   3.977  0.2662  0.1027  0.0191
12266W        W25680   6.286   7.988  14.350  0.0713  0.0521  0.1683
12267W        W25681  17.129  17.847  15.778 -0.1123  0.0028 -0.0482
12268W        W25682   2.190  15.714  15.566  0.1889  0.1909  0.2738
12269W        W25683  17.815   1.879  11.211  0.0617 -0.3322  0.0050
12270W        W25684   6.497  17.657  11.940 -0.0421 -0.2141 -0.2215
12271W        W25685   6.752   6.836   2.704  0.0567  0.1066  0.0434
12272W        W25686  10.114   0.074   3.799 -0.0743  0.0053 -0.0654
12273W        W25687   7.512  13.317  13.445 -0.3122 -0.1431 -0.1750
12274W        W25688   3.189  12.994  15.688 -0.2384 -0.0839  0.0095
12275W        W25689  12.125  14.659  15.784  0.1247  0.0042 -0.1133
12276W        W25690   2.745   2.276   0.600 -0.1543 -0.1417  0.0375
12277W        W25691  12.702   4.467  15.894 -0.0445 -0.2199 -0.0268
12278W        W25692   9.148   3.879  10.382 -0.2928 -0.2175  0.1414
12279W        W25693   4.789  11.267  16.008  0.1281 -0.1802  0.0217
12280W        W25694  15.049   1.345  13.251 -0.0277 -0.2538 -0.1563
12281W        W25695  13.040  10.179   4.225 -0.0360  0.1730  0.2712
12282W        W25696  17.922  10.898  14.017  0.2641 -0.2525 -0.1310
12283W        W25697  11.488  14.667   4.506  0.0995  0.0021  0.0277
12284W        W25698  12.130  15.949  11.890 -0.0144  0.2660 -0.2116
12285W        W25699   9.822   6.768  15.751 -0.1132 -0.3227 -0.0979
12286W        W25700  15.808   7.146   5.783 -0.1537 -0.0471  0.0961
12287W        W25701  16.006  18.107  13.623 -0.0828  0.1353  0.3452
12288W        W25702   1.061  14.126  12.881  0.1617  0.1258 -0.3288
12289W        W25703  14.150  11.034  15.321  0.0226  0.2058  0.1493
12290W        W25704  16.156   9.019   2.967  0.3345  0.1379  0.2666
12291W        W25705   8.997  16.019  11.049 -0.0239 -0.0983  0.0757
12292W        W25706   8.628   0.008   2.418  0.0841 -0.0052 -0.0523
12293W        W25707  16.079   8.841  10.948 -0.0039  0.0064 -0.1599
12294W        W25708   2.724  18.277  10.609  0.1843 -0.1654 -0.1534
12295W        W25709  15.292  10.395   0.115 -0.0439  0.2437 -0.0251
12296W        W25710  12.002  10.826   0.679 -0.0147 -0.2046  0.0316
12297W        W25711   3.680  16.109   5.407  0.1428 -0.1347  0.0183
12298W        W25712  14.213   5.878   3.646 -0.1362  0.1549  0.2423
12299W        W25713   7.439   0.351  11.854  0.1262 -0.3299 -0.1843
12300W        W25714   3.749   2.599   1.759  0.1508  0.1486 -0.2178
12301W        W25715   4.341  17.853  10.332  0.0007 -0.0944 -0.0783
12302W        W25716   3.878  16.385   4.754  0.1754 -0.1228  0.3168
12303W        W25717   0.276  12.800   5.050 -0.0412  0.0426 -0.0577
12304W        W25718  13.287   0.143   3.460  0.0526 -0.1038  0.1560
12305W        W25719  12.971   8.908   3.354  0.1972  0.0569  0.0772
12306W        W25720   4.888  12.234  11.657  0.0177 -0.0525  0.0725
12307W        W25721   0.184  16.771  14.237 -0.1143 -0.0752  0.0287
12308W        W25722   1.967   5.350   2.475  0.0545 -0.2904  0.1007
12309W        W25723   9.433   2.358  11.549 -0.0269 -0.1947 -0.2923
12310W        W25724   8.379   0.272  15.618  0.1134 -0.0998 -0.1280
12311W        W25725  10.960  11.699  10.538 -0.3644  0.1351  0.4265
12312W        W25726  12.255   1.026   2.579 -0.0404  0.2193 -0.0873
12313W        W25727  17.085  18.113   0.602  0.1533  0.0917  0.3479
12314W        W25728  15.283  17.007   2.527 -0.3681  0.0321  0.1439
12315W        W25729  13.748   0.460  11.732 -0.5301 -0.0216  0.2007
12316W        W25730  11.800   9.279  12.662 -0.2468  0.1063 -0.5961
12317W        W25731   9.303   3.487   1.969  0.1304 -0.2161 -0.0632
12318W        W25732  17.203   2.170   4.685  0.0910  0.0360 -0.2831
12319W        W25733  14.332  18.142   1.137 -0.4501 -0.0535 -0.1919
12320W        W25734  12.762  17.132  11.066 -0.1148 -0.3572 -0.0930
12321W        W25735   6.553   6.665   5.984 -0.1016  0.2294  0.0717
12322W        W25736  12.657  11.880   9.984  0.0651  0.0580  0.0457
12323W        W25737  15.021  16.274  11.883  0.0261  0.0189  0.0011
12324W        W25738   9.417   1.329  10.588 -0.2022 -0.0196  0.1751
12325W        W25739  12.451  12.568   4.405 -0.0176 -0.2624 -0.0830
12326W        W25740   1.199   0.010  14.396  0.0794  0.0536 -0.1846
12327W        W25741   0.817   2.191  10.939  0.2243 -0.1062 -0.0536
12328W        W25742  16.404   2.927  15.661 -0.1180 -0.0197  0.0509
12329W        W25743   5.688   3.442  11.665 -0.0658  0.0980  0.0817
12330W        W25744   1.566  11.217   3.296 -0.2203 -0.3106  0.0934
12331W        W25745   3.789   7.815   4.904  0.0971 -0.0329 -0.0265
12332W        W25746  15.954   4.409   3.994 -0.0142  0.0024 -0.0768
12333W        W25747  13.019   1.734   5.690  0.2470  0.2684  0.0762
12334W        W25748  13.283   3.559   3.477 -0.0840  0.2244 -0.0301
12335W        W25749   5.073   3.336   1.431 -0.0480 -0.1180  0.0454
12336W        W25750   2.116   2.128   5.444 -0.0400  0.0468 -0.1251
12337W        W25751   2.982   2.298  13.901 -0.0726  0.0086 -0.0565
12338W        W25752   1.694  15.220  10.483 -0.1431  0.3299 -0.1369
12339W        W25753  18.284  14.957  12.710  0.0343  0.0869  0.1722
12340W        W25754  13.074   4.650   2.712 -0.0000 -0.1961 -0.1826
12341W        W25755   7.595  13.260  10.772  0.1713  0.0417  0.2799
12342W        W25756   2.134  16.986   4.941  0.3942 -0.1816 -0.0544
12343W        W25757  16.378   3.002   5.014 -0.0531  0.0375  0.1147
12344W        W25758   5.490   5.013  11.022  0.0280  0.0909  0.0460
12345W        W25759   2.230   3.456   3.948  0.3231 -0.1642  0.0544
12346W        W25760   0.690   2.144  12.183  0.1309 -0.1985  0.1656
12347W        W25761  14.246  12.792   4.219  0.0543 -0.0281  0.2895
12348W        W25762  14.519  17.378   0.026  0.1933  0.0666 -0.1895
12349W        W25763  10.582   9.843   5.018  0.3099  0.2368  0.3061
12350W        W25764   9.634   2.985   5.814  0.1297 -0.1063  0.1797
12351W        W25765  11.809  13.715   0.855  0.0145  0.1759 -0.0416
12352W        W25766  14.680  14.450   4.269 -0.4028 -0.0677  0.1582
12353W        W25767   1.428  11.707   4.046 -0.0726  0.0378 -0.0892
12354W        W25768   4.247  14.267   2.490  0.1727  0.1183 -0.0092
12355W        W25769   3.041  14.700   2.673 -0.1103  0.0676  0.1819
12356W        W25770   2.071  16.015  11.390 -0.4056  0.1243 -0.2632
12357W        W25771   6.917  10.699   3.587 -0.1584 -0.1023 -0.1457
12358W        W25772  11.558   2.820   3.802 -0.1768 -0.1341  0.1020
12359W        W25773  16.892  10.919   2.099 -0.1493 -0.2766 -0.1845
12360W        W25774  10.146   3.403   1.265 -0.0980 -0.0634  0.1513
12361W        W25775   9.543  11.505  11.631 -0.1145  0.0954 -0.2113
12362W        W25776   1.204   9.275  12.819  0.0540  0.1119 -0.2672
12363W        W25777  12.344   3.464  11.994 -0.2127 -0.2122 -0.4284
12364W        W25778  17.307   2.567  11.363 -0.0521 -0.0140 -0.1605
12365W        W25779   9.962  18.327  10.168 -0.1024 -0.0399  0.0628
12366W        W25780   3.935   4.490   0.412  0.0756  0.1149  0.1126
12367W        W25781  12.234   1.368   3.963 -0.0863 -0.2035 -0.1422
12368W        W25782  16.359   1.351   1.632  0.1454  0.1318 -0.1019
12369W        W25783  10.685  16.060  10.197  0.2619 -0.0262 -0.1557
12370W        W25784   0.694  15.138  12.959 -0.1450 -0.0613 -0.3295
12371W        W25785  18.043   0.178  15.078 -0.2497  0.3372  0.2855
12372W        W25786   1.617  12.222  15.052 -0.0824 -0.1438 -0.3258
12373W        W25787  17.046   9.730   3.102  0.3617 -0.1444  0.0106
12374W        W25788   9.425   8.305  10.095 -0.1438 -0.0746 -0.4436
12375W        W25789   6.602  17.898  13.713 -0.0006  0.0683 -0.4514
12376W        W25790  10.437  16.036   2.269 -0.1031 -0.0613  0.2657
12377W        W25791   2.500   1.183   2.303  0.2661  0.0890 -0.0093
12378W        W25792  13.106   7.922   1.133 -0.0039  0.0134 -0.0955
12379W        W25793  17.246  13.879  15.501 -0.0640  0.2502  0.0683
12380W        W25794  13.090   5.428  15.791 -0.1970 -0.0860 -0.3252
12381W        W25795   0.974  16.035  15.348  0.1137  0.1398  0.0030
12382W        W25796   2.130   6.918   2.306 -0.3290  0.2852  0.1848
12383W        W25797  17.817  16.338  12.645  0.3137 -0.0189 -0.1798
12384W        W25798  10.575   9.626   2.350 -0.4231  0.0841  0.1587
12385W        W25799   0.766  10.511   0.057 -0.0645  0.0917 -0.1349
12386W        W25800  12.959  14.428   5.602 -0.1225 -0.3816 -0.0762
12387W        W25801  14.256   0.414   3.820 -0.0306 -0.1996  0.0111
12388W        W25802  11.913   0.397   1.391 -0.1584 -0.0548 -0.1891
12389W        W25803   8.104   0.477  12.680 -0.0125 -0.2112 -0.1428
12390W        W25804   6.849   2.033   3.554 -0.0708 -0.0105  0.1019
12391W        W25805   5.258  15.899  15.176 -0.2191 -0.2083 -0.3011
12392W        W25806   3.666  16.929  13.070  0.0610  0.1453 -0.1197
12393W        W25807  15.987  14.336  15.341 -0.2451  0.1108  0.1408
12394W        W25808   3.580  14.106  13.966 -0.1159  0.2924 -0.1441
12395W        W25809   7.501   9.678  12.242  0.0409  0.0992 -0.2063
12396W        W25810   3.007  13.563   3.526 -0.0203 -0.0867 -0.0570
12397W        W25811   0.796  14.141  13.751 -0.1492  0.4033  0.2852
12398W        W25812  14.600   9.455   0.428 -0.2129 -0.1751 -0.1112
12399W        W25813   2.618   2.041  15.795  0.0185 -0.0547  0.1767
12400W        W25814   3.279  11.362  10.935 -0.0611  0.1213 -0.1236
12401W        W25815   6.927  11.175   3.747 -0.2572  0.2035 -0.3351
12402W        W25816   5.564   2.604   3.389  0.2041  0.1613  0.0316
12403W        W25817  15.937  14.855   3.543 -0.0802 -0.0296 -0.0977
12404W        W25818  18.402   1.292   4.854  0.0558 -0.2740 -0.3635
12405W        W25819   2.206  13.339  11.390 -0.3963  0.2607  0.0781
12406W        W25820   9.858   6.787   5.037  0.0931  0.4595  0.2774
12407W        W25821   6.189   4.053  13.919 -0.0153 -0.1582 -0.1145
12408W        W25822   5.991   1.131   1.329 -0.1953 -0.4479 -0.1877
12409W        W25823   7.691  16.258  10.369 -0.2235 -0.0213  0.2873
12410W        W25824   0.360   1.159  14.826 -0.1226  0.0568 -0.0359
12411W        W25825   5.924  12.938  15.294 -0.2160 -0.2082  0.0929
12412W        W25826   8.619   9.881   3.127 -0.1347 -0.2817 -0.1163
12413W        W25827   4.586  11.459   0.663 -0.0100 -0.1277 -0.3789
12414W        W25828  15.002  18.292  10.705 -0.0796  0.1657  0.2369
12415W        W25829   4.894   1.015  14.420 -0.1267 -0.3453  0.5003
12416W        W25830   1.454  15.597  12.194  0.3178  0.2818 -0.1536
12417W        W25831  13.773  17.615  12.470 -0.0884  0.0574  0.0663
12418W        W25832  17.894   0.825  13.909  0.0907 -0.1055  0.0808
12419W        W25833  13.670   7.646  14.928 -0.1676 -0.1852  0.0426
12420W        W25834   3.566  14.138  13.427 -0.1618  0.1225  0.1510
12421W        W25835   8.758   8.372   3.968 -0.2217  0.0137 -0.1145
12422W        W25836   0.713  18.316   0.473 -0.3125 -0.0627 -0.0178
12423W        W25837   7.413  14.395   3.059  0.1153  0.0942  0.0807
12424W        W25838  15.334   3.468  12.316  0.1000 -0.0192  0.0797
12425W        W25839  10.796   3.163  13.855 -0.0231 -0.1777  0.0346
12426W        W25840   3.549   1.509  10.756 -0.0504 -0.0445 -0.1639
12427W        W25841  10.046   7.799  12.224  0.2601  0.3299  0.0786
12428W        W25842  13.971   8.265   0.985 -0.2679  0.1511  0.4759
12429W        W25843   1.898   1.671   5.988  0.1009 -0.1497  0.0129
12430W        W25844  15.464  11.602   5.222 -0.0663 -0.0624  0.1229
12431W        W25845   4.344  17.338   4.019 -0.0694 -0.1077  0.1895
12432W        W25846   7.713   1.161  15.021 -0.0144 -0.2360  0.0914
12433W        W25847   4.650  10.822   0.750  0.0485 -0.0894  0.1875
12434W        W25848  18.447   7.734   4.883 -0.1233  0.0263 -0.1959
12435W        W25849   2.202   4.762   1.700  0.0001 -0.1787 -0.1328
12436W        W25850  10.897   1.049   2.819 -0.0497 -0.1772 -0.4217
12437W        W25851  10.778  10.590  15.682  0.0527  0.0717  0.0179
12438W        W25852   6.577  17.716   4.504  0.0878  0.1432 -0.3489
12439W        W25853  11.049   8.306   2.054  0.0141 -0.0441  0.1114
12440W        W25854  17.323   3.264   6.815 -0.0892  0.2075  0.0334
12441W        W25855  15.418   0.842   4.357  0.1720  0.2434  0.1127
12442W        W25856  10.637  10.396  14.378 -0.3221  0.1140  0.3409
12443W        W25857  10.394   7.025  12.148 -0.0206  0.3950 -0.0108
12444W        W25858  17.329   5.072  13.198  0.2414 -0.2149 -0.1085
12445W        W25859   0.990   8.576   3.556 -0.3019  0.1211 -0.1234
12446W        W25860   7.431   4.874   2.993 -0.4215 -0.2274  0.3314
12447W        W25861   7.891  14.788  11.760  0.1696  0.2109  0.0973
12448W        W25862   1.784  10.014   2.340  0.1594  0.3794  0.1368
12449W        W25863   8.751   3.882  12.078  0.0024 -0.2770  0.2314
12450W        W25864  11.653   7.164  11.404  0.0492 -0.0354 -0.1131
12451W        W25865  15.012   4.926  12.314 -0.2124  0.1182 -0.1344
12452W        W25866   3.084   3.218  14.956 -0.4045  0.1210 -0.0068
12453W        W25867   3.702   4.596  13.218  0.1246  0.0279  0.2848
12454W        W25868   1.652   8.613  14.451  0.0782  0.0819  0.0761
12455W        W25869  15.008   0.741  15.162  0.3180 -0.2154  0.0305
12456W        W25870   6.502  10.176  12.873 -0.2978 -0.0429 -0.0769
12457W        W25871  17.109   8.807  13.620  0.0234 -0.1346  0.2307
12458W        W25872   1.620  11.547   5.259 -0.1422  0.2826  0.1475
12459W        W25873   7.485   1.548   2.926  0.0533 -0.0735 -0.1264
12460W        W25874  15.267  14.983   2.829 -0.2068  0.0193 -0.0723
12461W        W25875   3.115   9.584  13.572 -0.3370  0.0609  0.4812
12462W        W25876  12.521   0.828   4.950  0.0333 -0.1099 -0.0341
12463W        W25877  10.111  14.323   4.677  0.1126 -0.1301 -0.1769
12464W        W25878   5.869  13.485   3.043  0.0807 -0.0467  0.1945
12465W        W25879   0.498  13.123  16.008 -0.1799 -0.3247 -0.1255
12466W        W25880  16.396   4.550  12.924  0.0252 -0.1938  0.2463
12467W        W25881   9.970   0.929  15.562  0.0086  0.0838  0.1870
12468W        W25882   7.399  16.317   1.651  0.1476 -0.1593 -0.2395
12469W        W25883   7.345  16.666  10.907 -0.1370 -0.0302  0.3268
12470W        W25884   1.205   0.158  12.787  0.0497  0.1572 -0.1407
12471W        W25885  15.371  11.104  10.879 -0.0617  0.0254 -0.1729
12472W        W25886   1.597   0.531  10.768 -0.0532  0.0173  0.0599
12473W        W25887   9.034   9.338   4.848 -0.1069 -0.4064  0.0539
12474W        W25888  11.887  13.066  15.574  0.2743 -0.3838 -0.2138
12475W        W25889   1.604   2.882  12.999 -0.2386  0.0544 -0.2251
12476W        W25890  16.621   1.066   4.810 -0.0646  0.0607 -0.1200
12477W        W25891  13.355   2.692  14.748 -0.1391  0.1080 -0.2410
12478W        W25892  15.353   2.588  15.593  0.0019  0.1704  0.1286
12479W        W25893   4.508  16.593  10.498 -0.3744  0.1787  0.0989
12480W        W25894   7.629  13.306  15.368 -0.0272 -0.2896 -0.2750
12481W        W25895  12.253  16.294  13.194 -0.1186  0.2651  0.2954
12482W        W25896   7.516  11.474  11.289  0.1186  0.1402  0.2293
12483W        W25897   8.948  17.780  13.955  0.3706 -0.0726 -0.2877
12484W        W25898  18.385  18.261  16.269  0.0830 -0.0280 -0.0721
12485W        W25899   4.970  13.356   1.079  0.0544 -0.1471 -0.0756
12486W        W25900  14.982  11.634   5.194  0.2232  0.1397 -0.3550
12487W        W25901  15.448   0.933   6.400  0.0241  0.0760  0.0839
12488W        W25902   9.514   5.132   4.564 -0.0648 -0.2198  0.2763
12489W        W25903   0.806   8.266  13.950  0.1255 -0.1026 -0.1379
12490W        W25904  15.059  11.511  11.686 -0.0209 -0.0375 -0.1936
12491W        W25905   9.639  12.055  13.953  0.0706  0.2387 -0.1596
12492W        W25906   9.784   2.184   0.504  0.1861  0.0669  0.2000
12493W        W25907  17.016   5.909  10.236 -0.2869  0.3028 -0.0505
12494W        W25908  16.129  12.363  12.182 -0.1833  0.1061  0.0683
12495W        W25909   1.865   2.953   1.583 -0.0682 -0.3621  0.1559
12496W        W25910  16.781   0.673   0.084  0.1254  0.3412 -0.1399
12497W        W25911  15.956  10.455  11.348 -0.1664  0.2853  0.0590
12498W        W25912   8.272  14.887  15.734  0.2191  0.1906  0.2323
12499W        W25913   9.828  14.647   9.721 -0.2610  0.0047  0.0677
12500W        W25914   4.456   5.334   3.868 -0.1112 -0.0097 -0.0596
12501W        W25915  17.326  14.123   2.176  0.2542 -0.3302  0.0645
12502W        W25916  11.648   6.797  11.748 -0.0342 -0.1198 -0.3582
12503W        W25917   0.955   9.253   2.822  0.0444  0.1147  0.1434
12504W        W25918   5.595   1.543   4.000 -0.0629  0.0590 -0.0908
12505W        W25919   5.176  11.700  14.000  0.0001  0.0418 -0.1403
12506W        W25920  13.899   4.048  14.297  0.0401  0.0304  0.1545
12507W        W25921  12.712  16.525   1.543 -0.1693 -0.1494 -0.2140
12508W        W25922   6.453  17.073  12.731  0.2278  0.1360 -0.3282
12509W        W25923  14.937   4.161  13.441  0.2789  0.2376 -0.0068
12510W        W25924   9.545   9.947  10.944 -0.1938  0.1279  0.0963
12511W        W25925  18.238  13.961   0.681 -0.0143 -0.0546 -0.2444
12512W        W25926  12.856  13.899  15.543  0.0829 -0.1784 -0.0286
12513W        W25927  14.656   6.697  15.606 -0.0635  0.1677  0.3589
12514W        W25928   6.346   0.804  11.174  0.1827 -0.1985 -0.2321
12515W        W25929   0.909  11.513   4.700 -0.2776  0.0339  0.1859
12516W        W25930  12.099  18.248   1.779 -0.1982  0.0979  0.1891
12517W        W25931   6.310   1.798  11.244  0.2374 -0.0717  0.0264
12518W        W25932   4.814   1.782  11.938 -0.1776  0.5113  0.3192
12519W        W25933   7.599   4.158  11.749  0.0981 -0.2938  0.0399
12520W        W25934   2.011  10.032  15.855 -0.0412  0.2441 -0.1355
12521W        W25935   2.996   4.060  12.533 -0.2753 -0.0546  0.0960
12522W        W25936   3.157   0.598   1.344  0.1551 -0.0777  0.2265
12523W        W25937  18.011   5.593  12.667 -0.0337 -0.2750  0.3387
12524W        W25938   4.644   4.314   5.551  0.1687  0.0738 -0.1176
12525W        W25939   7.839   3.734   1.078  0.2215 -0.2602  0.2644
12526W        W25940  10.765   9.821  12.030  0.1897 -0.0282 -0.0544
12527W        W25941  14.291   5.813   6.342 -0.2287  0.0773 -0.0011
12528W        W25942  13.469   3.683  13.706  0.1019  0.2330  0.0085
12529W        W25943   3.539  11.156  14.977 -0.1162 -0.1306 -0.6001
12530W        W25944   4.844   0.702   0.462  0.2125  0.0547  0.3138
12531W        W25945   6.353   8.957  13.532  0.1324 -0.3174  0.0982
12532W        W25946   2.321   6.660   5.341 -0.2044  0.0444 -0.1281
12533W        W25947   7.146  10.462  15.353  0.0677  0.1187  0.2364
12534W        W25948   9.313  11.945  11.575  0.0809 -0.0051 -0.0900
12535W        W25949   6.964  16.342  15.841  0.2125 -0.1140 -0.0297
12536W        W25950  16.611   9.752  13.127  0.0022  0.0960 -0.2710
12537W        W25951   2.363   1.530   6.143 -0.1233 -0.0438  0.1255
12538W        W25952  12.365   1.385   3.006  0.3195  0.0945 -0.0002
12539W        W25953   4.557  15.689  13.097  0.4227 -0.2476 -0.1166
12540W        W25954   0.525   4.547  14.032 -0.2027 -0.0345  0.1496
12541W        W25955   4.278  11.036   2.013 -0.0124 -0.3365  0.0720
12542W        W25956  11.058   3.725  14.615  0.1852  0.0336  0.1467
12543W        W25957  13.347  12.198   4.597 -0.0890 -0.0394  0.0013
12544W        W25958  15.015   0.131  13.747  0.1133  0.0354  0.0235
12545W        W25959   5.769   2.479  10.444 -0.1497  0.1245 -0.0458
12546W        W25960  14.173  10.350   1.385 -0.0300 -0.1343 -0.1610
12547W        W25961   2.862  12.259   4.687 -0.2111 -0.0110 -0.0680
12548W        W25962   8.606   7.744  12.338 -0.0121 -0.3015  0.1737
12549W        W25963  11.117  15.973  11.868 -0.4258 -0.2244  0.0646
12550W        W25964   0.453  18.083   4.417 -0.0574  0.1273 -0.0799
12551W        W25965  14.362  13.374   0.594  0.3798 -0.3384 -0.1104
12552W        W25966  15.241  13.218  15.208  0.1305  0.2483 -0.0402
12553W        W25967   8.100   0.402   1.164 -0.1605 -0.2700 -0.1203
12554W        W25968  14.514  17.858  12.770  0.0133 -0.3443  0.2364
12555W        W25969   0.006   4.524  11.704  0.0556 -0.5539 -0.2358
12556W        W25970  13.933   9.070  13.023  0.2694  0.0489  0.1114
12557W        W25971  12.709   8.947   4.754 -0.3441  0.1252 -0.2312
12558W        W25972  12.091  14.315   1.483 -0.1372  0.1485  0.0829
12559W        W25973   0.416   5.171  10.349  0.1095  0.4083 -0.4591
12560W        W25974  11.025  13.952  14.592 -0.2528  0.1502  0.0472
12561W        W25975  12.880   9.280   0.612  0.2302 -0.1726  0.3107
12562W        W25976  13.921   6.347   1.312 -0.0990  0.1619 -0.3660
12563W        W25977   7.937   5.352  13.246  0.0601  0.1839 -0.0778
12564W        W25978   8.059   9.068   1.202  0.3711  0.1219 -0.4018
12565W        W25979   3.564   8.456  13.815  0.0325 -0.2100  0.0872
12566W        W25980   2.914  15.769   5.630  0.0394 -0.1036  0.2003
12567W        W25981   5.446   5.866  15.288 -0.1048  0.2897 -0.0862
12568W        W25982  16.015   3.973   5.503  0.0509 -0.1761 -0.1590
12569W        W25983   4.849   2.646  11.816  0.0272 -0.1202  0.0320
12570W        W25984   7.797  14.181  13.064 -0.3282  0.0998 -0.3022
12571W        W25985  10.236   4.700  15.951 -0.3339 -0.1713 -0.0560
12572W        W25986  17.417  14.728  12.287 -0.2614 -0.1556 -0.2425
12573W        W25987   8.364  10.545   0.015  0.1264  0.1688  0.0001
12574W        W25988   4.309   2.541  13.799 -0.1654 -0.2477  0.0287
12575W        W25989  16.083   1.004  15.766 -0.0522 -0.0133 -0.1969
12576W        W25990   5.813   5.546  16.041  0.0158 -0.3957 -0.0477
12577W        W25991   3.697  11.996   4.196  0.3733 -0.0232  0.0386
12578W        W25992   1.143   3.659   5.781  0.0200 -0.2531  0.0061
12579W        W25993   4.122   4.711   2.949  0.1107 -0.0258 -0.1320
12580W        W25994  11.824  16.517   1.463  0.1169  0.0926  0.0182
12581W        W25995  15.673   7.462   0.112 -0.3800 -0.2890 -0.0589
12582W        W25996   2.274   4.739   4.167 -0.1896 -0.0395  0.1066
12583W        W25997   8.551   4.126   5.432 -0.2722 -0.0967  0.3302
12584W        W25998  11.274  10.455   1.900  0.0680  0.3085 -0.3077
12585W        W25999   4.382   6.431  15.188 -0.3246 -0.0126 -0.0036
12586W        W26000  13.069   8.285   0.190  0.2974  0.0873 -0.0632
12587W        W26001  13.763   2.629   4.833 -0.0193  0.1419 -0.1723
12588W        W26002  13.554   8.950  14.304 -0.1434 -0.0309  0.1447
12589W        W26003   9.348   8.531   3.259 -0.2688  0.3043 -0.0820
12590W        W26004  16.665  14.742   0.463 -0.2592 -0.2849  0.0704
12591W        W26005  17.823   6.534  12.546  0.4027  0.0696 -0.1795
12592W        W26006  13.492   5.802   0.253 -0.1910 -0.1165 -0.3486
12593W        W26007  14.689   4.843   6.294  0.1107  0.1017  0.1231
12594W        W26008   2.076  16.796  14.522  0.0756  0.2325  0.1199
12595W        W26009  18.399   1.714  14.084  0.1656 -0.0282 -0.0425
12596W        W26010   4.667   6.633  11.065  0.0372 -0.2231  0.1813
12597W        W26011  11.672   1.464   1.468 -0.1409  0.0881  0.1424
12598W        W26012   6.029   1.747   3.842  0.0261 -0.0417  0.1272
12599W        W26013   9.973  15.928  11.875 -0.1052 -0.1344 -0.2377
12600W        W26014   1.894   8.716  11.639  0.3390 -0.1264  0.1750
12601W        W26015   2.856  17.791  11.266 -0.1357 -0.3639  0.1424
12602W        W26016   2.320   7.112   4.090 -0.2064 -0.2061 -0.1205
12603W        W26017   2.741  16.598  11.075 -0.0197  0.2380  0.0457
12604W        W26018  15.035  11.293   0.123 -0.3694  0.1494 -0.2173
12605W        W26019  12.125  17.040   5.368 -0.0619 -0.0993 -0.0452
12606W        W26020   5.845  13.289  11.149  0.0475 -0.1061  0.1676
12607W        W26021  15.840  12.417   4.244  0.0692  0.1227  0.2525
12608W        W26022  15.415   9.094   3.692 -0.1847  0.1083  0.1658
12609W        W26023   7.674   6.194   3.278 -0.0286  0.0261  0.1296
12610W        W26024  12.204   5.304  13.494  0.2778  0.1478  0.2644
12611W        W26025   6.189   6.674  15.967  0.1041  0.2660 -0.1870
12612W        W26026   5.238   0.298   0.562  0.2574 -0.0119 -0.0695
12613W        W26027  10.508   0.669   1.252 -0.2274  0.0684 -0.0122
12614W        W26028   2.195   6.272   0.874 -0.2255 -0.1252 -0.0518
12615W        W26029   9.901   9.534   6.059  0.2738 -0.0125  0.2217
12616W        W26030   7.954  16.462   1.070  0.0830  0.0609  0.0271
12617W        W26031   3.675  10.163  15.937 -0.1075 -0.0716 -0.0181
12618W        W26032   3.962   2.397  14.130 -0.4755 -0.0234 -0.1491
12619W        W26033   5.681  10.602   9.952 -0.2258  0.0622 -0.1540
12620W        W26034   3.446   0.033   5.391 -0.0500  0.0229 -0.1771
12621W        W26035   2.439  13.085   2.985  0.2291  0.1364 -0.1775
12622W        W26036  15.117  13.391  13.863  0.2420 -0.0276 -0.1240
12623W        W26037   4.141  13.049   1.746  0.1146  0.0566 -0.1647
12624W        W26038   5.119  13.580  13.992  0.0696 -0.0060 -0.1666
12625W        W26039   9.938   9.575  10.037 -0.1999 -0.0175 -0.0039
12626W        W26040  18.036  12.968   0.861 -0.1036 -0.1116 -0.1933
12627W        W26041   2.524   0.484   6.244 -0.0254  0.4089 -0.0018
12628W        W26042  12.792   1.819   0.373 -0.1288 -0.0212 -0.0901
12629W        W26043   9.545  16.140   3.445 -0.0612  0.2636  0.4327
12630W        W26044  12.262   9.899   4.284  0.1213 -0.1136  0.0756
12631W        W26045   5.566   3.050   5.916 -0.0256 -0.1332 -0.0377
12632W        W26046  10.904  18.341   4.243 -0.0450 -0.0907 -0.0770
12633W        W26047   7.874  16.990  14.179 -0.2448 -0.1484  0.0741
12634W        W26048   3.407  11.922  12.896  0.1944  0.0209 -0.0667
12635W        W26049   1.159  14.508   1.481 -0.0859 -0.6566 -0.1783
12636W        W26050   2.485  10.046  12.124 -0.0918 -0.1339 -0.2923
12637W        W26051  13.040   4.912   0.531  0.0970  0.0301 -0.2412
12638W        W26052  15.942   0.643  12.391 -0.1050  0.1189 -0.2083
12639W        W26053   3.675  10.914  12.047  0.2447  0.3384 -0.2237
12640W        W26054  17.101  13.444   2.988  0.2874  0.0121  0.0794
12641W        W26055  17.417   1.152  10.881  0.1647  0.3583  0.1833
12642W        W26056   9.276  14.297   1.952  0.2366  0.1064 -0.1275
12643W        W26057   8.748   6.891  12.940 -0.4780  0.0840  0.3315
12644W        W26058   5.769  12.985   2.128 -0.1307 -0.2962 -0.1174
12645W        W26059  14.007   2.851  12.448 -0.1663  0.0028  0.0668
12646W        W26060  15.447   3.692   1.786 -0.0300 -0.0231 -0.1534
12647W        W26061   4.681   2.195  11.611  0.1944  0.3098 -0.2562
12648W        W26062   2.053  14.980   2.290 -0.2929 -0.0798  0.0009
12649W        W26063  15.507   4.365  14.186 -0.0207 -0.1161  0.1002
12650W        W26064   3.300   6.527  14.812  0.2759 -0.1478 -0.1809
12651W        W26065   7.807   5.687  14.588 -0.0631  0.3579 -0.1890
12652W        W26066  16.182  14.750  10.221 -0.1389 -0.0953 -0.2840
12653W        W26067   6.072   1.239  12.512 -0.0856  0.1354  0.1337
12654W        W26068   4.314   3.143   5.306 -0.0071  0.1268 -0.1299
12655W        W26069   3.636   9.683  10.400  0.1200  0.2113  0.0078
12656W        W26070   2.127  18.383   1.895  0.0711 -0.0378  0.2910
12657W        W26071  15.077   7.679   0.718  0.1073 -0.1066  0.1457
12658W        W26072   3.240   4.023   4.692  0.2007 -0.1949  0.0309
12659W        W26073  17.394  15.962  16.196 -0.1682 -0.2900  0.1139
12660W        W26074   8.301   4.893  12.021  0.0386  0.1084  0.4748
12661W        W26075   7.146   8.234  15.281  0.1307 -0.0775  0.1611
12662W        W26076   3.703   8.364  12.413  0.0109 -0.4338  0.1813
12663W        W26077   2.908  12.524  15.172  0.0332  0.1469  0.1678
12664W        W26078  13.660  11.770   4.898  0.2721  0.2610 -0.1580
12665W        W26079   3.237   0.483   5.434 -0.3052 -0.0054 -0.0872
12666W        W26080   5.826   3.497   5.905  0.0829 -0.1894  0.1447
12667W        W26081   2.005   1.154   5.395 -0.0209  0.3607  0.1433
12668W        W26082   7.231   9.714  11.812  0.1848 -0.1233  0.3751
12669W        W26083  14.014   6.714   6.583  0.2228 -0.3547  0.0311
12670W        W26084  14.408   2.187   3.482  0.1928  0.2306 -0.1266
12671W        W26085  12.125   3.220  11.160 -0.1115 -0.0906 -0.0468
12672W        W26086  10.027  17.261  12.707  0.2494 -0.2601 -0.2666
12673W        W26087  14.766  11.579   4.725  0.0589 -0.1522  0.1571
12674W        W26088  10.687  17.361  14.390 -0.0789  0.3075  0.3223
12675W        W26089   0.143   7.525  14.530 -0.2495  0.1517  0.2060
12676W        W26090   5.226  17.597   2.132  0.1026 -0.2118  0.1919
12677W        W26091  11.356   3.459  13.924  0.0260  0.2864 -0.1245
12678W        W26092   7.766   7.866  12.216  0.0026 -0.2290  0.2298
12679W        W26093  13.153   6.153   2.473 -0.1727 -0.1646 -0.3108
12680W        W26094  10.852   9.445   3.855 -0.2426  0.0665  0.2243
12681W        W26095   5.652   8.267  12.432 -0.1016 -0.1572 -0.0376
12682W        W26096   0.518  18.068  15.461 -0.4501  0.0245  0.1119
12683W        W26097   2.849  10.978  12.339  0.2063 -0.1801 -0.2615
12684W        W26098   5.222   5.832  14.178 -0.0623 -0.1049 -0.0011
12685W        W26099  10.644  13.303   2.749 -0.2155 -0.1213 -0.0999
12686W        W26100   8.165   9.292   2.590  0.1480 -0.0210 -0.2376
12687W        W26101  14.231   6.315  16.156  0.0259 -0.0742 -0.0936
12688W        W26102  12.815   3.387  11.846  0.1444 -0.0796  0.1469
12689W        W26103   6.862   4.803   4.644 -0.2212  0.0049  0.0774
12690W        W26104  17.282  15.267   2.131 -0.1860 -0.0174  0.0081
12691W        W26105  11.261  15.125   3.305  0.2727 -0.1896  0.3473
12692W        W26106   4.531  15.535  12.106 -0.2869 -0.0918  0.2322
12693W        W26107  18.399   6.655  14.355 -0.1058 -0.1316 -0.1378
12694W        W26108  10.835  15.379   3.709 -0.0845 -0.4157 -0.0215
12695W        W26109   2.437   3.974   5.335  0.3556 -0.3496  0.2715
12696W        W26110  11.312  16.269  11.430  0.0230  0.2060 -0.1245
12697W        W26111  13.841   4.161   5.968 -0.1925  0.1469 -0.0243
12698W        W26112   0.471   1.269   0.279 -0.3125 -0.0968 -0.1631
12699W        W26113   7.109   7.674  12.781  0.0403 -0.1179  0.0618
12700W        W26114   2.841   7.580   3.833 -0.0322 -0.0355 -0.1393
12701W        W26115  10.260   9.604   3.548  0.2627 -0.0651  0.0654
12702W        W26116   3.931   5.804   5.128 -0.1140  0.0224 -0.1936
12703W        W26117   5.574   3.804  12.148  0.0566 -0.0267 -0.0551
12704W        W26118  10.622  12.758  12.705  0.0458 -0.0399 -0.0399
12705W        W26119  11.706   9.891  11.656 -0.1469 -0.0407 -0.0417
12706W        W26120   2.455  15.369   3.197  0.0481 -0.1038 -0.1095
12707W        W26121   6.599  13.498  10.727 -0.1155 -0.1673 -0.0396
12708W        W26122  17.014  13.658   3.397 -0.0614  0.0928 -0.0562
12709W        W26123  14.375  15.948   0.490 -0.0259 -0.2228 -0.1752
12710W        W26124   3.426   3.482  15.816  0.3489 -0.4082  0.1517
12711W        W26125  10.215   4.843  14.717  0.0185  0.0615  0.0035
12712W        W26126   1.309  17.511   0.101  0.0664  0.0039  0.1067
12713W        W26127   2.210   9.876  13.603  0.2614 -0.0724 -0.0339
12714W        W26128   3.778  10.534  10.882  0.1068 -0.2134  0.3152
12715W        W26129   2.432   3.005   4.152  0.0830  0.1868 -0.3403
12716W        W26130   6.214  10.089  15.502  0.5777  0.1133  0.1456
12717W        W26131  12.621  16.646  11.264  0.4252  0.0173 -0.1057
12718W        W26132   9.859   9.120  13.011  0.0332 -0.1380  0.3181
12719W        W26133  17.003   4.025  16.125 -0.0079  0.2211  0.0793
12720W        W26134   9.999   5.068   4.698 -0.1208 -0.0702  0.0179
12721W        W26135  11.944  14.072   2.763  0.0327 -0.0176  0.2505
12722W        W26136  15.264  17.464   5.157  0.2127 -0.2170  0.2268
12723W        W26137  12.153  17.579   5.366 -0.0076  0.1765 -0.2403
12724W        W26138   3.593  15.296  15.250 -0.1582 -0.0757  0.2285
12725W        W26139   1.361   8.066   1.917  0.1991 -0.3427  0.1224
12726W        W26140  18.360  10.667  13.578  0.0967  0.1752 -0.0209
12727W        W26141  16.842  10.359  13.721  0.3604  0.1183 -0.2326
12728W        W26142   6.630   1.378   5.493 -0.2191  0.0491 -0.1497
12729W        W26143   2.133   9.866   4.556 -0.1451  0.0941 -0.1389
12730W        W26144   4.536   7.799   2.046 -0.1489 -0.0783  0.1337
12731W        W26145  16.389   1.233  14.616  0.0350 -0.0634 -0.0781
12732W        W26146   5.728   0.252   5.216  0.1960  0.0062 -0.3491
12733W        W26147  12.573  17.484   1.497 -0.1820 -0.1050 -0.2083
12734W        W26148   4.106  11.679   4.119  0.1362 -0.2271  0.0077
12735W        W26149   1.405  11.255   3.742  0.2382  0.0861 -0.1648
12736W        W26150   3.706   2.324  15.998  0.0039  0.0189  0.3455
12737W        W26151   7.205  11.319  11.766 -0.3846  0.0707 -0.0250
12738W        W26152  18.280   2.736  13.871 -0.0340 -0.1314 -0.1824
12739W        W26153  10.607   1.534   2.210  0.1506 -0.0482 -0.0338
12740W        W26154  10.750   6.346  14.000  0.1866  0.2375 -0.3232
12741W        W26155   1.374   5.039   5.589  0.2680  0.0639 -0.0046
12742W        W26156  17.618  11.103  13.645  0.0745 -0.0380 -0.1248
12743W        W26157   7.209  15.715  13.244 -0.0465 -0.4280  0.4881
12744W        W26158  18.090   1.351  14.878  0.0596 -0.2680 -0.1506
12745W        W26159   0.884   7.965   6.048  0.1933  0.1928  0.0878
12746W        W26160  14.634   0.554  13.530 -0.2103 -0.2956  0.0252
12747W        W26161   2.942   6.498  10.618  0.1124  0.0691 -0.3835
12748W        W26162   0.140  11.968  12.199 -0.0440  0.3451 -0.3819
12749W        W26163  17.094  10.082  14.857 -0.2999  0.0677  0.0984
12750W        W26164   4.135   8.249   0.318 -0.1031 -0.3541 -0.2137
12751W        W26165  13.013   9.794  13.380  0.0466 -0.0261 -0.1205
12752W        W26166  13.476   1.261  12.972 -0.0601  0.0512  0.2053
12753W        W26167   4.833  12.393   9.826 -0.0023 -0.0533  0.0058
12754W        W26168   0.921  14.833   5.339 -0.1640  0.1851 -0.0601
12755W        W26169  18.218   0.503   1.314  0.1274  0.0573  0.2216
12756W        W26170   3.796  11.080   2.187 -0.3153 -0.0417 -0.2447
12757W        W26171   2.359  10.820  12.585  0.1044 -0.0478 -0.0634
12758W        W26172   7.937  17.102   9.893 -0.1524  0.2702  0.2426
12759W        W26173  11.750   5.806  12.682  0.2637  0.0400 -0.5532
12760W        W26174  12.373   4.923  15.213  0.1973  0.3932 -0.2597
12761W        W26175   5.543  18.105  15.483  0.1067  0.0967 -0.1077
12762W        W26176   3.504   4.183  15.019 -0.1083 -0.0068  0.1967
12763W        W26177  11.402   9.738   3.218  0.0665  0.0799 -0.1201
12764W        W26178  11.864  13.018  12.563  0.3462  0.1070 -0.0957
12765W        W26179  16.132  14.991   2.477 -0.1045 -0.1488  0.0112
12766W        W26180  10.617  10.945   2.612 -0.1417 -0.0229 -0.1210
12767W        W26181   2.497   5.903   5.124  0.0924  0.2244 -0.2123
12768W        W26182  15.667   5.853  15.229 -0.1060  0.2428 -0.2238
12769W        W26183   7.885   6.821  13.339  0.3935 -0.6049 -0.0408
12770W        W26184  10.842  14.578  13.753 -0.0127  0.0207  0.0218
12771W        W26185   9.520  16.291  13.738 -0.3739  0.0555  0.0284
12772W        W26186  12.518  10.195   3.248 -0.2876 -0.1391  0.0951
12773W        W26187  14.841   3.355  12.310  0.1326  0.0097  0.1105
12774W        W26188  11.858  17.920  12.059 -0.1995  0.1626 -0.5124
12775W        W26189  10.182  18.048   0.435 -0.0689  0.2776 -0.0150
12776W        W26190  18.274   5.128  16.106  0.1792  0.1571 -0.0565
12777W        W26191  13.236   1.818  14.065  0.0479  0.0493  0.1825
12778W        W26192   5.296   2.801   2.510 -0.4071 -0.0877 -0.3080
12779W        W26193   8.589   5.704   3.164 -0.3241 -0.2090 -0.2756
12780W        W26194   8.903   8.183  14.346 -0.0004  0.0851 -0.1716
12781W        W26195   3.530  17.288   3.866 -0.3217 -0.1315 -0.3743
12782W        W26196  11.104  18.389  11.081  0.2657  0.1991  0.1534
12783W        W26197  13.643   4.646   5.292 -0.0457 -0.0293  0.2572
12784W        W26198   2.048   2.930  12.729  0.0381 -0.0875  0.1152
12785W        W26199   5.837  17.651  15.674 -0.1406 -0.2319  0.0341
12786W        W26200   9.647   5.833   1.308  0.3137  0.1261  0.1441
12787W        W26201  13.841   2.899  13.307 -0.0612 -0.0461 -0.0085
12788W        W26202   6.072   3.841   4.935  0.2008  0.1101 -0.1257
12789W        W26203  14.980   8.308  13.333 -0.0264  0.2372 -0.0764
12790W        W26204  12.168  11.624   1.798 -0.0234  0.1048  0.1455
12791W        W26205   6.655  10.384   4.347  0.1025 -0.3062  0.0955
12792W        W26206   1.696  13.716   3.230 -0.0897 -0.0339  0.0546
12793W        W26207   5.561   5.144  12.018  0.2485 -0.0256 -0.1430
12794W        W26208   0.162  10.647   1.977  0.0694 -0.3520  0.0120
12795W        W26209  15.675  13.159  10.545 -0.1198  0.2051 -0.3523
12796W        W26210   8.289   9.161  11.149 -0.1181  0.4834 -0.0117
12797W        W26211   0.986   6.600   1.352  0.0128 -0.0211  0.1085
12798W        W26212  13.516  14.646  15.770 -0.2599 -0.1521 -0.0292
12799W        W26213   3.303  16.991  10.876 -0.4325 -0.2109 -0.1218
12800W        W26214   5.969  12.581   1.897  0.2395  0.0942  0.3358
12801W        W26215   5.891  16.352   9.951  0.0925  0.0083  0.1019
12802W        W26216   4.630   5.510  11.645 -0.0282 -0.1279 -0.1102
12803W        W26217  10.084   0.673  13.809  0.1195  0.4555 -0.2611
12804W        W26218  13.136  10.938  16.141 -0.0087 -0.3850  0.4639
12805W        W26219  10.646   0.754  10.026 -0.3565  0.0961 -0.1939
12806W        W26220  16.531   4.258   0.078 -0.1907 -0.0607 -0.2744
12807W        W26221  14.740  18.056   4.559 -0.3542 -0.0371  0.0287
12808W        W26222  10.327  14.722  13.613 -0.1177 -0.1293  0.0318
12809W        W26223   3.187   6.737   4.959  0.3785  0.0062 -0.1380
12810W        W26224  13.107  16.344   4.583  0.1554 -0.0314  0.0468
12811W        W26225   2.811   7.382  14.088 -0.3595 -0.0397 -0.1138
12812W        W26226   4.031  14.364  15.006 -0.0755 -0.1356  0.1218
12813W        W26227   8.210  11.053  11.846 -0.0707 -0.0670 -0.1473
12814W        W26228   1.695   0.640   5.977 -0.3795 -0.2997 -0.0539
12815W        W26229  10.504  11.041  15.726  0.0548  0.3651 -0.1229
12816W        W26230   3.027  17.554  14.961  0.1180  0.0564  0.3637
12817W        W26231   9.341  15.635   3.354  0.0976  0.1796 -0.3025
12818W        W26232   7.336   1.449   4.304 -0.0649 -0.0494  0.1795
12819W        W26233  13.676   2.477  13.829 -0.3855  0.2144  0.0195
12820W        W26234   7.365   8.321  12.126  0.1368  0.1510 -0.3209
12821W        W26235  12.875  14.176  10.014 -0.2670  0.0500  0.1266
12822W        W26236   6.832   5.644   4.085  0.2924 -0.0556 -0.0822
12823W        W26237   3.156  17.628  14.440 -0.1897 -0.0960 -0.1490
12824W        W26238  10.036   0.329  14.165 -0.0097 -0.1797 -0.1233
12825W        W26239   8.777  12.190   0.624  0.1683 -0.2192 -0.0104
12826W        W26240   1.112   0.165   4.377 -0.2946 -0.6655  0.2699
12827W        W26241   3.634   4.479  11.829 -0.2430 -0.0280  0.0219
12828W        W26242  17.580  13.573   5.812 -0.0512 -0.0934 -0.3882
12829W        W26243  15.469  16.323  12.227 -0.1285  0.0600  0.5537
12830W        W26244   4.983  17.654  13.973 -0.2320  0.1440 -0.1300
12831W        W26245   6.952  10.076  14.971 -0.2403 -0.0252  0.2138
12832W        W26246   6.112  16.716  14.142  0.1281 -0.2795  0.1403
12833W        W26247  16.684   6.609   2.228 -0.0986  0.1727 -0.2664
12834W        W26248   7.159   5.196  14.333  0.5017 -0.0188 -0.1105
12835W        W26249   2.556   7.341  10.866 -0.0386 -0.0720 -0.2157
12836W        W26250   2.324   9.957   6.247 -0.2251 -0.2247 -0.0639
12837W        W26251   9.260   6.399  11.510  0.0567  0.1994  0.1291
12838W        W26252  15.759  16.228   2.126  0.2066 -0.0277  0.2077
12839W        W26253  17.660   1.235   5.522  0.1467  0.1753 -0.1172
12840W        W26254   2.375   0.256   5.399  0.2981 -0.1836  0.0654
12841W        W26255   0.522   2.696   5.187 -0.0523  0.0237 -0.2389
12842W        W26256  17.157   2.379  15.974  0.1869  0.1670  0.1879
12843W        W26257   2.099  13.701   5.278  0.2870 -0.0242  0.1331
12844W        W26258  12.722  12.017   3.409 -0.2229  0.3216 -0.1195
12845W        W26259   6.859   7.089   4.954 -0.2050  0.3198 -0.3327
12846W        W26260   9.428   7.750  11.872  0.3488  0.1363 -0.0762
12847W        W26261   0.916  14.638   3.995 -0.2377 -0.0514  0.2155
12848W        W26262   9.815  10.699   0.108 -0.3382  0.0373 -0.2747
12849W        W26263  14.719  10.109  12.990 -0.3029 -0.1649  0.2285
12850W        W26264   8.614   6.765   0.918 -0.1189  0.0407  0.1056
12851W        W26265  17.160  13.652   1.215 -0.1569  0.1163 -0.0252
12852W        W26266   6.569   9.482   5.506  0.0921  0.2253 -0.1859
12853W        W26267   8.188  14.803  11.075 -0.2472 -0.1534  0.0661
12854W        W26268   8.294  12.393   0.839 -0.1303 -0.0987  0.1099
12855W        W26269   9.917  15.920  15.743  0.4365  0.0753  0.1444
12856W        W26270  15.916  10.689   0.884 -0.2024  0.1259  0.0620
12857W        W26271  15.898   7.967   0.881 -0.2760  0.0854 -0.0230
12858W        W26272   3.186   5.918   4.521 -0.2496  0.0968  0.2518
12859W        W26273  14.088  18.014  10.928 -0.0121 -0.0469  0.2462
12860W        W26274   2.252   6.555   3.494 -0.5028 -0.0109 -0.1600
12861W        W26275  17.314   1.450   1.149  0.2072  0.0631 -0.0559
12862W        W26276  13.466   2.883   0.792 -0.0326 -0.3341 -0.0615
12863W        W26277  13.480  13.840   2.011  0.0864  0.0759  0.1151
12864W        W26278   0.263   8.039   1.949 -0.2069 -0.2293 -0.2294
12865W        W26279  12.581   6.900  15.242 -0.1332 -0.1014 -0.0402
12866W        W26280  10.911   7.294   4.133  0.1163  0.0468 -0.3444
12867W        W26281  17.385   7.955  13.534  0.0447 -0.0396 -0.1570
12868W        W26282   3.120  12.411   0.346  0.2084  0.0984  0.0189
12869W        W26283   8.599   5.450   1.712 -0.1195 -0.0528 -0.1723
12870W        W26284   9.054   1.373  15.083  0.2126 -0.1872 -0.1107
12871W        W26285   4.705   2.733  15.635  0.0637 -0.2397 -0.0725
12872W        W26286   9.303  11.694   0.264 -0.2699  0.1388 -0.0797
12873W        W26287   3.362  11.413  12.682  0.0270 -0.2435 -0.1486
12874W        W26288   5.120   3.027  14.814  0.2182 -0.2614 -0.2034
12875W        W26289   3.346  17.809   0.481  0.3561  0.0673  0.2100
12876W        W26290   6.235   8.252  11.518  0.1341  0.0444  0.0931
12877W        W26291  13.612  18.220  10.699  0.2900 -0.1462  0.2450
12878W        W26292   4.436  13.919  14.954 -0.2094  0.1894  0.0409
12879W        W26293   7.583   3.617   3.882 -0.1152  0.1926 -0.0532
12880W        W26294  12.024   1.877   1.484  0.2854 -0.3289  0.0165
12881W        W26295   3.785  17.701   4.691  0.0649 -0.0997 -0.3254
12882W        W26296   4.557   3.838  14.021 -0.0126 -0.0972 -0.1562
12883W        W26297   1.533   1.680   1.483 -0.0355  0.2098 -0.0256
12884W        W26298   6.337   2.822   0.083  0.0325  0.0047 -0.1622
12885W        W26299   7.397   3.721  15.359  0.1098 -0.1095 -0.0135
12886W        W26300   9.898  14.619   2.563  0.1817 -0.1243  0.2058
12887W        W26301   7.190  18.447   3.820  0.0488 -0.1238 -0.0982
12888W        W26302   8.202   2.975   5.258 -0.3495  0.0203  0.0791
12889W        W26303   3.601  16.590   0.808 -0.2628 -0.0619 -0.3388
12890W        W26304   8.994  17.716  13.426 -0.0091  0.2454  0.2065
12891W        W26305  12.419  13.540  12.963  0.0023  0.0061 -0.2120
12892W        W26306   6.912  13.756   1.939  0.1656  0.0793 -0.0555
12893W        W26307   8.291   2.857   4.259 -0.0599  0.0655 -0.0692
12894W        W26308   1.123   7.579   5.850 -0.3035 -0.1040 -0.0218
12895W        W26309   0.831   4.727   4.793 -0.0141  0.1638 -0.2550
12896W        W26310  10.374   3.680   5.688 -0.0864 -0.2057  0.1560
12897W        W26311   8.147   5.628   2.836 -0.4896  0.0057 -0.1323
12898W        W26312  11.252   1.410  12.886  0.0112  0.1570 -0.0744
12899W        W26313   4.248  17.222   3.191  0.3609  0.2293  0.0115
12900W        W26314  14.528   8.027   6.023 -0.4554 -0.0729 -0.1289
12901W        W26315   9.173   2.558  14.165 -0.2132  0.1145 -0.2682
12902W        W26316   9.022   8.940   2.824  0.0670 -0.2926 -0.1285
12903W        W26317  17.168  11.966   1.615  0.0659  0.0557 -0.0400
12904W        W26318   7.429  16.625   5.264 -0.2071 -0.3793 -0.0057
12905W        W26319   7.076   4.067  14.068 -0.3019  0.5259  0.1908
12906W        W26320   0.993   4.231   2.933 -0.2285 -0.0683  0.1107
12907W        W26321  12.011  13.494   5.750  0.2415 -0.0442  0.1501
12908W        W26322   5.185   8.062  12.614  0.2006 -0.1439 -0.2126
12909W        W26323  14.930   2.506   5.814  0.0154 -0.0819 -0.1022
12910W        W26324  14.101  11.283   0.012  0.1694 -0.1385  0.1669
12911W        W26325   4.987   5.441  12.622 -0.1539 -0.0835  0.0742
12912W        W26326  13.612   4.339   1.906 -0.0304 -0.0757  0.0425
12913W        W26327  11.334   4.621  12.173 -0.0439 -0.1944 -0.0183
12914W        W26328  11.580  14.983  15.358  0.1770  0.1792 -0.0539
12915W        W26329  18.221   5.663  11.313  0.2927 -0.2315  0.1641
12916W        W26330  10.128  14.709   0.845  0.3977  0.2254 -0.0057
12917W        W26331   8.511   6.593   2.272  0.0474 -0.0954  0.1300
12918W        W26332  12.208  16.981   4.407  0.1320  0.2023  0.2089
12919W        W26333  14.991  13.450   6.369 -0.2119 -0.3591 -0.1233
12920W        W26334   4.389   1.669   4.391 -0.1875 -0.0208  0.2913
12921W        W26335   7.650  11.414   4.344  0.0681 -0.1205  0.1863
12922W        W26336  17.615  11.731  11.828 -0.1166  0.0703  0.0148
12923W        W26337  14.506   4.797  11.910 -0.1203 -0.3053 -0.1155
12924W        W26338  13.098   9.068  14.029 -0.2133  0.2383 -0.2136
12925W        W26339   1.891   1.241  15.670 -0.1491 -0.0574 -0.0453
12926W        W26340   3.431   2.166  12.155  0.2818 -0.0270 -0.1716
12927W        W26341   2.850  16.128   3.196  0.0141  0.0925 -0.1173
12928W        W26342  10.397   3.583   3.371  0.1805  0.0722  0.1223
12929W        W26343  12.371   0.032   2.668  0.0366 -0.0711 -0.1397
12930W        W26344  14.065   7.736   4.330  0.0920  0.0905  0.2581
12931W        W26345  15.494   3.813  13.579 -0.3687 -0.0499 -0.3513
12932W        W26346  15.536   9.995   0.348 -0.0974  0.1639 -0.3158
12933W        W26347  17.529  15.209   5.051 -0.2811  0.0325  0.2759
12934W        W26348   1.135  10.679   0.991  0.3235  0.1393  0.1347
12935W        W26349   5.391  15.541  13.839 -0.0046 -0.0450 -0.2087
12936W        W26350  10.839   2.969   4.975 -0.1053 -0.2014  0.0655
12937W        W26351   5.793  14.171  11.856 -0.2214 -0.0317  0.1577
12938W        W26352   2.301   5.343  12.397  0.0505  0.0757 -0.0670
12939W        W26353  14.323   0.062  14.264 -0.1575 -0.0424  0.2526
12940W        W26354  17.839  10.375   3.709 -0.1585 -0.1558 -0.1913
12941W        W26355  16.579   3.919  11.722 -0.4163  0.1944  0.1547
12942W        W26356  14.600   3.372   2.340  0.0887  0.4229  0.1368
12943W        W26357   2.558  13.338  15.160 -0.0340  0.0360 -0.2451
12944W        W26358  11.937   1.751  10.732 -0.0052 -0.0804  0.4122
12945W        W26359   8.966  13.784  11.483 -0.3250 -0.1766 -0.3629
12946W        W26360   1.482  10.193  15.672 -0.1211  0.0695  0.3644
12947W        W26361   0.304   9.157   5.302 -0.0339 -0.0930  0.4338
12948W        W26362  16.699   4.227  11.271 -0.1719 -0.0582 -0.2489
12949W        W26363  11.583   1.852  12.042 -0.0237 -0.1010 -0.3691
12950W        W26364  10.143  13.375   2.600 -0.0988 -0.0207  0.1975
12951W        W26365   1.339  18.187   2.601  0.1106 -0.2026 -0.0841
12952W        W26366   7.369   2.137  12.295  0.3277 -0.0864 -0.1845
12953W        W26367   5.879  11.133  13.651 -0.0186  0.1916 -0.1046
12954W        W26368   4.252  11.695   3.337  0.1608 -0.0619  0.0735
12955W        W26369   0.211  11.654  13.884 -0.0512 -0.2536  0.0693
12956W        W26370  14.023  10.749  15.672  0.1882  0.3328  0.2022
12957W        W26371  13.939  14.942  13.287  0.0254 -0.2733 -0.2453
12958W        W26372  13.159   1.431  10.406 -0.1196 -0.0348 -0.1483
12959W        W26373   5.631  18.086  14.522 -0.0106  0.1192 -0.0760
12960W        W26374   5.718   3.006  12.592  0.2083 -0.0023  0.0486
12961W        W26375  10.267   8.020   4.219  0.2123  0.0703  0.0631
12962W        W26376   0.150  10.971   3.225 -0.1803  0.1902 -0.1712
12963W        W26377   8.824  13.347   1.713  0.2613  0.0021  0.1420
12964W        W26378   9.674  15.983   5.085  0.1258 -0.0014  0.2619
12965W        W26379   1.593  11.198  11.430  0.0706  0.2203 -0.2983
12966W        W26380   7.863  11.355  10.606  0.0390 -0.0697  0.4855
12967W        W26381   7.991   7.079   5.763 -0.1972  0.1507  0.1032
12968W        W26382   2.099   4.456   5.311  0.0028 -0.1458  0.1784
12969W        W26383   0.212  17.835   2.905 -0.2414 -0.0275  0.2101
12970W        W26384  17.036   7.721   4.156  0.0836 -0.0762  0.1457
12971W        W26385   6.679   6.740  11.088  0.0818  0.2623  0.1756
12972W        W26386   6.439   9.562  15.630  0.0566  0.1476 -0.1043
12973W        W26387  11.079  17.244   1.596 -0.0496 -0.0215  0.3129
12974W        W26388   6.987   7.189  15.652  0.1031 -0.0163  0.1113
12975W        W26389   5.687   7.907   4.721 -0.0356 -0.1983  0.0794
12976W        W26390  11.132   6.277  11.501  0.1934 -0.0533 -0.0374
12977W        W26391   9.719   8.800  14.808  0.0427 -0.2775 -0.0583
12978W        W26392   1.672   0.774   6.488  0.0982 -0.2536  0.0099
12979W        W26393  10.636  17.078   5.466  0.4223  0.0175 -0.0843
12980W        W26394   8.398   2.487  12.061 -0.3306 -0.0062 -0.1848
12981W        W26395   2.968   7.071  15.835  0.2226  0.0328  0.0033
12982W        W26396   4.890   3.445  10.139 -0.1157  0.0008  0.2838
12983W        W26397   0.478  13.973   1.819 -0.1457  0.0275  0.0267
12984W        W26398  17.166  15.335   2.696 -0.1932  0.0383  0.4115
12985W        W26399   2.796   6.269   5.326  0.1896 -0.1572 -0.5256
12986W        W26400   1.702  11.126  13.207  0.2165  0.2696 -0.0004
12987W        W26401   7.092  17.848  10.673 -0.1168 -0.0025  0.3159
12988W        W26402  14.253  11.675  12.815 -0.4067  0.0995 -0.1181
12989W        W26403  16.578   1.706   6.290 -0.1747  0.0388 -0.1217
12990W        W26404   3.819   8.589   3.540 -0.2549  0.0257 -0.1005
12991W        W26405  12.815  11.084   2.377 -0.0323  0.0142 -0.0310
12992W        W26406   3.298  13.028  14.101  0.1866  0.2801  0.0808
12993W        W26407  11.457   7.299   5.374  0.2035  0.0527 -0.2752
12994W        W26408   6.394   5.696   5.764  0.2472 -0.0931 -0.0821
12995W        W26409   6.777  13.757  15.407  0.0430 -0.0088  0.0412
12996W        W26410   9.024  16.975  13.362 -0.2538 -0.0657 -0.2747
12997W        W26411   4.785   5.577  14.167 -0.1969  0.2300  0.2489
12998W        W26412   0.976  12.787   1.313  0.0090  0.1047  0.0541
12999W        W26413   4.523   8.367   4.588 -0.4178  0.0851  0.3265
13000W        W26414  11.019  12.614  15.351  0.0502  0.2017 -0.0045
13001W        W26415  13.011  10.736   2.026  0.2335  0.1953  0.1088
13002W        W26416  13.223   7.955  14.894  0.2431 -0.2862  0.0249
13003W        W26417  14.695   7.624  15.933  0.0639 -0.3884  0.1971
13004W        W26418  16.762   1.432   5.161 -0.2075  0.3308 -0.1675
13005W        W26419   7.403  15.597   3.962 -0.2074 -0.0232  0.2967
13006W        W26420   4.424   5.495  15.573 -0.1566 -0.1442 -0.1908
13007W        W26421   3.621  12.062  15.984  0.0703 -0.3975  0.1848
13008W        W26422   3.771   2.450   0.626 -0.0149  0.2526 -0.3395
13009W        W26423   5.995  15.234   2.662 -0.1146 -0.0534  0.0815
13010W        W26424  13.004   5.623  15.282 -0.0713  0.0264  0.1022
13011W        W26425   7.277  14.313   4.093 -0.3573 -0.1041  0.1238
13012W        W26426  12.948  13.442  15.208  0.2595 -0.0475 -0.2968
13013W        W26427   8.932  16.427  11.379  0.2921 -0.2880  0.3776
13014W        W26428  11.379   1.429   3.717  0.2603 -0.1233  0.2300
13015W        W26429   6.977  18.099   4.811  0.1950  0.1144  0.0067
13016W        W26430   6.775   2.034   4.292  0.0305 -0.1546  0.0066
13017W        W26431  18.316  16.910  10.148 -0.1265  0.2715  0.0290
13018W        W26432  12.544  10.344  14.735 -0.0435 -0.1547 -0.3448
13019W        W26433  12.829   9.346  15.132  0.1599 -0.1765  0.0294
13020W        W26434   6.939   2.349  13.630  0.1519  0.0004 -0.1874
13021W        W26435   6.851  16.007  13.403 -0.1193  0.1049  0.0780
13022W        W26436   7.575   5.897  12.424 -0.0378  0.2518 -0.1824
13023W        W26437  12.020  17.345   3.675 -0.1365 -0.1726 -0.0066
13024W        W26438  12.248   6.421   6.011  0.7158  0.0023  0.2033
13025W        W26439   1.062   0.211  12.200  0.0095 -0.2722 -0.2699
13026W        W26440   9.960   6.971  11.160 -0.1190 -0.2411 -0.1823
13027W        W26441  16.733  11.478   0.341 -0.0725 -0.0898 -0.0888
13028W        W26442  17.782   0.723   5.436 -0.1160 -0.2124  0.1043
13029W        W26443   6.134   9.643   5.511 -0.1460  0.3141  0.2942
13030W        W26444   2.059  14.605  14.602 -0.3496  0.1922  0.1286
13031W        W26445  14.384  10.965  11.958  0.0141 -0.1233 -0.0255
13032W        W26446   5.899  17.552  16.226 -0.1483  0.2910  0.1020
13033W        W26447   1.982   8.766   3.894 -0.2906 -0.0565 -0.2163
13034W        W26448   4.859   6.760  15.043  0.3151 -0.0419  0.1447
13035W        W26449  14.033   4.545   2.797  0.2059  0.1710 -0.0702
13036W        W26450   0.221   8.745   6.067 -0.2951 -0.0138  0.1453
13037W        W26451  17.637   1.981   1.549 -0.3602  0.3827 -0.3125
13038W        W26452   6.640  14.158   1.814  0.4334 -0.0138 -0.0460
13039W        W26453   3.530   6.174  14.067 -0.1067 -0.2371  0.1358
13040W        W26454   0.172  13.344   1.898  0.0496 -0.0383 -0.1330
13041W        W26455  15.544   3.766   5.776 -0.0040  0.2208 -0.0390
13042W        W26456   9.673   3.871  15.968 -0.1639  0.0706  0.3341
13043W        W26457   2.826   5.445   2.059  0.0624 -0.3507  0.0013
13044W        W26458  15.699  11.741  12.752  0.0566  0.1886  0.2862
13045W        W26459   0.599   8.674   2.195  0.1362  0.2194 -0.0651
13046W        W26460   6.112   6.095  12.548  0.1207 -0.0218  0.0508
13047W        W26461  14.503   5.833  14.435 -0.2681  0.0482 -0.0641
13048W        W26462   2.784   4.421   0.567 -0.0658  0.0726  0.0478
13049W        W26463   2.424   7.517  14.603  0.0413  0.0271 -0.3006
13050W        W26464   5.005   9.072  15.741 -0.1839 -0.2527 -0.0142
13051W        W26465  17.288  10.470   5.024 -0.0698  0.0644 -0.0841
13052W        W26466  10.937  12.478   5.329  0.1073 -0.2824  0.1480
13053W        W26467  11.983   8.363   4.480  0.0281  0.2002  0.0168
13054W        W26468   6.040   7.360   1.101  0.0501 -0.3449  0.0490
13055W        W26469   2.529  10.277   5.832  0.1970  0.1943 -0.1717
13056W        W26470   3.010  15.580   3.068  0.0600  0.0838  0.2247
13057W        W26471  10.808  16.083   0.857  0.1377  0.0733 -0.1366
13058W        W26472   4.048  16.304   1.694  0.0503 -0.0470  0.0317
13059W        W26473   3.907  11.961   0.397  0.1588 -0.1754 -0.1500
13060W        W26474  14.381  13.910   3.614 -0.1085  0.0707 -0.0436
13061W        W26475  16.997   4.091   3.866 -0.2558  0.1678  0.0881
13062W        W26476   1.798   4.692  10.173 -0.3348 -0.0379 -0.1756
13063W        W26477   4.293   9.029   5.712  0.0973  0.2815 -0.2258
13064W        W26478  10.191  16.150  16.153 -0.0053  0.1453  0.0707
13065W        W26479  12.774   2.850  10.447  0.1690 -0.2536 -0.1664
13066W        W26480  12.160  11.649  15.348  0.3879  0.2623  0.2588
13067W        W26481   4.070   7.102   1.936 -0.0094 -0.0752 -0.1167
13068W        W26482  13.403   5.032   4.949 -0.2164  0.2248 -0.4079
13069W        W26483   4.339  17.946  11.052 -0.2077  0.0481 -0.0328
13070W        W26484   7.064   3.040  15.234  0.1401 -0.3246 -0.0556
13071W        W26485   0.697  17.630  11.471 -0.0821 -0.0034 -0.1695
13072W        W26486   2.581  13.705  14.809 -0.0905 -0.0456  0.0902
13073W        W26487   1.345  17.516  10.889 -0.2449  0.4609  0.1089
13074W        W26488  10.147  16.894  14.585  0.0876 -0.0510 -0.3674
13075W        W26489   3.946  10.209  14.350 -0.1125  0.1076  0.0696
13076W        W26490   5.456   8.824  12.300  0.1058  0.2864 -0.4135
13077W        W26491  10.429   7.414   4.599  0.1315 -0.0849 -0.1966
13078W        W26492   8.190   0.332   2.400  0.1149 -0.2217 -0.0859
13079W        W26493   5.887   9.429   1.838 -0.4566  0.1623  0.2899
13080W        W26494   4.156   5.629  11.710  0.1226 -0.0963  0.2777
13081W        W26495  15.704  18.278   5.117  0.1865  0.2669 -0.1600
13082W        W26496   3.913  18.066  12.480  0.0082 -0.0808 -0.0888
13083W        W26497   5.183  17.847  12.545 -0.2837  0.1627 -0.3480
13084W        W26498   5.661   1.523  10.926  0.0738 -0.1325 -0.0440
13085W        W26499  10.865  11.669   5.001 -0.0133 -0.0340  0.0627
13086W        W26500  17.005  10.859  16.159  0.1493  0.0493 -0.0532
13087W        W26501   7.419   8.980   5.135  0.2503 -0.0485  0.0170
13088W        W26502   8.064   5.794   0.071  0.0876  0.1082  0.0041
13089W        W26503  14.970  15.889  13.133 -0.0914 -0.0084  0.0431
13090W        W26504   7.615  11.910  13.861  0.0903  0.0624  0.0735
13091W        W26505   8.592  17.934   1.568  0.1001 -0.0111 -0.0375
13092W        W26506  17.454  15.105  14.137  0.1889  0.0092 -0.4404
13093W        W26507  10.835   2.656  13.665  0.0521  0.3916  0.0003
13094W        W26508  18.030  14.455   0.797  0.3821 -0.1735 -0.0214
13095W        W26509   5.924   0.421   3.887  0.0151  0.0389 -0.0167
13096W        W26510   8.733  18.436  11.135  0.1422 -0.0631  0.0476
13097W        W26511  10.444   9.992   5.505  0.1935  0.0306 -0.0952
13098W        W26512  14.478   8.849  14.809  0.2045  0.2194 -0.0162
13099W        W26513   9.013  11.861   2.249  0.0776 -0.0236 -0.3237
13100W        W26514   4.959  16.563  11.385 -0.4633 -0.0828 -0.3981
13101W        W26515   9.826   7.860   3.409  0.2892 -0.0395 -0.3543
13102W        W26516  10.207   4.173   4.169 -0.0740  0.4350  0.4169
13103W        W26517   4.137  11.460   0.386 -0.2229  0.0461 -0.1586
13104W        W26518  12.162   3.494  10.389 -0.1917  0.0224 -0.0724
13105W        W26519  18.220  18.139  15.803 -0.0596  0.0662  0.1415
13106W        W26520   8.746  12.858   2.409  0.0225  0.0454  0.0826
13107W        W26521  10.127  18.441   9.693  0.1086 -0.0529  0.0258
13108W        W26522  11.181  17.021  11.928  0.0779 -0.2606 -0.1252
13109W        W26523   0.720   6.347   5.586  0.2887 -0.1410  0.1431
13110W        W26524   8.175   6.195   0.999 -0.0223 -0.0809  0.2162
13111W        W26525   6.813  11.802  12.636  0.1343  0.1848 -0.1287
13112W        W26526   5.787  13.025   1.620  0.0058  0.1031  0.1258
13113W        W26527  10.000   3.577  12.918  0.0382 -0.0585  0.0517
13114W        W26528   3.697  12.444   0.607  0.0489 -0.0425 -0.0219
13115W        W26529  15.977  14.932   5.050  0.1391  0.1894  0.3085
13116W        W26530   6.437   8.567   0.781  0.0490  0.2144  0.4234
13117W        W26531   8.359  13.497   4.586 -0.0209 -0.1736  0.1329
13118W        W26532  10.576   0.995   2.337 -0.0248  0.0652  0.1069
13119W        W26533   4.682  18.104  14.200  0.3020 -0.2338 -0.2864
13120W        W26534   7.973   7.522   4.223  0.0567  0.0358  0.3872
13121W        W26535  16.835  16.505   3.281 -0.0476 -0.0455  0.0374
13122W        W26536   4.606  16.597  13.052  0.0327  0.0442  0.1804
13123W        W26537   0.074   7.000  11.506  0.2418  0.1392 -0.2740
13124W        W26538   0.786  17.950   5.766  0.3647  0.0375 -0.1300
13125W        W26539  10.343   3.186  16.237 -0.0922  0.1976 -0.0120
13126W        W26540  12.856   3.121  14.190  0.1362 -0.2254  0.0409
13127W        W26541   9.301   4.344   4.772 -0.1414  0.1860 -0.0446
13128W        W26542  11.972  15.477   2.796 -0.0188 -0.1789 -0.1079
13129W        W26543   9.956  15.328   2.974  0.0301  0.0258  0.2110
13130W        W26544   4.763  11.706  12.425  0.0837  0.3659  0.1173
13131W        W26545  12.580   2.371  10.727 -0.0439 -0.0464  0.1094
13132W        W26546   4.786   6.883   3.111 -0.1353 -0.1385  0.1881
13133W        W26547   6.952   3.814  16.206 -0.0776  0.3536 -0.1214
13134W        W26548  17.500  12.432   2.685 -0.1041 -0.0850  0.0407
13135W        W26549  12.609   5.119  14.770 -0.0591 -0.1744 -0.1473
13136W        W26550  14.226   8.001  12.444 -0.0730  0.1106  0.0506
13137W        W26551   8.496  16.505   3.952  0.0161  0.1267  0.0855
13138W        W26552   6.260  17.967  15.986 -0.0649  0.0747  0.1830
13139W        W26553   9.693  17.175  14.599 -0.2687  0.0928  0.0755
13140W        W26554  14.656   3.749  11.028  0.0992  0.1268 -0.0648
13141W        W26555   7.883   1.766  12.980  0.1343 -0.1571  0.0710
13142W        W26556  11.141   2.381   4.569 -0.1250  0.2742 -0.0571
13143W        W26557   3.606   2.213  10.820 -0.3293  0.2196  0.0966
13144W        W26558   7.821   7.308   3.424 -0.2994  0.1281  0.1112
13145W        W26559  16.826  15.051   1.985  0.1782  0.0371 -0.1001
13146W        W26560  15.141   2.528  13.768 -0.2718  0.0968 -0.1911
13147W        W26561   1.204   2.433   1.016  0.2756 -0.1276  0.0786
13148W        W26562   0.034  12.585  10.985  0.0135  0.1148  0.0536
13149W        W26563  16.137  16.075   5.140 -0.0070 -0.2967  0.0573
13150W        W26564   8.619  12.990   0.256  0.0082 -0.1296 -0.2203
13151W        W26565   8.930  12.610  10.943  0.3129  0.1131  0.2438
13152W        W26566  11.158  10.294   2.405 -0.0443  0.1962  0.1544
13153W        W26567  16.053  18.324   2.050  0.0523  0.3255  0.3017
13154W        W26568   1.745   5.218   3.328 -0.1133  0.0280 -0.1749
13155W        W26569   6.879  17.986   5.334 -0.1718 -0.1049  0.1754
13156W        W26570  16.126  15.637  11.438  0.1604  0.0541  0.2204
13157W        W26571  14.325  14.983  14.283  0.3129  0.2056  0.2121
13158W        W26572   7.781  10.013   4.881 -0.2030 -0.0368 -0.1043
13159W        W26573   3.111  10.313   3.013 -0.0337  0.1176 -0.1511
13160W        W26574  12.585   7.213   2.183 -0.0064 -0.1251  0.1184
13161W        W26575   1.528  17.870   2.901  0.1776  0.1054  0.0028
13162W        W26576   3.765   4.598   5.687  0.0076 -0.3252  0.0083
13163W        W26577  16.534  17.599   2.871  0.2175  0.0708 -0.2099
13164W        W26578  14.199   1.236  11.843 -0.2723 -0.0552 -0.0834
13165W        W26579   7.801  17.951   2.166  0.0176  0.0450 -0.1250
13166W        W26580  14.191   0.385   0.418 -0.2302  0.0664  0.0821
13167W        W26581   3.655   6.861  15.328 -0.3242 -0.0384 -0.1254
13168W        W26582   4.430   7.096   4.666  0.1442  0.0894  0.2366
13169W        W26583  13.985   0.115   4.681  0.1627 -0.1978 -0.1123
13170W        W26584   6.690   9.203   2.866 -0.0019 -0.0618  0.0303
13171W        W26585  12.533   4.632   2.750 -0.0696  0.3003  0.0917
13172W        W26586  16.803   4.094   3.411  0.0926 -0.0750 -0.3666
13173W        W26587   5.714   3.541   4.487 -0.0015 -0.0071  0.2959
13174W        W26588  18.285  12.277   0.410  0.0714 -0.0243 -0.0952
13175W        W26589  14.060  17.485  12.830  0.3646 -0.1629  0.2460
13176W        W26590  11.034   5.531   1.010  0.1128  0.2407 -0.3345
13177W        W26591  11.234  15.917   5.714 -0.1286  0.3388  0.1958
13178W        W26592   5.305  14.562   2.427  0.2405  0.4549  0.1818
13179W        W26593   5.678  13.567   4.467  0.1444 -0.0882 -0.0265
13180W        W26594   8.459   4.805  16.162 -0.0394  0.0663  0.0638
13181W        W26595  11.948   0.995  15.909  0.3063  0.2077  0.3812
13182W        W26596   3.815  16.765   1.889  0.2769 -0.2410 -0.0476
13183W        W26597  10.533  18.261   2.044  0.2420  0.0209  0.0549
13184W        W26598   6.542  14.343  11.970 -0.0247  0.2100  0.0138
13185W        W26599   9.625  10.424  12.833  0.0281  0.1296  0.0666
13186W        W26600   9.305  17.434   1.933  0.1724 -0.0762  0.0091
13187W        W26601   4.648  16.877  15.747 -0.0167  0.3048  0.0997
13188W        W26602  16.773   4.479  12.348  0.0465  0.1279 -0.0854
13189W        W26603   9.190  17.962   4.533 -0.0560  0.1659  0.2997
13190W        W26604   7.118  16.501   0.414 -0.2019  0.4302  0.1800
13191W        W26605   2.255   9.233   3.556 -0.0745 -0.0812  0.1476
13192W        W26606   8.507  18.235   3.361  0.0876 -0.0516  0.0051
13193W        W26607   3.335   3.346   1.689  0.0284  0.0408  0.5249
13194W        W26608  16.119   6.082   4.837  0.0624 -0.0304  0.0643
13195W        W26609   3.678  11.409   0.609  0.1826 -0.1128 -0.0234
13196W        W26610  12.772   1.579  10.854 -0.0285 -0.1091  0.0026
13197W        W26611   5.296  15.432   5.052  0.1143 -0.1786  0.1339
13198W        W26612  11.444  16.258   4.560 -0.0381  0.3061 -0.1776
13199W        W26613  13.247  12.229  12.167  0.0479 -0.0795 -0.2977
13200W        W26614  15.341   1.091   3.502  0.1549  0.0089 -0.3245
13201W        W26615  13.880   1.813   5.442 -0.2031  0.0650 -0.2712
13202W        W26616   0.689   8.506   3.084 -0.1915  0.1260 -0.0892
13203W        W26617   6.148  18.018  12.053  0.3500  0.1396  0.0044
13204W        W26618  10.907  13.445  10.484  0.0406  0.0602  0.0053
13205W        W26619  14.793   7.861   3.084  0.1817  0.2322  0.0095
13206W        W26620  11.239   8.603   4.096 -0.1665  0.2463  0.3896
13207W        W26621   8.006  10.447  14.332 -0.0177 -0.0046  0.2890
13208W        W26622   9.921   7.469  14.969  0.0390  0.0705  0.0697
13209W        W26623  11.576   9.333   1.603  0.1253 -0.1560  0.1579
13210W        W26624   7.759  16.699   3.280 -0.0439  0.3334 -0.0227
13211W        W26625  14.234   9.004   5.024 -0.1016  0.3614  0.2598
13212W        W26626   1.616  11.588  13.360 -0.0903  0.0542 -0.0676
13213W        W26627  10.510  10.139  15.877  0.0665 -0.1784 -0.0137
13214W        W26628   0.695   4.252   5.008  0.2896  0.0777 -0.0134
13215W        W26629   6.870  16.677  11.230  0.0668 -0.0777  0.1526
13216W        W26630   9.910  13.374   4.528 -0.0228  0.2411 -0.1025
13217W        W26631  18.275  15.117  11.967 -0.3884 -0.1389  0.1401
13218W        W26632  11.147   3.123  14.221 -0.1289 -0.0282 -0.1251
13219W        W26633   3.729   8.669   1.476 -0.2236 -0.0115 -0.1162
13220W        W26634  17.470  11.254  10.886 -0.1491  0.1223  0.1592
13221W        W26635  17.781  16.930   0.184 -0.0023  0.0162 -0.1204
13222W        W26636   1.004   9.562  15.316 -0.2887 -0.4130 -0.2811
13223W        W26637  16.483   5.835  13.149 -0.2950 -0.1276  0.1084
13224W        W26638  10.531   1.839   5.334  0.2038 -0.1364 -0.1270
13225W        W26639   6.410  11.659  10.553 -0.1090  0.0826  0.0139
13226W        W26640   1.329  15.977  14.472  0.1309 -0.1360 -0.0950
13227W        W26641   4.929   7.087  15.611 -0.1143  0.1276  0.2474
13228W        W26642   2.978  15.880   1.063 -0.2465 -0.0717 -0.1973
13229W        W26643  13.204   1.473   5.205  0.0723 -0.2598  0.2390
13230W        W26644  17.017   7.261   1.843 -0.0223  0.0328  0.2009
13231W        W26645   8.306  16.297  16.024 -0.0218 -0.0988  0.0679
13232W        W26646  10.896   0.536  12.212 -0.0470  0.2782  0.2130
13233W        W26647   2.333  13.610   2.423  0.3463  0.3035  0.0509
13234W        W26648   4.449   7.824  12.357 -0.2943  0.2840  0.1277
13235W        W26649   7.760   5.788   4.654  0.1418  0.1283 -0.0084
13236W        W26650   7.067   5.452  11.735 -0.2982 -0.1771 -0.3342
13237W        W26651  16.312  13.832  14.781 -0.0667 -0.0647  0.0218
13238W        W26652   6.007  18.292   5.795 -0.2184 -0.2635 -0.0545
13239W        W26653   5.095   0.302  15.522  0.1113 -0.1038 -0.3292
13240W        W26654  17.562   3.693   1.337 -0.1449 -0.2644 -0.0562
13241W        W26655  11.168  13.037  11.561 -0.2557 -0.1511  0.2987
13242W        W26656  14.396  11.962   3.685 -0.1757  0.0436 -0.0222
13243W        W26657  13.898   3.687   0.603  0.0824  0.0006  0.1465
13244W        W26658  12.771   9.592  11.087 -0.0802 -0.0060 -0.0789
13245W        W26659  10.304  18.388  15.948  0.2930  0.0929 -0.2423
13246W        W26660   2.412   2.954  13.092 -0.3169 -0.0171  0.0047
13247W        W26661   0.268   4.225  15.011 -0.1212  0.3181 -0.3103
13248W        W26662  12.712   0.973  14.769  0.0212  0.2547 -0.4942
13249W        W26663  16.162  10.300  15.118 -0.0102 -0.1282  0.1118
13250W        W26664  16.339   8.283   4.982 -0.0003  0.2583  0.3355
13251W        W26665   6.315   8.551   3.783 -0.0339  0.0330  0.1197
13252W        W26666  10.348   9.664  11.340  0.0290 -0.2585  0.1888
13253W        W26667  11.963  13.063   2.769  0.2717 -0.1607  0.1689
13254W        W26668   4.038  14.027  14.674 -0.1614 -0.0222  0.4764
13255W        W26669   3.051  15.991   4.818  0.0443 -0.4685 -0.1701
13256W        W26670  16.060  18.290   4.721 -0.0940 -0.1170  0.0331
13257W        W26671  14.113   8.906  12.007  0.1695  0.1145  0.1852
13258W        W26672   1.652  17.961   1.260 -0.0380 -0.0266 -0.2082
13259W        W26673  11.904  10.645  15.410 -0.1412  0.1881  0.0604
13260W        W26674  12.947  13.154  14.730  0.0125  0.3152 -0.1903
13261W        W26675   8.016   8.136   1.086  0.0018  0.0031  0.0317
13262W        W26676  15.195   5.672  11.616  0.1244 -0.3381 -0.1761
13263W        W26677   8.073   4.711  12.597  0.2399 -0.4729 -0.2227
13264W        W26678  11.188  11.421  14.041 -0.2868  0.1227  0.2274
13265W        W26679   3.078   9.317   3.167  0.3088  0.1936 -0.0004
13266W        W26680  12.150  15.534  10.427  0.2211 -0.1788 -0.0495
13267W        W26681  13.464   4.257   1.291  0.3313  0.0095  0.0204
13268W        W26682  17.463  14.829   2.841  0.0536  0.1892 -0.2707
13269W        W26683   4.749  16.109   5.676 -0.3172 -0.0414 -0.1378
13270W        W26684   5.014  16.410  14.844 -0.1277 -0.1368 -0.1073
13271W        W26685  16.492   3.523   0.553  0.1367  0.0240 -0.2378
13272W        W26686   4.047  10.807   3.014 -0.0592  0.0024  0.0017
13273W        W26687   3.756  11.757  12.575 -0.0897 -0.1404 -0.0395
13274W        W26688  13.070   3.107   3.469 -0.2984  0.1709  0.2465
13275W        W26689   9.576   7.168  13.305 -0.2895  0.0358  0.0830
13276W        W26690   8.525  16.267  13.961  0.1165 -0.0358  0.2152
13277W        W26691   7.751   8.491  10.527 -0.1757  0.0281  0.0276
13278W        W26692  14.879  14.401  12.240  0.2054  0.2172 -0.2764
13279W        W26693  11.624  16.686   2.460  0.1792 -0.0377  0.0223
13280W        W26694   5.824   2.974  11.631 -0.0126 -0.1348  0.0274
13281W        W26695  10.233  11.299   3.736  0.2285 -0.0555 -0.2694
13282W        W26696   6.789  15.946   5.449 -0.0690 -0.0012 -0.0086
13283W        W26697   5.169   8.018   5.868 -0.1683 -0.1613  0.0677
13284W        W26698   9.244   5.133  15.985  0.1821  0.4391 -0.2983
13285W        W26699   1.161   4.117  16.130 -0.0591  0.2556 -0.0670
13286W        W26700  14.725   2.779   5.335  0.0353  0.1164  0.1195
13287W        W26701  15.670   6.661   3.596  0.3084  0.1699  0.2467
13288W        W26702   3.670   3.116  14.013 -0.0195 -0.1077 -0.1485
13289W        W26703  11.858   6.070   3.803  0.1223  0.0078 -0.0966
13290W        W26704   4.399  12.732  11.970  0.4338  0.0592  0.1059
13291W        W26705  13.396  13.260   5.733 -0.0625  0.1332 -0.0068
13292W        W26706  16.394  13.298   0.939  0.1798 -0.2365 -0.1372
13293W        W26707   9.957  10.673   5.252 -0.0551 -0.0072  0.1082
13294W        W26708   4.510  10.694  10.244  0.1425 -0.1319 -0.2271
13295W        W26709  13.378   7.940  13.041  0.1075  0.2860  0.1351
13296W        W26710   4.455  16.193  15.652 -0.2073 -0.0042 -0.1429
13297W        W26711  12.520  13.682   2.236  0.2063  0.0922  0.0518
13298W        W26712   4.235   9.661   1.610  0.0354 -0.0570 -0.0156
13299W        W26713   1.362  10.488  11.402 -0.0245 -0.0211  0.2807
13300W        W26714   8.057   4.794  15.809  0.2013  0.0830  0.1779
13301W        W26715  15.370  18.376   9.741 -0.0883 -0.1751  0.0644
13302W        W26716  15.404  14.787   4.104  0.2884  0.0686  0.1673
13303W        W26717  16.002   6.788  11.278 -0.1955 -0.2285 -0.2933
13304W        W26718   5.855  12.395  12.230  0.0517 -0.1139 -0.0158
13305W        W26719  12.480  16.280   0.670  0.1589 -0.5249  0.0203
13306W        W26720  17.240  10.567   1.082  0.0626 -0.0223 -0.2467
13307W        W26721  10.504   5.892  14.102 -0.1187 -0.2876  0.0052
13308W        W26722   4.000   3.256  13.589 -0.1906 -0.0847 -0.1285
13309W        W26723   0.317   6.266  14.513  0.2774 -0.2407  0.0684
13310W        W26724   7.513   5.722  11.531 -0.0365 -0.0012  0.4022
13311W        W26725   3.964  13.631  10.739 -0.1866 -0.0527  0.0208
13312W        W26726   7.361  10.324  14.860  0.1347 -0.1287  0.2068
13313W        W26727   5.663  11.683   1.861  0.2828 -0.2933  0.0218
13314W        W26728   8.944   5.845   1.836 -0.1851 -0.0159 -0.2316
13315W        W26729   9.145   9.832   2.349  0.4209  0.0746  0.4336
13316W        W26730   6.170   0.854  14.157 -0.3379 -0.0178  0.5571
13317W        W26731   9.444   5.819   1.758 -0.0281 -0.0473 -0.3568
13318W        W26732  17.905   5.686  13.564 -0.0357 -0.2107  0.0003
13319W        W26733   5.772  12.926  13.555 -0.5132  0.0364  0.0430
13320W        W26734   0.687   0.406   2.831  0.1613 -0.1731 -0.0443
13321W        W26735   5.363  10.978   2.162 -0.0706  0.1866  0.2836
13322W        W26736   6.715   1.082  14.674 -0.2004 -0.0375  0.2183
13323W        W26737  13.585  10.392   4.048 -0.1825 -0.3706  0.0478
13324W        W26738   3.003  10.299   2.015  0.1888 -0.2265 -0.1630
13325W        W26739   6.492   8.210  12.046 -0.2934 -0.0164  0.2085
13326W        W26740   5.107   7.508  13.321  0.0116 -0.2689  0.0894
13327W        W26741   7.472  11.409  13.760  0.0043 -0.0078  0.2144
13328W        W26742  18.163   9.184   4.155  0.1532 -0.1257 -0.2890
13329W        W26743   3.257   6.798  10.286 -0.2126 -0.1260 -0.0392
13330W        W26744  14.167  10.937   5.202 -0.0835  0.0320 -0.0672
13331W        W26745   2.867   8.988  13.321  0.0949 -0.4237 -0.1115
13332W        W26746   8.431  12.903  11.628 -0.0735 -0.1179 -0.0922
13333W        W26747  18.399  14.671   1.846 -0.0719 -0.2442  0.1532
13334W        W26748   1.705   9.262   2.977  0.0951 -0.0099  0.1083
13335W        W26749   8.830  12.196   1.154 -0.0627  0.2194  0.0489
13336W        W26750  15.490   5.093   2.286 -0.2412 -0.1308  0.0431
13337W        W26751  18.240  17.406   4.694  0.0971 -0.4066 -0.0700
13338W        W26752   9.874   8.765   3.866 -0.1433 -0.0355  0.2278
13339W        W26753   7.904  16.319   1.594  0.0521  0.0097 -0.1858
13340W        W26754   1.396  11.862  14.594 -0.0268  0.0993 -0.2338
13341W        W26755  11.002   2.871   3.359  0.0547 -0.0439  0.1170
13342W        W26756  14.337   3.184   0.231  0.0736  0.1030  0.1641
13343W        W26757  16.974  12.453   0.739  0.4203  0.0695 -0.2252
13344W        W26758  12.004   9.991  15.482  0.1367 -0.2612 -0.1088
13345W        W26759   7.860   5.301  13.742  0.2042  0.0974  0.2225
13346W        W26760   1.006   2.408  10.396  0.2788  0.1969 -0.1076
13347W        W26761   1.974   4.201  15.416  0.0843  0.0655 -0.2201
13348W        W26762   5.228   1.801  14.666 -0.0605 -0.1398  0.1433
13349W        W26763  16.466   3.692   3.691 -0.1782  0.0609 -0.0759
13350W        W26764  16.397   7.364  16.004 -0.3680 -0.4910 -0.2459
13351W        W26765   4.356   3.684  11.315 -0.3789 -0.0869 -0.0937
13352W        W26766  11.578  18.338  14.680 -0.0284  0.1834 -0.1141
13353W        W26767   5.821  18.054   3.027  0.0972 -0.1243  0.0689
13354W        W26768  18.278   4.300   0.812  0.1101 -0.1522 -0.1617
13355W        W26769   6.688  11.580   0.020  0.1114  0.0511 -0.1352
13356W        W26770   1.244  10.971  11.746 -0.1005 -0.2739 -0.2686
13357W        W26771   9.516  17.006   3.060 -0.0503 -0.0840  0.1737
13358W        W26772   3.557  10.558  12.871 -0.1464  0.0176  0.2312
13359W        W26773   8.734   4.006   1.668  0.2499 -0.2505  0.1504
13360W        W26774   8.365   1.610  16.208  0.1916  0.0522 -0.0626
13361W        W26775  12.127   4.423  14.426 -0.2216  0.1497 -0.3499
13362W        W26776   5.571   3.106  10.405  0.0562  0.0328 -0.0757
13363W        W26777  15.993  13.766   4.544  0.2688  0.0139 -0.0107
13364W        W26778  15.927   0.861  13.318  0.1239  0.1120 -0.1954
13365W        W26779   1.973   0.988  13.355  0.2989 -0.0151  0.0654
13366W        W26780  11.284  14.277  10.931  0.2261 -0.0019 -0.1673
13367W        W26781  18.360   5.970  15.513  0.2395  0.1692  0.1924
13368W        W26782  18.024   8.612   6.552  0.3454  0.0905 -0.3941
13369W        W26783   8.396  16.092   1.458  0.2804 -0.2863 -0.1416
13370W        W26784  12.042  17.681  10.789  0.0591 -0.0874  0.4127
13371W        W26785  16.482   7.179   1.119  0.0004  0.0799  0.3086
13372W        W26786  10.563  16.381  15.686  0.2403  0.1315  0.1968
13373W        W26787   8.271   7.341   2.963 -0.3233 -0.0260  0.0886
13374W        W26788  11.123   5.558  15.356  0.3236 -0.0840  0.0541
13375W        W26789   5.480   9.062   1.462  0.1662  0.3123 -0.1926
13376W        W26790   0.405  13.556  10.317  0.0766  0.0633 -0.2914
13377W        W26791  12.168  13.877   6.060 -0.0725 -0.0006 -0.0354
13378W        W26792   2.312  11.744   5.810 -0.0861  0.1726  0.2055
13379W        W26793  12.826   1.490   3.067 -0.1616  0.1749 -0.1980
13380W        W26794  18.366   6.262  13.890 -0.2102 -0.0146 -0.2388
13381W        W26795   8.706   5.299  14.727 -0.0027 -0.2494  0.1204
13382W        W26796  13.236   4.176   4.285 -0.0678  0.2462 -0.2389
13383W        W26797  12.593   4.726   1.376  0.0072 -0.0244  0.0396
13384W        W26798  16.635  16.422   1.516  0.1172  0.0179  0.0503
13385W        W26799  18.041   0.549   0.520 -0.3424 -0.2081 -0.1700
13386W        W26800  11.523   3.715   0.294 -0.0580  0.1487  0.0201
13387W        W26801  17.653  13.080  11.491  0.3692  0.0486 -0.2576
13388W        W26802   0.891   9.439  15.746 -0.0497 -0.0807 -0.4202
13389W        W26803   9.946   3.825   5.192  0.0903  0.4616  0.0438
13390W        W26804  15.460   4.657  14.550 -0.0790  0.0477 -0.3079
13391W        W26805   0.627   7.061  12.954  0.0608  0.2673  0.1651
13392W        W26806   8.194   5.993   3.168 -0.3958  0.1234  0.2137
13393W        W26807   7.568   5.190   2.551 -0.1342  0.1873 -0.2302
13394W        W26808  14.999  10.947  15.958  0.2208 -0.0479  0.3941
13395W        W26809   1.711   2.175   1.335  0.3849 -0.2048 -0.0014
13396W        W26810  18.224  11.099   2.736 -0.0761 -0.1362 -0.2797
13397W        W26811   1.856  11.643  11.073 -0.0859  0.1102  0.3929
13398W        W26812   2.419  11.574  12.895  0.0223 -0.0491 -0.0754
13399W        W26813   6.427   3.947  11.122  0.2094  0.0314  0.0460
13400W        W26814  14.488   9.275   2.594  0.1987 -0.1881  0.2640
13401W        W26815   5.333  10.502  15.730  0.1580 -0.1835 -0.0490
13402W        W26816  10.532  17.472  14.863 -0.1779 -0.1664 -0.3399
13403W        W26817   1.823   1.277   6.342  0.1079 -0.1817 -0.0341
13404W        W26818   6.297  16.770   2.648  0.1425  0.4463  0.1705
13405W        W26819   8.609  10.526  15.844 -0.0492  0.3470 -0.1650
13406W        W26820   2.963  13.959   3.181  0.0091  0.1045 -0.0887
13407W        W26821   1.020  10.708  10.656 -0.2988  0.1737 -0.1079
13408W        W26822   7.460   9.857   5.238  0.2135 -0.1804 -0.3132
13409W        W26823  16.101   9.116  13.025 -0.0611 -0.1751  0.3086
13410W        W26824  17.080   6.759   1.874 -0.1754 -0.0695  0.0526
13411W        W26825   3.118   2.647   2.535  0.2237 -0.4039 -0.1253
13412W        W26826   1.555  18.336   5.185 -0.0460  0.1407 -0.0331
13413W        W26827   0.962   5.857   3.613 -0.2076  0.1851  0.2592
13414W        W26828  12.459  14.122   3.565  0.1364 -0.0495  0.1929
13415W        W26829  12.872  11.478  12.672  0.0611 -0.0244  0.0526
13416W        W26830  14.233   5.286  13.155  0.1457 -0.1240  0.0944
13417W        W26831  15.463   7.700  12.164  0.1240 -0.0246 -0.4310
13418W        W26832  13.135   0.462  11.717  0.2747  0.0281  0.1753
13419W        W26833   8.188  10.444  13.244 -0.0526  0.0365  0.4409
13420W        W26834  15.011   9.689  11.997  0.1902  0.0444  0.2874
13421W        W26835   8.955   1.965  10.131  0.3284  0.1712  0.0309
13422W        W26836  16.254   2.411   0.023 -0.0521 -0.1960 -0.1112
13423W        W26837  14.613   3.652  12.005  0.0651 -0.0283  0.0745
13424W        W26838   9.587   4.206   5.251  0.4751 -0.2527  0.1443
13425W        W26839   7.980   2.479  15.246  0.0828  0.2333  0.0841
13426W        W26840   6.555   0.854   0.765 -0.1966 -0.0670  0.1313
13427W        W26841  14.056  18.030   0.325  0.3208 -0.1820  0.2017
13428W        W26842  15.440   7.300  13.502 -0.0667 -0.3249  0.2579
13429W        W26843   8.033   6.285   3.796 -0.4683 -0.0726 -0.1306
13430W        W26844   7.503   4.030   0.603  0.0950 -0.0361  0.0422
13431W        W26845  14.845   9.205   6.655  0.1465  0.0791  0.1988
13432W        W26846  18.284   9.222   5.150 -0.0503  0.1016 -0.1945
13433W        W26847   5.259  16.075  10.460 -0.1226 -0.1245 -0.0069
13434W        W26848  12.118   7.062  11.196 -0.0439 -0.1040  0.0279
13435W        W26849  11.638   7.133   6.013  0.1208 -0.0974 -0.1167
13436W        W26850   2.868   0.104   5.478 -0.0681  0.0413 -0.0040
13437W        W26851   9.890   4.935  12.469 -0.0055  0.2137  0.1264
13438W        W26852  11.518  15.756  12.574 -0.1913  0.1607  0.0469
13439W        W26853   8.882  12.783  15.276  0.1414 -0.0490 -0.2328
13440W        W26854   4.326   2.935   2.909  0.2862  0.1549 -0.3540
13441W        W26855   5.251   3.402  16.131  0.1989  0.1689 -0.0218
13442W        W26856   0.132   1.874   0.803  0.1089  0.0621 -0.0886
13443W        W26857  16.844  12.248  12.258  0.0945  0.4970 -0.0454
13444W        W26858  12.092   5.978   4.288 -0.2230 -0.2224  0.4214
13445W        W26859   0.328   6.793   2.744  0.1163  0.0454 -0.0301
13446W        W26860   6.247   1.292  11.568  0.1220  0.2464 -0.1677
13447W        W26861  17.172  14.171   1.106  0.2900  0.0498  0.2048
13448W        W26862   1.736   6.391   2.170  0.0831 -0.1544 -0.1114
13449W        W26863  14.168  14.654  15.735 -0.0768  0.2627  0.1132
13450W        W26864  15.148  10.585  11.604  0.2267 -0.3187 -0.0340
13451W        W26865   1.560   5.821   0.506 -0.2302 -0.0226  0.0162
13452W        W26866   5.359  12.845   2.504  0.0202 -0.2731 -0.0084
13453W        W26867   3.388  11.391   3.773  0.1985 -0.1887  0.0390
13454W        W26868   8.795   0.422   6.004 -0.1477  0.1625 -0.0078
13455W        W26869   0.057   0.657  12.342 -0.0044  0.1924  0.1694
13456W        W26870   3.479   8.464   2.698  0.2647 -0.0723 -0.3790
13457W        W26871  16.861   4.882  13.049  0.2904  0.1313 -0.1146
13458W        W26872  14.949  13.543  11.107  0.2416  0.4494 -0.1239
13459W        W26873   2.989   5.740  12.849  0.1067  0.0609 -0.0087
13460W        W26874  13.457  16.755  11.499  0.1821 -0.0133 -0.1150
13461W        W26875  17.080   2.587  14.075  0.1059 -0.1028  0.0281
13462W        W26876   9.906  18.395   0.024 -0.0101 -0.0852  0.1398
13463W        W26877   2.864   8.462   2.177  0.1113  0.1614 -0.0441
13464W        W26878   4.416   5.604   0.325 -0.1508 -0.2810 -0.0903
13465W        W26879   0.537  10.830  12.478 -0.2859 -0.0394  0.0455
13466W        W26880   6.443   6.167  15.383  0.3847 -0.1471 -0.0395
13467W        W26881  17.393  12.541  13.461 -0.1767 -0.1410  0.0994
13468W        W26882   2.659  10.735   6.218  0.2912 -0.1259  0.1826
13469W        W26883  14.349  10.488  12.176  0.1278 -0.2328  0.0640
13470W        W26884  10.145   5.794  13.407 -0.0691 -0.1575  0.0309
13471W        W26885  13.421   5.758  11.894  0.0827 -0.3104 -0.0937
13472W        W26886  17.013   9.166   1.809 -0.3238  0.1350  0.0175
13473W        W26887  15.814   5.962   5.225 -0.0823 -0.1338 -0.0308
13474W        W26888   3.663   3.561  12.076  0.0266  0.0003  0.1421
13475W        W26889  11.527  18.340   2.824  0.1480  0.2675 -0.0035
13476W        W26890   2.604  11.390   1.557 -0.4350 -0.0944 -0.0722
13477W        W26891  15.255  18.222   1.761  0.0270  0.1590  0.0247
13478W        W26892  14.382  10.247   0.459  0.1987 -0.4242  0.0973
13479W        W26893  17.795   3.971   0.497  0.1274 -0.3027  0.0544
13480W        W26894  11.418  16.585  15.512  0.2839  0.2447  0.2533
13481W        W26895   8.307   1.172  14.851  0.2282 -0.1703 -0.0975
13482W        W26896   9.321   4.711   0.555  0.0234 -0.2273  0.4217
13483W        W26897  14.942  11.057  10.179  0.0105 -0.0441  0.2466
13484W        W26898  16.444   6.426  12.863  0.1096  0.2473  0.2161
13485W        W26899   1.135   5.731  10.610  0.3301 -0.1036 -0.1590
13486W        W26900  11.010  10.250  10.498 -0.0637  0.0869  0.0832
13487W        W26901   9.046  12.602  13.564  0.0374 -0.0311  0.0300
13488W        W26902   7.455  16.553   2.518  0.1461 -0.1370  0.1123
13489W        W26903   5.961   0.905   0.894 -0.3342  0.0784 -0.0573
13490W        W26904   9.653   6.023   4.739 -0.0852 -0.0745  0.1772
13491W        W26905  16.034   8.336   3.356 -0.0594 -0.1342  0.1372
13492W        W26906   7.707   1.516   0.406  0.2574  0.1445  0.1184
13493W        W26907   6.975  15.935   4.943  0.3567  0.1202  0.1477
13494W        W26908   0.614  13.685  16.041 -0.1341  0.0631  0.1006
13495W        W26909  10.058  12.769  15.779 -0.2864  0.0363  0.1275
13496W        W26910   6.461   4.224  16.080 -0.2219  0.0072  0.1524
13497W        W26911   8.332   1.148  13.536 -0.1080  0.1658 -0.1251
13498W        W26912  16.503   2.633  15.199 -0.0530 -0.0596  0.0109
13499W        W26913   9.033  15.158  15.086  0.0773  0.1611 -0.1489
13500W        W26914  10.555   9.317   1.234 -0.0982  0.2747 -0.0329
13501W        W26915   1.335  15.966  11.823  0.2350 -0.0982 -0.0459
13502W        W26916  12.628   3.225  13.702 -0.0599  0.2167 -0.2540
13503W        W26917  17.134   6.039   3.332  0.0971 -0.5268 -0.1629
13504W        W26918   4.810   4.240  13.847  0.0018  0.3085 -0.3003
13505W        W26919   3.105  16.636  14.421 -0.1627  0.3638 -0.2133
13506W        W26920  16.851  12.082   0.303 -0.2013  0.1408  0.0106
13507W        W26921  16.715   8.254  16.042 -0.0776  0.0147  0.0278
13508W        W26922  17.721   9.894   0.750  0.2446 -0.0678 -0.1441
13509W        W26923   6.184   5.767  15.162 -0.3632 -0.0599 -0.0034
13510W        W26924  11.270  13.171  14.962 -0.0348 -0.0444 -0.1626
13511W        W26925   3.876  16.559  12.805 -0.0179 -0.1506  0.1754
13512W        W26926  14.479  14.453  14.343  0.2898 -0.2288 -0.1087
13513W        W26927  17.706   0.598   1.472  0.2231 -0.1704  0.1838
13514W        W26928   5.451   8.258  13.855  0.0734 -0.1997  0.0333
13515W        W26929  13.314   8.129  15.419 -0.4423 -0.3146 -0.0158
13516W        W26930  16.338  18.381  15.381  0.0941 -0.3339  0.1115
13517W        W26931  12.275   3.380   1.399  0.2447 -0.0664  0.1168
13518W        W26932  17.374   3.448   4.902 -0.2751  0.2688  0.0691
13519W        W26933   7.155   2.794  10.772  0.2790 -0.0554 -0.0964
13520W        W26934   9.850  14.972   2.094 -0.2497 -0.2961 -0.0788
13521W        W26935   8.264   9.503   1.056  0.0162  0.3703  0.0162
13522W        W26936  10.018   5.070  13.944 -0.2911  0.1593  0.2128
13523W        W26937  12.086   5.587   3.986 -0.2393  0.1064 -0.0147
13524W        W26938  17.970  11.968  10.618  0.1040 -0.0372 -0.0292
13525W        W26939   6.977   2.008   4.745 -0.0118 -0.1360  0.6188
13526W        W26940   3.778  13.890  11.203  0.1173 -0.1125  0.3213
13527W        W26941   3.647  15.281  14.607 -0.3106  0.0721  0.1470
13528W        W26942  13.267  13.379   2.154  0.0380 -0.0700  0.0008
13529W        W26943   2.906   6.810   2.714 -0.1165 -0.1073  0.4098
13530W        W26944   3.302  18.400   6.261  0.1097 -0.0914 -0.0899
13531W        W26945  16.121  18.156   2.530 -0.1944  0.0661  0.0159
13532W        W26946   8.299  13.373  12.644  0.1172  0.1172 -0.1261
13533W        W26947   2.992   7.845  10.292  0.5226  0.0321 -0.1320
13534W        W26948   0.758  17.376  11.911  0.1643  0.2656 -0.1080
13535W        W26949   3.745   3.661   1.891 -0.1894  0.0176 -0.0422
13536W        W26950  13.803   5.720   3.433 -0.0729 -0.0411 -0.2872
13537W        W26951   7.138   9.276  13.979 -0.0207 -0.2457 -0.2042
13538W        W26952   7.926   0.970  14.541  0.1461  0.2760  0.0400
13539W        W26953   8.002  16.420   3.613  0.4320 -0.1323 -0.0064
13540W        W26954   1.044  16.761   2.869 -0.2291 -0.1659  0.0286
13541W        W26955   2.517   3.050  15.822 -0.0816  0.4513  0.1779
13542W        W26956   4.254   6.235   0.041 -0.1448 -0.0466 -0.2356
13543W        W26957   1.550  12.238   3.271 -0.3033 -0.0501 -0.0474
13544W        W26958   6.810   5.964  15.714  0.1099 -0.1942  0.3462
13545W        W26959  13.646   0.381   4.344  0.0927  0.0125 -0.2196
13546W        W26960  12.323  11.205  15.207 -0.2554  0.2560  0.1213
13547W        W26961   6.956   8.326   0.674 -0.0306 -0.0015 -0.1379
13548W        W26962  12.503   3.704  13.379  0.2597 -0.2565  0.1563
13549W        W26963  13.424  10.177  13.356 -0.3982  0.3689 -0.1579
13550W        W26964  16.508   9.010   1.603 -0.3890 -0.0197  0.1107
13551W        W26965  10.509   3.104   4.005  0.4962 -0.0425  0.3958
13552W        W26966  12.582  11.686   5.471 -0.3872  0.1654 -0.1808
13553W        W26967  14.249   1.793   1.716  0.0100 -0.1556 -0.4641
13554W        W26968  14.039  15.885  11.043  0.2812 -0.2777 -0.0163
13555W        W26969   2.734  12.757  14.737 -0.1695 -0.2917 -0.4226
13556W        W26970   2.918   3.774  13.867 -0.0647  0.1170  0.2250
13557W        W26971  11.959  13.547  11.932  0.1623 -0.0662  0.1606
13558W        W26972   9.067   0.246  11.391 -0.1228  0.0388 -0.3456
13559W        W26973  14.723  18.176  13.459  0.3071  0.1183 -0.1788
13560W        W26974  18.174   6.313   5.612  0.1694 -0.2020  0.1650
13561W        W26975  14.911  16.946  13.843  0.0692 -0.1037 -0.0683
13562W        W26976   8.862   5.995  13.149  0.3572  0.2870  0.3101
13563W        W26977  16.479   0.387  11.513 -0.0286  0.1220  0.3290
13564W        W26978  10.175   0.108  10.651  0.0482  0.1645 -0.0720
13565W        W26979  12.935  17.151   4.523 -0.1268 -0.0291 -0.1365
13566W        W26980   6.833   1.095  12.903 -0.0012  0.1463 -0.2202
13567W        W26981  11.551  17.143   3.481 -0.1113 -0.1105  0.1202
13568W        W26982   1.981  15.498  11.288  0.0842  0.0123  0.3529
13569W        W26983   6.441   4.253   4.299  0.2214 -0.1519 -0.1393
13570W        W26984  13.184  17.118   9.734  0.5325 -0.1032 -0.0520
13571W        W26985   4.128   1.585  15.195 -0.0034 -0.2192 -0.3074
13572W        W26986  12.116  10.658   4.985  0.0410 -0.1919  0.1427
13573W        W26987   2.031  17.055   2.673  0.2311  0.1299  0.0324
13574W        W26988   7.528  11.781   0.375 -0.2367 -0.1765  0.4805
13575W        W26989   2.257   1.154   5.808 -0.0725 -0.2630 -0.1398
13576W        W26990  13.303   5.254   2.941 -0.2352 -0.2045  0.0048
13577W        W26991  13.542  10.744  13.733 -0.2936  0.1792 -0.1363
13578W        W26992  13.764   7.335   4.380  0.1050 -0.1088 -0.2344
13579W        W26993   6.140  16.209  13.378  0.0365 -0.0053 -0.1360
13580W        W26994   7.901   2.071   5.297 -0.2011  0.2246  0.3421
13581W        W26995  15.283   3.771   0.399 -0.0327  0.2374 -0.1196
13582W        W26996   8.628  14.513   2.448  0.0118  0.3146  0.1609
13583W        W26997  10.453  16.535   3.852  0.1340 -0.0181  0.0318
13584W        W26998   1.042  11.417   4.226 -0.1207  0.3705  0.0353
13585W        W26999   0.156   4.538   6.143 -0.1633  0.2344 -0.1763
13586W        W27000  17.897  17.930  16.110  0.0708  0.0807  0.0315
13587W        W27001  15.949   7.837   3.580  0.0104  0.0046 -0.1545
13588W        W27002   5.869  15.026   4.311  0.2763  0.0193 -0.0020
13589W        W27003  12.475   1.480  13.609 -0.1636  0.3342 -0.0680
13590W        W27004  15.962  13.537   0.944  0.0458 -0.0340 -0.3591
13591W        W27005   1.358   4.437  13.758 -0.1728 -0.0687 -0.0635
13592W        W27006   9.123   6.902  10.616 -0.0457  0.4225  0.1085
13593W        W27007   3.777   8.097  15.637 -0.1452  0.3687 -0.0403
13594W        W27008   7.929   1.990  15.278  0.0079  0.0514 -0.0478
13595W        W27009   3.912  17.064  10.945 -0.1204  0.0404  0.0596
13596W        W27010   0.713   4.417  13.555  0.0495 -0.0215  0.2727
13597W        W27011   9.078   7.787  15.273  0.0036 -0.5012  0.3178
13598W        W27012   9.452   5.210   0.188 -0.0579  0.2001  0.0556
13599W        W27013  16.273  12.927   3.519 -0.1268  0.1893  0.3203
13600W        W27014   7.209   8.611  13.109 -0.0943 -0.2387 -0.2279
13601W        W27015   1.577   9.703   1.930  0.0126  0.0794 -0.0323
13602W        W27016   1.773  14.719   0.593  0.1075  0.1158 -0.1968
13603W        W27017   1.215  15.486   4.555  0.0384  0.0972  0.1235
13604W        W27018  14.882  17.065  12.057  0.0431 -0.1668 -0.3439
13605W        W27019   8.317   7.720   4.474 -0.3540  0.2199 -0.1550
13606W        W27020  13.736   1.368   0.219  0.1232 -0.0837  0.2600
13607W        W27021  16.462  17.970   0.138 -0.0858 -0.1645  0.3877
13608W        W27022  16.490   2.387   3.942  0.1099  0.0142  0.3100
13609W        W27023   5.720   9.205  14.093 -0.0761 -0.2545  0.1046
13610W        W27024   9.775  15.547   4.751 -0.0513 -0.3779 -0.0836
13611W        W27025   9.552   2.332   3.478  0.2154 -0.3347  0.2401
13612W        W27026   5.505  13.417   3.423 -0.1889 -0.2030  0.0235
13613W        W27027  10.989   4.651   0.137 -0.1732 -0.0810 -0.3607
13614W        W27028  14.952  14.577  13.213 -0.1546 -0.1883 -0.2537
13615W        W27029  17.918  15.942   3.224  0.0974  0.1321 -0.0431
13616W        W27030   6.989   0.649  14.503  0.2057  0.3086 -0.0404
13617W        W27031  18.044  15.109   1.584 -0.0831  0.0578  0.2043
13618W        W27032   1.329   1.296  15.955 -0.1079 -0.1095  0.0343
13619W        W27033   1.963  10.544   3.807 -0.1300  0.0257 -0.2923
13620W        W27034   1.622   9.822   5.139  0.0063  0.1507 -0.1579
13621W        W27035   1.884   3.999  12.274  0.3373  0.1878  0.1454
13622W        W27036  14.149   0.359  16.143  0.2066  0.1415 -0.0010
13623W        W27037   0.045  11.178   0.210  0.2004 -0.3479 -0.1314
13624W        W27038  12.676   4.206   1.979  0.1774  0.0076  0.1676
13625W        W27039  16.173   4.773  14.468 -0.3498 -0.4204 -0.0558
13626W        W27040  10.100  17.412   0.052  0.0566  0.0067  0.1737
13627W        W27041  17.173   5.832   2.417 -0.1514  0.0234 -0.1994
13628W        W27042   4.343  16.641   6.371  0.0188 -0.0045 -0.0233
13629W        W27043  11.470  10.887  12.542 -0.0853 -0.0415 -0.0244
13630W        W27044  13.239  16.715   1.193 -0.0818 -0.3491  0.2085
13631W        W27045   3.040   1.135   2.173  0.0718 -0.0663  0.0596
13632W        W27046  17.313   3.945  11.982  0.0793 -0.2600 -0.1145
13633W        W27047   2.736  14.618   0.741 -0.0260  0.1433  0.0354
13634W        W27048   2.138  16.655  10.471  0.0383  0.1184  0.0768
13635W        W27049  12.070   4.038  10.253  0.0493  0.2018 -0.0219
13636W        W27050  11.199  15.765  16.056 -0.0058  0.0553  0.2693
13637W        W27051  14.693   3.654   3.748  0.1031  0.0606 -0.2460
13638W        W27052   1.775  14.074  11.687 -0.0856  0.1456  0.0509
13639W        W27053   2.099   8.838  13.243  0.0383 -0.0510  0.0724
13640W        W27054   9.543   2.934  13.995 -0.0832  0.1125 -0.0335
13641W        W27055  12.895  15.492  11.794 -0.0005  0.1249  0.1201
13642W        W27056   6.697  17.620   3.977  0.2967 -0.2091 -0.1865
13643W        W27057  14.884  15.815  10.242  0.0754  0.0147  0.0232
13644W        W27058  14.843   6.505   3.721 -0.1536  0.0350  0.2183
13645W        W27059   3.920   1.096   5.052 -0.0298 -0.1795  0.0931
13646W        W27060  16.163  11.479   4.275  0.1064 -0.0705 -0.0925
13647W        W27061   3.383  11.955  13.384 -0.1385 -0.1270 -0.3236
13648W        W27062  15.051   0.602   1.369 -0.2622 -0.0512  0.0758
13649W        W27063  14.400  15.071  12.631 -0.1958 -0.0172 -0.0671
13650W        W27064   4.000   0.811   1.254  0.1139 -0.2983  0.1999
13651W        W27065  18.434  13.138   0.033 -0.0188 -0.0495 -0.3497
13652W        W27066   9.715  17.251   4.950 -0.0046 -0.1816 -0.0324
13653W        W27067   9.814  14.775   3.131  0.0657 -0.2621 -0.0000
13654W        W27068  14.619   4.840  14.848  0.1963 -0.3404 -0.0929
13655W        W27069   9.532   4.507   3.875  0.2425 -0.0264  0.0475
13656W        W27070  14.377   4.320   0.544 -0.1960 -0.2864  0.0894
13657W        W27071   7.883   6.942  12.452  0.2425  0.2962 -0.1508
13658W        W27072  11.584   0.418  14.597 -0.1978  0.1799 -0.0993
13659W        W27073  13.103  14.688   3.387 -0.0056 -0.2367  0.1014
13660W        W27074   0.407  18.220   6.045 -0.1162 -0.1427  0.3241
13661W        W27075  13.908  15.682   3.484  0.1424 -0.0195 -0.0527
13662W        W27076   8.661  13.233  15.151 -0.1897  0.1530 -0.2007
13663W        W27077  16.113  13.277   4.427 -0.0323 -0.0302 -0.1098
13664W        W27078  17.257   8.073   5.751  0.0787 -0.1192 -0.2729
13665W        W27079   6.312   0.246  12.362  0.0877 -0.0592  0.0796
13666W        W27080  10.213   4.117  10.602 -0.1486 -0.2896  0.2842
13667W        W27081  16.124   9.195   1.810  0.4270 -0.3191 -0.1337
13668W        W27082  10.560  17.067   4.000 -0.2714 -0.0464  0.3237
13669W        W27083   7.185   4.270  11.480  0.0086  0.3485  0.0106
13670W        W27084   8.543   9.997  11.163 -0.2943 -0.3199 -0.0845
13671W        W27085   1.404   8.657   1.809 -0.0273  0.1615 -0.2203
13672W        W27086  15.537   9.077  15.372 -0.2778  0.1103  0.1814
13673W        W27087   4.036   7.036   4.382  0.1202 -0.1496  0.0133
13674W        W27088   6.083   6.987   3.352 -0.0272 -0.0472  0.1792
13675W        W27089   0.892   5.842   3.106  0.2462 -0.2273  0.2294
13676W        W27090   7.934   9.749   5.402  0.1792  0.0222  0.2098
13677W        W27091   7.517  14.162   2.589 -0.1344  0.1890  0.4330
13678W        W27092  12.980   2.275  13.393  0.0891  0.1862 -0.1442
13679W        W27093   5.989   1.026   4.582  0.2087 -0.0745  0.1181
13680W        W27094  11.254  16.484  11.926  0.1553 -0.0033 -0.2033
13681W        W27095  11.429   2.432   1.363 -0.3091 -0.0680 -0.2282
13682W        W27096  14.710   6.664  15.063  0.1578  0.0469 -0.3470
13683W        W27097   0.118   6.750  13.748  0.1146  0.0224 -0.2403
13684W        W27098   6.225   2.305  14.331 -0.1216 -0.3402  0.0381
13685W        W27099  16.129  10.042   5.028 -0.2783  0.0501 -0.3435
13686W        W27100   8.660   4.550   5.065  0.1328  0.0948  0.0741
13687W        W27101   8.516   8.400   5.626 -0.2105 -0.1172  0.2103
13688W        W27102  10.017  15.030  13.846  0.0465  0.2750  0.0379
13689W        W27103   6.243   1.707   4.383  0.1433 -0.0946  0.0684
13690W        W27104   9.720   4.332  12.495  0.6678 -0.0346 -0.2269
13691W        W27105  13.172   1.039   1.626 -0.1587  0.1436  0.4631
13692W        W27106   7.914   0.719   2.589  0.1399 -0.1612  0.0169
13693W        W27107  13.593  15.993  13.276 -0.0609  0.0361 -0.0476
13694W        W27108  14.439  14.137   4.585  0.0019  0.1321 -0.1783
13695W        W27109  15.002  17.390  15.444  0.2011 -0.2697 -0.0223
13696W        W27110   3.993   9.390   2.865  0.1819  0.2586  0.0224
13697W        W27111   1.129  16.039   0.763 -0.0352  0.1883  0.1624
13698W        W27112   3.555   6.704  14.288  0.1517 -0.0509  0.0047
13699W        W27113   1.386  12.942  11.335 -0.2071 -0.0215 -0.0683
13700W        W27114   3.370   8.491   4.805 -0.1414 -0.0761  0.0593
13701W        W27115  11.544   7.518   3.500 -0.0026  0.3842 -0.1345
13702W        W27116  14.940  14.533   2.016  0.0491 -0.0666  0.0474
13703W        W27117  10.282  12.771   3.498  0.0106 -0.0891 -0.0775
13704W        W27118   7.672   0.227  10.250  0.2553  0.1787  0.1077
13705W        W27119   9.729  17.673  12.303 -0.0740  0.1540  0.2785
13706W        W27120  11.768   9.171  15.855  0.2318  0.2295 -0.1660
13707W        W27121  14.292  17.572  15.888 -0.2873  0.0914  0.0918
13708W        W27122  12.889  15.403   5.332  0.0335  0.0212  0.1080
13709W        W27123   6.096  14.745  10.631  0.1150  0.0622 -0.0639
13710W        W27124  14.428   9.674  12.694 -0.1929 -0.0912 -0.1802
13711W        W27125   2.530  15.256  12.238  0.1638 -0.3087  0.2337
13712W        W27126   8.440   4.541   2.136 -0.0166 -0.1687 -0.0315
13713W        W27127   1.181  17.759  14.738  0.2400 -0.0748 -0.1631
13714W        W27128   3.444   3.884   0.994 -0.0736 -0.0574  0.1265
13715W        W27129  18.039   3.852   2.949 -0.0560  0.3167 -0.2429
13716W        W27130   9.619   8.929  12.211  0.0552 -0.2463  0.1236
13717W        W27131   5.322   9.365  10.074  0.3506 -0.0595 -0.1144
13718W        W27132  11.634  11.923   2.196 -0.0530  0.0436 -0.2070
13719W        W27133  12.228   4.957  10.484 -0.4400 -0.1483 -0.0336
13720W        W27134   3.540   1.401   5.452  0.0415 -0.0037  0.0267
13721W        W27135  14.327   0.891   4.924  0.0317 -0.2177  0.0902
13722W        W27136  11.789   4.996  12.938  0.2184 -0.0692  0.0652
13723W        W27137   3.312   4.796  16.021  0.2902  0.0487 -0.1682
13724W        W27138   6.028   1.507  16.245 -0.0802 -0.1404  0.1485
13725W        W27139  16.736  10.647  10.854 -0.0033  0.0424  0.0713
13726W        W27140   6.396   2.934   2.853  0.0765  0.0669  0.3893
13727W        W27141  15.564  10.670  11.828 -0.3172 -0.2722  0.2914
13728W        W27142  17.799   3.181  14.049  0.1488 -0.1274 -0.0777
13729W        W27143   1.475  11.095  14.017 -0.1253 -0.0337  0.0479
13730W        W27144  12.766   1.044  13.597 -0.0718 -0.4551 -0.0492
13731W        W27145  14.261  12.783  13.813 -0.0666 -0.2707  0.1571
13732W        W27146  12.577  17.254   5.495 -0.3340 -0.1206 -0.1948
13733W        W27147  15.040  15.385   9.865  0.0223 -0.3425 -0.0019
13734W        W27148   5.854  13.103   6.191  0.2051  0.0074  0.0011
13735W        W27149  11.296   4.437   2.811 -0.2304  0.1979 -0.0054
13736W        W27150  13.688  14.619  13.890  0.0302  0.2410 -0.0973
13737W        W27151   2.931  11.543  15.116 -0.0610  0.1073 -0.2608
13738W        W27152  13.581  13.354   3.002  0.1910  0.2240 -0.0956
13739W        W27153   6.444   7.671   1.222  0.1620 -0.1704  0.0284
13740W        W27154   9.262  16.463  14.153 -0.3045 -0.1163  0.1971
13741W        W27155   5.525   2.402  15.087 -0.3073  0.0947  0.2082
13742W        W27156   4.123  16.202   0.192  0.0212 -0.0670 -0.2240
13743W        W27157   4.754   6.664  13.183 -0.0400  0.0874 -0.0656
13744W        W27158  17.390  14.303   2.968 -0.0056 -0.3409  0.1558
13745W        W27159  12.997  15.806  13.137  0.2334  0.0026 -0.7097
13746W        W27160   5.552   5.714   3.321 -0.1734 -0.0074  0.0935
13747W        W27161   0.512   1.954  14.875 -0.1410  0.1325  0.2182
13748W        W27162   1.248  11.866   1.191 -0.0350 -0.2054  0.1676
13749W        W27163  17.212   8.424   5.409  0.0455  0.0547 -0.0570
13750W        W27164   4.193  10.931   4.729 -0.0968 -0.0479  0.0401
13751W        W27165  16.819  13.687   1.591  0.1427 -0.0546 -0.1780
13752W        W27166  10.732   2.859  14.845  0.1548 -0.0928 -0.1186
13753W        W27167   7.946  14.941  12.465 -0.0524  0.2093  0.0744
13754W        W27168   5.249  12.768   5.017 -0.3075  0.0390 -0.2625
13755W        W27169   2.796   0.357   1.062  0.2873 -0.3872 -0.0379
13756W        W27170   3.740  16.263   2.090 -0.2085 -0.0813 -0.1172
13757W        W27171  11.964  16.729   5.983  0.0670  0.0795 -0.0726
13758W        W27172   9.177   4.134  14.174  0.2803  0.2022  0.0958
13759W        W27173  11.720  14.898  12.284 -0.0034  0.1953  0.1993
13760W        W27174   3.930   9.320   0.007  0.0711  0.0492 -0.2953
13761W        W27175  15.562   7.663   4.962 -0.3848  0.3279 -0.3692
13762W        W27176   0.821  17.771   0.473 -0.1255  0.3292 -0.1152
13763W        W27177  17.261  15.035  10.848 -0.1001  0.0882 -0.0218
13764W        W27178   0.880   1.179  14.837  0.1460  0.3696 -0.1264
13765W        W27179  11.078   4.504   4.661 -0.0160 -0.1075  0.0470
13766W        W27180  11.452   0.956  14.564  0.0818 -0.1600 -0.0090
13767W        W27181   2.137  14.697  15.655  0.0323  0.0882  0.0361
13768W        W27182   8.774  17.176   0.773  0.1345 -0.3987 -0.1735
13769W        W27183  17.257   9.247   4.389  0.3456 -0.3887  0.0952
13770W        W27184  17.297  14.400  11.086  0.1658  0.0361  0.0198
13771W        W27185   5.793  15.887  13.641 -0.0524  0.0165 -0.0492
13772W        W27186   2.095  16.281  15.573  0.2186  0.1530 -0.0882
13773W        W27187  10.855   0.177   1.609  0.1912 -0.0085 -0.1900
13774W        W27188   4.013  11.218   5.387 -0.2083 -0.2154 -0.0080
13775W        W27189   1.239   4.553   2.321  0.3327 -0.3299  0.1142
13776W        W27190   4.619  13.407   5.459  0.0124  0.2333 -0.0702
13777W        W27191   6.671  13.486  15.011  0.1697  0.0056  0.0609
13778W        W27192  11.363   8.580  12.306 -0.1426  0.2073  0.1314
13779W        W27193  10.068   6.474  16.114  0.0922 -0.0239  0.0874
13780W        W27194   7.011  16.876   3.477 -0.3324 -0.0525 -0.0529
13781W        W27195  17.196  11.736   1.132 -0.0501  0.1989 -0.0304
13782W        W27196   7.582   1.366   5.628  0.0283 -0.0769  0.3009
13783W        W27197  14.737   9.631  11.597  0.2516  0.0494  0.0017
13784W        W27198   4.975   7.373   2.333  0.1617 -0.1407 -0.1048
13785W        W27199  12.865   4.632   9.910  0.1998 -0.2345 -0.0654
13786W        W27200   6.076  14.241  15.341 -0.3323  0.0120 -0.0346
13787W        W27201   7.184  15.766   4.514  0.0519 -0.1186 -0.4446
13788W        W27202  13.535  14.577  12.527  0.0773 -0.0563 -0.0025
13789W        W27203  11.690   2.886   4.548  0.0680  0.3047 -0.0869
13790W        W27204  16.484   4.113   0.569 -0.2749  0.1050 -0.0533
13791W        W27205   6.646  12.521  15.818  0.1515 -0.0466  0.2504
13792W        W27206   7.738  17.391  11.248  0.1404 -0.0516  0.0552
13793W        W27207  15.031   4.580  16.093 -0.1197 -0.2055  0.2606
13794W        W27208   8.363  18.014  10.143  0.2134  0.1332 -0.1669
13795W        W27209   5.312  11.726  12.407 -0.3047  0.1862 -0.1436
13796W        W27210   3.431   2.362  13.674 -0.1850  0.0302 -0.0696
13797W        W27211  13.412  10.542  15.866  0.1691 -0.2394  0.0285
13798W        W27212   1.498  15.638  10.210  0.0193 -0.2348  0.2594
13799W        W27213   3.303   1.521   2.058 -0.2364  0.0450 -0.0958
13800W        W27214  10.405   3.120  10.426  0.1178  0.2031  0.1497
13801W        W27215   2.650  15.506   1.061  0.4187 -0.2095 -0.1287
13802W        W27216   7.281   3.928  12.892  0.2406 -0.1297  0.0185
13803W        W27217   9.918   9.527   0.054 -0.1653 -0.1071  0.4289
13804W        W27218  10.235   1.257  15.280  0.1988  0.0028 -0.0486
13805W        W27219  17.820   1.430  15.335  0.3561 -0.2946 -0.0097
13806W        W27220   2.862  14.374  14.400  0.2309 -0.3104 -0.2656
13807W        W27221   8.745   9.461   5.743  0.0384  0.1577 -0.0298
13808W        W27222  12.882   4.082   3.467  0.1645 -0.2071  0.2898
13809W        W27223   8.652   0.118   4.635 -0.2249 -0.2701  0.2068
13810W        W27224   0.051   6.683   5.421  0.1290 -0.3349  0.0551
13811W        W27225   7.452  12.940   2.403  0.1466  0.0425  0.0317
13812W        W27226   4.427   1.207  14.013 -0.0061 -0.3158 -0.0689
13813W        W27227   5.834  17.758   1.587 -0.1667  0.2785  0.3903
13814W        W27228   2.462   7.504   2.887 -0.3130 -0.1121  0.5275
13815W        W27229   8.881   7.449   0.370  0.1488  0.3009 -0.0104
13816W        W27230  10.567  11.427   1.934 -0.1834 -0.2001 -0.2320
13817W        W27231  13.783   1.349  14.821 -0.0104 -0.0545  0.1947
13818W        W27232  10.080   2.674  14.932  0.0860  0.2891 -0.1521
13819W        W27233  15.819  13.624  10.519  0.1180  0.1747 -0.3725
13820W        W27234   9.670  13.578  15.980  0.0419 -0.0175  0.0520
13821W        W27235   5.199  18.139  14.206 -0.1382  0.0658 -0.3054
13822W        W27236  13.867  10.724  14.528 -0.0294 -0.1352 -0.1824
13823W        W27237   8.449   6.415   5.773  0.1156 -0.0775 -0.0102
13824W        W27238  16.017   2.866   3.405 -0.1900 -0.0554  0.2080
13825W        W27239   5.983  14.717   2.004 -0.2060 -0.0120 -0.0302
13826W        W27240   8.547  13.646  15.560  0.0279 -0.1296 -0.0916
13827W        W27241   6.000  15.895   1.259 -0.0986 -0.2543  0.1618
13828W        W27242  10.114  17.930  12.052 -0.1842 -0.1034 -0.0134
13829W        W27243   8.948  11.833  16.180 -0.0127 -0.0350  0.4664
13830W        W27244  11.896  10.788   1.180  0.3843 -0.0316 -0.1997
13831W        W27245   9.355   3.483  16.052 -0.1122  0.2579 -0.3300
13832W        W27246  12.095  14.418   9.939 -0.0319  0.0839 -0.0545
13833W        W27247   8.496   3.568  14.689  0.3780 -0.1739  0.0546
13834W        W27248  18.394   9.324   1.009 -0.2299  0.0557  0.2734
13835W        W27249  13.644  18.184   2.842  0.0129 -0.0224  0.1378
13836W        W27250   6.288   9.658  11.561  0.0164  0.2466  0.3160
13837W        W27251   0.577  17.439   0.783 -0.1323  0.2389  0.1022
13838W        W27252  17.587  11.274   4.191 -0.0825 -0.0772 -0.0225
13839W        W27253   4.869  10.708   0.274 -0.0336  0.0836  0.0458
13840W        W27254   7.506   4.903  13.282 -0.1464 -0.1242 -0.4276
13841W        W27255  11.900  12.745   4.296  0.1095  0.2310 -0.0674
13842W        W27256   9.216  12.388  15.940 -0.0136  0.0412  0.1885
13843W        W27257   3.278   0.317   4.396 -0.0382 -0.0260  0.0320
13844W        W27258  16.593  16.809   9.470 -0.0213 -0.1867 -0.1493
13845W        W27259   3.289  16.756   3.148  0.2295  0.3584 -0.0861
13846W        W27260  10.618   3.073   2.589 -0.2360  0.2680 -0.1713
13847W        W27261  17.604   4.634  16.167  0.0164 -0.1085 -0.1573
13848W        W27262   5.875   0.449  15.923  0.2784  0.1549  0.3590
13849W        W27263   2.072   6.172  14.536 -0.0978 -0.0281  0.0020
13850W        W27264   1.674   1.995   3.005  0.1802  0.0927  0.1009
13851W        W27265  15.919  11.761   4.867  0.1334  0.1387 -0.2604
13852W        W27266  13.465   4.125   4.942 -0.1522 -0.0028 -0.0581
13853W        W27267   6.778  12.935  15.372 -0.1833  0.0829  0.0146
13854W        W27268  13.630  17.590  13.568  0.0944  0.0710 -0.2835
13855W        W27269  10.328  17.990  14.642 -0.3531  0.0038 -0.3611
13856W        W27270   3.162  18.160  10.370 -0.1994  0.2684  0.1601
13857W        W27271  17.969   9.911   1.674 -0.0512  0.0458  0.1244
13858W        W27272   4.310   2.973   0.260 -0.2598 -0.1873  0.0332
13859W        W27273  17.658  11.512   2.501 -0.0012  0.0852 -0.1962
13860W        W27274   9.468   5.598   4.283  0.1252  0.1902  0.0011
13861W        W27275  11.119   8.723  11.446 -0.1728 -0.1122 -0.1755
13862W        W27276  13.226   8.713  13.710  0.1048 -0.2083  0.1948
13863W        W27277   0.927   6.020  12.014  0.0362 -0.2166 -0.1008
13864W        W27278   9.715   8.324   0.713  0.4101  0.0263  0.2194
13865W        W27279  16.571   8.345   7.050  0.0171  0.0811  0.1400
13866W        W27280   2.345   1.784  16.204  0.1176  0.0426  0.1080
13867W        W27281   6.427   5.363   1.191 -0.0588  0.0027  0.0794
13868W        W27282   5.185   7.365  10.800 -0.1899  0.0051 -0.0894
13869W        W27283   9.293  12.219   1.951 -0.0997 -0.1736  0.2365
13870W        W27284  17.976   8.636   1.430  0.1514 -0.1823 -0.1274
13871W        W27285   6.558  12.612  12.660 -0.0424  0.0295  0.0265
13872W        W27286   8.682  12.094  10.960 -0.1469 -0.0699  0.2074
13873W        W27287  15.638  16.344  10.760  0.0643  0.0431 -0.0559
13874W        W27288  15.452  15.870  11.277  0.0825  0.0259 -0.1927
13875W        W27289   4.797  10.384  14.047 -0.0701  0.0807  0.3071
13876W        W27290  16.193   6.744   4.021 -0.0721 -0.0910  0.0585
13877W        W27291  16.210   2.494   6.358 -0.0453  0.0833 -0.0147
13878W        W27292  11.290   0.093   2.428 -0.2599  0.2400  0.1161
13879W        W27293   0.022   5.786   3.138 -0.2536 -0.3082  0.0164
13880W        W27294  13.086   6.669   3.542 -0.1746 -0.3769 -0.3224
13881W        W27295   9.730   8.035  14.352  0.0334 -0.4132 -0.4372
13882W        W27296   6.901   6.165   1.942 -0.1500 -0.1516  0.1126
13883W        W27297   8.723   0.877   4.819 -0.2285 -0.2225 -0.0476
13884W        W27298  15.792   6.019   1.928  0.0136  0.2014  0.2151
13885W        W27299   3.919   9.140  14.248 -0.0594 -0.2050  0.0177
13886W        W27300  15.096   7.353   5.114 -0.0040 -0.2719  0.2359
13887W        W27301   6.301   3.322   2.475  0.0607  0.1182  0.0430
13888W        W27302   0.026   6.679   2.275  0.1553  0.1456  0.4202
13889W        W27303  17.558  15.379  11.145  0.1055 -0.2582  0.0559
13890W        W27304   4.655   0.509   4.478 -0.0407 -0.0722  0.0897
13891W        W27305   2.172  17.024   4.332  0.3648 -0.1146  0.2238
13892W        W27306  12.128   2.735   5.866  0.0661 -0.0034  0.1127
13893W        W27307   1.812   5.258  13.372 -0.1116  0.0205 -0.2231
13894W        W27308   2.176   3.172   0.836  0.4423 -0.0766 -0.1724
13895W        W27309   9.313  12.911   1.688  0.1158  0.0769 -0.1603
13896W        W27310   3.100   9.344   2.218  0.0239  0.0543  0.1612
13897W        W27311   3.998   4.278  14.847  0.1311 -0.0236 -0.4310
13898W        W27312  13.777   6.819   1.511 -0.0044 -0.2641  0.2464
13899W        W27313  16.474  13.386   2.554  0.1349 -0.1684  0.2369
13900W        W27314   1.409   9.775   0.319  0.0514 -0.0827 -0.2393
13901W        W27315  16.579   4.337   0.988 -0.2208  0.3563 -0.1167
13902W        W27316   7.022  12.886   2.710  0.0191 -0.3592  0.1428
13903W        W27317  16.991   5.026  14.059  0.1390 -0.0597  0.1951
13904W        W27318  13.259  13.394   3.490  0.2053  0.2241  0.3205
13905W        W27319  15.576   0.115   4.688  0.1172  0.0099 -0.0741
13906W        W27320   6.243   8.438   1.977 -0.0113 -0.3261  0.1396
13907W        W27321   5.024   5.511   5.161 -0.1541  0.0414  0.0611
13908W        W27322   4.301   2.596  15.295  0.0117 -0.0311 -0.2733
13909W        W27323  12.784   2.307   0.295 -0.1062  0.1975  0.1205
13910W        W27324   4.759   3.473   0.157 -0.3040  0.0880 -0.0476
13911W        W27325   4.767  10.363   4.356  0.0485  0.0347  0.0543
13912W        W27326  10.533   6.415   3.978 -0.3081 -0.1554 -0.3116
13913W        W27327   0.135  12.598  15.464 -0.3432 -0.2465  0.0087
13914W        W27328  16.196  17.236  11.988  0.3036  0.3952  0.0691
13915W        W27329  17.949  18.178   1.199  0.1087  0.2323 -0.0674
13916W        W27330   7.266   1.071  15.895  0.0088 -0.0938 -0.2134
13917W        W27331   6.188   4.783   3.236 -0.0551  0.3323 -0.1834
13918W        W27332  13.108   8.430   1.149 -0.0831  0.4537  0.2316
13919W        W27333   8.623  11.495   2.293 -0.1035  0.0516 -0.2276
13920W        W27334   7.732  17.438  12.562  0.3301  0.0038 -0.0483
13921W        W27335  14.631   2.015   0.172 -0.1942 -0.1023  0.0398
13922W        W27336  15.354   1.535   0.377  0.1801 -0.0150  0.2443
13923W        W27337  18.179  13.713   2.852  0.1174 -0.1908 -0.1922
13924W        W27338  15.220  10.141  13.254  0.0202 -0.0628 -0.0644
13925W        W27339   7.707  12.291  10.893  0.0785  0.0169  0.3292
13926W        W27340   1.544  15.945   1.013  0.0075  0.3709 -0.1549
13927W        W27341   3.865  12.252  13.804 -0.3868  0.0570  0.1539
13928W        W27342   8.270   9.986   3.499 -0.3013  0.1374  0.0485
13929W        W27343   9.954  10.358   9.789 -0.3363  0.0654  0.1566
13930W        W27344   8.847  10.604   0.155  0.0177  0.2433  0.0848
13931W        W27345  14.969   5.433  14.233 -0.1152 -0.0906  0.1403
13932W        W27346   2.492   1.837   0.980  0.0251 -0.2179 -0.1474
13933W        W27347   6.003   9.527  12.390 -0.3442  0.1682  0.1173
13934W        W27348   2.743   7.694   2.486  0.0320  0.0751  0.4290
13935W        W27349  16.650   1.880   5.327 -0.0810 -0.0469  0.2192
13936W        W27350   7.168   6.616   1.312  0.1172  0.0957  0.4374
13937W        W27351  15.033   5.631   2.998  0.0343  0.2938  0.2134
13938W        W27352   1.887   3.710   0.284 -0.1268  0.1319 -0.2128
13939W        W27353  13.806   4.069  12.541  0.2258 -0.5247 -0.0138
13940W        W27354   9.499   8.613  16.226 -0.0470 -0.1114 -0.0088
13941W        W27355   4.225   2.228   5.935  0.1561 -0.1875 -0.0993
13942W        W27356  18.166   6.516   2.653 -0.3126 -0.1071  0.4838
13943W        W27357  15.385  15.597   2.635 -0.0872 -0.1351  0.0884
13944W        W27358  15.755  14.163   2.458  0.0008  0.3079  0.2043
13945W        W27359   6.737  15.526  13.435 -0.3916 -0.1725  0.1788
13946W        W27360   9.868  15.948  13.509 -0.1053 -0.0886 -0.1011
13947W        W27361   4.319  14.891   1.193 -0.0450 -0.1322  0.0601
13948W        W27362  11.079   1.797  13.749 -0.0698 -0.0057 -0.1256
13949W        W27363  10.665   2.667  13.139 -0.1347  0.1670 -0.1671
13950W        W27364   1.910   1.719   3.411  0.2348 -0.0516  0.0093
13951W        W27365   0.246   7.833  10.862  0.1831  0.0320  0.1979
13952W        W27366   4.636   3.471   4.628  0.3631 -0.3386 -0.0733
13953W        W27367  15.065   4.024   3.643 -0.2347  0.0921  0.0407
13954W        W27368  16.647   7.694   3.070 -0.1062 -0.0131 -0.3705
13955W        W27369  14.365  17.321  14.682  0.0334 -0.0998 -0.2129
13956W        W27370   0.514   1.671   0.540  0.5116  0.0029 -0.2089
13957W        W27371  12.718   6.026   2.435  0.2103 -0.2053  0.1820
13958W        W27372   7.829  15.304  12.136 -0.0618 -0.1831 -0.0009
13959W        W27373  13.770   4.825  15.345  0.3744 -0.1669  0.2143
13960W        W27374   4.587  17.080  13.143 -0.0497  0.0515 -0.1648
13961W        W27375  10.468   0.419  13.438  0.1704  0.2188  0.2536
13962W        W27376  10.212   7.663   5.983 -0.0309 -0.2006 -0.1568
13963W        W27377  18.182  15.058   2.134  0.1878 -0.0055 -0.2643
13964W        W27378   9.652   4.593  11.321 -0.1108 -0.0774 -0.3197
13965W        W27379  17.425  15.715   1.920 -0.1978 -0.0689 -0.1027
13966W        W27380   2.334   7.278  15.954  0.1108 -0.0297 -0.0666
13967W        W27381  15.551  11.356   5.730 -0.0439  0.2696 -0.0670
13968W        W27382  17.829   0.030  15.561  0.0683 -0.3463  0.0033
13969W        W27383  17.614  10.697  15.527 -0.1748  0.1198 -0.0737
13970W        W27384   9.948   9.696   2.151  0.1300 -0.0801  0.0836
13971W        W27385   9.400  16.193   0.351 -0.1147 -0.1308 -0.1881
13972W        W27386   2.852  11.801   4.533  0.2423 -0.1435 -0.0142
13973W        W27387  17.463  16.347   4.132 -0.0474 -0.0073  0.1770
13974W        W27388   1.944  18.278  15.870 -0.0562 -0.1323 -0.1759
13975W        W27389  14.261   3.724   2.205  0.0005 -0.0291 -0.0273
13976W        W27390  12.113   5.317   5.474 -0.1284 -0.2430  0.1088
13977W        W27391   6.067   8.585   0.408  0.0560 -0.0791 -0.1734
13978W        W27392  17.820  14.780  14.261  0.2405  0.0562  0.1140
13979W        W27393   5.507   5.957   3.788  0.0211  0.0066  0.0936
13980W        W27394  10.734  15.013   3.247 -0.1128  0.0735 -0.0475
13981W        W27395   3.100  17.179  14.146  0.0955 -0.2112 -0.0934
13982W        W27396  11.738   5.792  13.207  0.0998  0.1907 -0.0939
13983W        W27397  17.924   0.824   4.949  0.1384  0.1807 -0.0436
13984W        W27398  11.260   9.878  15.197 -0.0809  0.0800  0.1006
13985W        W27399  14.527  16.807  14.809 -0.0858  0.0903  0.1823
13986W        W27400   3.874  11.625   5.113 -0.0678 -0.1000  0.1689
13987W        W27401  12.099  16.580   2.244  0.0390 -0.2606  0.1383
13988W        W27402   8.166   0.044  11.229 -0.1249  0.0217  0.1699
13989W        W27403  14.596  17.442  10.206 -0.0568 -0.0260 -0.0645
13990W        W27404   0.095   3.966   1.591  0.2096  0.3429 -0.2209
13991W        W27405  16.899   5.210   1.630  0.1158 -0.2577  0.0545
13992W        W27406  11.044  14.775  11.602  0.0292 -0.0514 -0.0409
13993W        W27407   0.386  13.245  13.784  0.2341 -0.0038  0.1418
13994W        W27408  18.020   1.218   5.171  0.2204  0.1188 -0.1230
13995W        W27409   1.827   7.758   3.028 -0.0837  0.1418  0.1479
13996W        W27410   6.510  18.223  14.660 -0.0820 -0.4275 -0.0351
13997W        W27411   1.452  16.918  15.135  0.1987  0.4741 -0.1271
13998W        W27412  13.484   2.915  13.840 -0.1608 -0.2096  0.0914
13999W        W27413   3.069  16.962   5.937 -0.0656  0.0491  0.0967
14000W        W27414  12.690  12.301   1.514 -0.4813 -0.3111 -0.0394
14001W        W27415   6.229  13.882  11.925  0.1888  0.1114 -0.1294
14002W        W27416   0.538   1.536  15.115 -0.3698  0.0965  0.3162
14003W        W27417  15.434  18.286  12.195 -0.1235 -0.1296 -0.6149
14004W        W27418  13.633  15.507  14.389  0.2296  0.2212 -0.0989
14005W        W27419  13.624  12.351  14.153  0.0442  0.0628 -0.1726
14006W        W27420  17.979   5.929   0.972 -0.0658 -0.1154 -0.0491
14007W        W27421   5.008   5.138  13.957  0.0352  0.1608 -0.1880
14008W        W27422  16.106   4.711  10.497  0.1274  0.0004 -0.1786
14009W        W27423   6.898   9.939  12.671 -0.0323 -0.2492 -0.1549
14010W        W27424  10.244  16.940   3.552  0.0189  0.3168 -0.0578
14011W        W27425  17.039  13.793  14.140 -0.2760  0.4742 -0.0288
14012W        W27426   9.378   3.008   2.744 -0.3161 -0.0967  0.2208
14013W        W27427   9.154   5.074  12.941  0.2407 -0.0327 -0.1204
14014W        W27428   9.210  16.907  15.883 -0.0412  0.1878  0.0951
14015W        W27429  16.343  12.459   2.770 -0.0149  0.3181  0.1938
14016W        W27430  17.537   5.623  15.875 -0.3324  0.1035  0.0384
14017W        W27431   0.723   3.784   5.410 -0.0389 -0.1412  0.6279
14018W        W27432  15.617   8.104   2.630 -0.2372 -0.0653 -0.0127
14019W        W27433   8.561  17.009   4.111  0.1608 -0.3276 -0.0560
14020W        W27434   4.682  13.914  11.396 -0.3460  0.2556 -0.0822
14021W        W27435   4.784  11.885  13.678 -0.1721  0.0443  0.0663
14022W        W27436   0.949   0.209   4.937  0.1188 -0.0417  0.1414
14023W        W27437  12.266  14.293   4.959  0.2620  0.2384 -0.3146
14024W        W27438  16.829  13.532   0.160  0.1951 -0.1197  0.2796
14025W        W27439   5.273  10.210  10.629 -0.0773  0.0465  0.0319
14026W        W27440   7.275   0.167  13.496  0.0020 -0.0378 -0.0566
14027W        W27441  14.273  14.545   2.770  0.1295  0.1100  0.0325
14028W        W27442   3.513   4.311   0.279  0.1159 -0.2567 -0.0384
14029W        W27443   8.014  11.295   2.831 -0.0034  0.0890 -0.0780
14030W        W27444  15.640  11.521  14.842 -0.1558  0.1996  0.1325
14031W        W27445  13.429  10.961   4.096 -0.3114 -0.0658  0.1665
14032W        W27446   1.218  11.361  11.184 -0.1822 -0.0477  0.0289
14033W        W27447   5.517  12.016   2.889 -0.1509 -0.4394  0.0296
14034W        W27448  11.121  15.004   5.241  0.1183  0.0896  0.2134
14035W        W27449   0.404  16.563   0.353  0.0672 -0.1133 -0.0769
14036W        W27450  14.411   0.122   3.362  0.2168 -0.1029 -0.0313
14037W        W27451   8.149  14.328   3.297 -0.1054  0.1210 -0.1040
14038W        W27452  14.761   0.997  16.177  0.0804 -0.1588 -0.0387
14039W        W27453   6.338   3.363  12.395  0.2732 -0.2321 -0.2322
14040W        W27454  13.221   5.148   0.977  0.0566 -0.5612  0.0678
14041W        W27455   4.266   4.440   4.769  0.0803 -0.0351  0.2200
14042W        W27456  11.556  17.318   1.301  0.0136  0.2980  0.1266
14043W        W27457  14.518  18.429  15.195 -0.0794  0.1899  0.2244
14044W        W27458  17.383   6.340   6.144 -0.0127 -0.0925  0.4434
14045W        W27459   1.551  13.595  14.014 -0.0553  0.1103 -0.2699
14046W        W27460   0.226   5.351  11.181  0.0143  0.0914 -0.1733
14047W        W27461   5.109  18.328   3.869  0.0470  0.0182 -0.0774
14048W        W27462  17.056  10.221   2.897  0.1582  0.2382  0.1971
14049W        W27463   1.098  11.982   4.490 -0.0823  0.0677 -0.1605
14050W        W27464   5.480  10.570  12.449 -0.1518  0.1168 -0.1457
14051W        W27465   1.786   8.225  14.093  0.1881 -0.2750 -0.0370
14052W        W27466   6.356  11.238  15.611 -0.0810  0.1894 -0.0567
14053W        W27467  18.419   3.999   2.083  0.0087 -0.0811 -0.2946
14054W        W27468   3.193  17.360   2.142  0.0168  0.2337  0.2235
14055W        W27469   6.315   2.846  14.415 -0.1434 -0.1526 -0.1340
14056W        W27470   4.379   6.354  11.873 -0.2652  0.0966 -0.0511
14057W        W27471   2.414  18.351  13.880  0.0209 -0.0617  0.1936
14058W        W27472   8.864   3.147  11.194  0.1064  0.0243  0.1601
14059W        W27473   3.963  11.032  15.915 -0.2024  0.1565 -0.0217
14060W        W27474   4.883  10.809  15.704  0.0301  0.0981  0.0982
14061W        W27475   1.183  10.812   3.580  0.1224  0.1240  0.0478
14062W        W27476   0.014  12.152   6.128 -0.0275 -0.2712  0.1099
14063W        W27477   3.998  16.704   3.509  0.0454 -0.0471  0.0093
14064W        W27478  15.849   4.014  16.260  0.0631  0.1526  0.0018
14065W        W27479   4.512  14.415   1.236 -0.0116  0.0708 -0.0071
14066W        W27480   5.633   0.836   1.307 -0.0126  0.3864  0.1845
14067W        W27481   3.112  14.978   3.889  0.0294  0.1061  0.0027
14068W        W27482   4.855  14.722   5.870 -0.1174 -0.1314 -0.2296
14069W        W27483  12.364  16.435   4.082  0.0308  0.0498 -0.0011
14070W        W27484   7.170   5.503  11.093 -0.0733 -0.0232 -0.2248
14071W        W27485  16.200  11.373   4.802 -0.1239  0.1343  0.2084
14072W        W27486  11.869  11.292   0.954  0.1158  0.1512  0.1295
14073W        W27487  17.277  15.963  14.512 -0.0994  0.0588 -0.1164
14074W        W27488  10.858  14.277   1.112 -0.0730 -0.1205  0.0967
14075W        W27489   8.922  11.421  14.397  0.1857 -0.2300 -0.2317
14076W        W27490  10.134  18.155   5.316 -0.0477  0.0684  0.0058
14077W        W27491   3.960   9.956   0.797 -0.2490  0.1496 -0.1844
14078W        W27492  12.880   1.687  11.417 -0.3907  0.0376  0.0566
14079W        W27493   2.449  14.674   5.867 -0.0628  0.2771 -0.0367
14080W        W27494  16.401  12.358  12.632 -0.0647  0.0634 -0.1419
14081W        W27495   0.117  17.020   3.045  0.0059 -0.1594  0.1493
14082W        W27496   7.139   8.325   4.362  0.3153 -0.3611  0.0982
14083W        W27497  15.752  10.810  13.567 -0.2578 -0.0249  0.1365
14084W        W27498   5.435  13.140  14.916 -0.1104 -0.0293  0.2506
14085W        W27499   4.064  16.161   3.539  0.1508 -0.0328 -0.3701
14086W        W27500   4.486   7.289   3.346  0.0582  0.0162 -0.1505
14087W        W27501   7.617   2.912   2.123  0.2280  0.0383  0.1875
14088W        W27502   5.328  15.989   3.397 -0.1062 -0.0311  0.2091
14089W        W27503   9.337   6.699  11.908  0.0095  0.0797  0.0003
14090W        W27504   2.427   4.676   5.016  0.3302  0.0289  0.3197
14091W        W27505   6.587   6.891   5.320 -0.0838 -0.0311  0.1046
14092W        W27506   1.229  16.282  11.360 -0.0930 -0.0307 -0.2239
14093W        W27507  16.392   5.536   1.588  0.0550  0.0109  0.0563
14094W        W27508   3.122   0.382   5.954  0.0538 -0.0510 -0.0884
14095W        W27509  11.942   6.525  10.522  0.1015  0.2588  0.2420
14096W        W27510  18.097   2.462  10.770 -0.0776  0.2096  0.1420
14097W        W27511  18.131   5.327  10.359 -0.3563  0.0038  0.0656
14098W        W27512   2.182   4.167  14.960 -0.2334  0.0941 -0.0117
14099W        W27513   5.276   3.709   0.220  0.2213  0.1564 -0.0766
14100W        W27514   9.088  13.189   2.151  0.3512 -0.3744 -0.3330
14101W        W27515   8.042  11.903   1.630 -0.2142  0.4746  0.0403
14102W        W27516  15.897  13.610  11.987  0.1376 -0.1498  0.2001
14103W        W27517  12.204   2.873   3.674  0.2124 -0.0738 -0.0132
14104W        W27518  16.266  12.191   1.892  0.0071 -0.0243 -0.3760
14105W        W27519   7.127  11.031   0.443 -0.0001  0.0618 -0.3672
14106W        W27520   3.052  15.392  14.269 -0.0950 -0.0510 -0.1472
14107W        W27521   0.477   2.209   0.658 -0.1699 -0.2400 -0.2871
14108W        W27522  12.227   7.986  16.047  0.0419  0.0111  0.2675
14109W        W27523   7.366  12.414   1.374  0.0090 -0.1545  0.0648
14110W        W27524   5.490  13.069   4.131 -0.3428 -0.0324 -0.0911
14111W        W27525   9.530  17.694  13.695 -0.1336 -0.0132 -0.1259
14112W        W27526   2.470  17.844   4.421  0.3544  0.1165  0.2741
14113W        W27527  10.819   3.406   3.790  0.0628  0.0807  0.1247
14114W        W27528   4.240  12.078  14.143 -0.3352  0.2379 -0.1196
14115W        W27529   0.474   0.584   5.128  0.0603  0.0604 -0.0446
14116W        W27530  11.141  14.385   2.334  0.0963  0.0528 -0.0065
14117W        W27531   5.397   3.071   5.041 -0.0523  0.0225 -0.0418
14118W        W27532  12.382   7.269   5.494  0.1598 -0.3044  0.4193
14119W        W27533   2.457   2.681  11.362  0.0848 -0.2182 -0.0354
14120W        W27534  10.383   0.926  12.642  0.0240 -0.4860  0.0443
14121W        W27535  17.396  13.894  14.514  0.0928 -0.0374  0.3225
14122W        W27536  10.334   5.150   1.265  0.0599 -0.0753  0.0694
14123W        W27537  12.054   0.983  13.033  0.0305 -0.0781  0.1653
14124W        W27538  14.572  16.544  12.685 -0.0399 -0.4234  0.0367
14125W        W27539   4.817  13.820  10.476 -0.0703  0.1226 -0.0358
14126W        W27540   4.181  18.280  11.395  0.3749  0.1129  0.0276
14127W        W27541  17.767  10.796   1.901  0.5179  0.2010  0.2483
14128W        W27542  16.449  15.979  14.932 -0.1645 -0.3480 -0.1866
14129W        W27543   4.008   5.332   0.230 -0.0545  0.1960 -0.1062
14130W        W27544  11.939  14.677   0.669  0.1607  0.1215  0.0311
14131W        W27545   2.968  12.145  14.243 -0.2079  0.4062 -0.1778
14132W        W27546  13.213   0.911  12.398  0.1254 -0.0640 -0.2249
14133W        W27547  10.553   7.383   5.596 -0.1017  0.1860 -0.1734
14134W        W27548  15.120   5.699   3.531 -0.2523  0.1725 -0.4040
14135W        W27549   3.421  14.485   0.005  0.0881  0.1329 -0.3142
14136W        W27550   6.636  11.814  10.010  0.0042 -0.0952 -0.1720
14137W        W27551  14.239   1.746   9.950 -0.0327  0.1487 -0.1220
14138W        W27552   2.303   7.507   3.696  0.0007 -0.1467 -0.0409
14139W        W27553  14.340  11.122  10.989  0.0543 -0.0696  0.0458
14140W        W27554   4.251  18.413  12.296 -0.3350 -0.0052  0.2691
14141W        W27555   3.626  10.526   3.578 -0.0697  0.2454  0.0562
14142W        W27556   6.777  13.757   2.553 -0.2172 -0.0143  0.0436
14143W        W27557   1.796  18.209  14.464  0.0133  0.2365  0.1587
14144W        W27558   8.201  10.009  10.421  0.0440  0.0922  0.0953
14145W        W27559  12.581  18.185   0.266  0.0451  0.0441 -0.2195
14146W        W27560  13.266  17.480   0.520  0.0291  0.0656 -0.2256
14147W        W27561   1.231  10.129   0.743  0.0851  0.2803 -0.1277
14148W        W27562  12.597  10.175  11.847  0.1003  0.1201  0.0385
14149W        W27563   2.446   8.249   1.316  0.0488  0.0640  0.3562
14150W        W27564   8.504   6.471   2.731  0.0690 -0.1337 -0.2168
14151W        W27565  11.889  12.183  14.341 -0.1878 -0.3314  0.2141
14152W        W27566   1.604  13.976  14.393 -0.1763 -0.1762 -0.1410
14153W        W27567   7.956  10.885   1.587 -0.1791  0.0863 -0.0982
14154W        W27568  16.116   9.519  11.661  0.2369 -0.1730 -0.1061
14155W        W27569  13.005   7.717   3.205 -0.1893  0.0803 -0.0712
14156W        W27570  17.865  12.784   5.298 -0.0075  0.3526  0.4209
14157W        W27571   0.859  10.005   5.986  0.3109  0.1131  0.2508
14158W        W27572   2.250  16.551   1.290  0.1578  0.1200  0.1876
14159W        W27573  10.215   5.083  12.787  0.0946 -0.0174 -0.1917
14160W        W27574  15.652   7.648   2.360  0.0370 -0.1155  0.0604
14161W        W27575  12.631  18.279   1.787  0.1648 -0.1900  0.2403
14162W        W27576  12.383   2.794  11.099  0.2526 -0.2035 -0.2565
14163W        W27577  11.558  17.567   2.253 -0.0272 -0.0486  0.2650
14164W        W27578  16.262   8.975   3.843  0.0360  0.2365  0.0618
14165W        W27579   2.045  15.675   2.794 -0.1333 -0.0466 -0.1888
14166W        W27580  14.431  18.066  15.581 -0.1817 -0.3175  0.1538
14167W        W27581   5.307   3.044  11.661 -0.2761  0.2388 -0.0927
14168W        W27582   7.756  15.685   3.603  0.0321 -0.0231 -0.0821
14169W        W27583  15.612   5.242   6.162 -0.1443 -0.0590  0.4343
14170W        W27584  12.546   4.773   5.219  0.2372  0.1040 -0.0690
14171W        W27585  14.636  16.144   2.572 -0.1595  0.2844  0.0141
14172W        W27586   5.850   3.599  13.769 -0.2357 -0.4435 -0.1034
14173W        W27587   1.879   5.237   5.161  0.0103  0.0840  0.1100
14174W        W27588   5.283  11.195  16.025  0.1533 -0.1763  0.0505
14175W        W27589   9.324  13.118  15.372 -0.0768 -0.0044  0.1521
14176W        W27590  14.387   6.400  11.525 -0.0140  0.1537 -0.1377
14177W        W27591  15.535  11.736  12.005 -0.2023  0.0041 -0.1537
14178W        W27592   9.990   1.517  13.460 -0.0545 -0.2336 -0.1926
14179W        W27593  14.262   3.810   5.747 -0.0685  0.2531  0.1750
14180W        W27594   2.140  11.116  11.189  0.1670 -0.1053  0.3315
14181W        W27595  12.621   8.746  12.357  0.2091 -0.0019 -0.0673
14182W        W27596  10.844   1.683   5.769  0.0537  0.0423 -0.0870
14183W        W27597  13.761   6.581   2.358  0.0128 -0.2270 -0.0195
14184W        W27598   1.894  15.467  12.931  0.1241  0.1189  0.1399
14185W        W27599  14.561  12.472   3.289  0.1096  0.0334  0.1796
14186W        W27600  13.125   1.290  14.831 -0.0536 -0.1755 -0.0512
14187W        W27601  13.193   4.996   4.434 -0.0716 -0.0392  0.0825
14188W        W27602  15.985   6.325   0.695  0.2859 -0.1828 -0.3774
14189W        W27603  17.486   9.143   0.399 -0.1478 -0.1594 -0.2335
14190W        W27604  13.094   6.411  12.298 -0.0367  0.1047  0.3946
14191W        W27605   8.676  13.654   9.886 -0.0352  0.1083 -0.0468
14192W        W27606   0.128  15.875   1.831  0.2879  0.0929 -0.1950
14193W        W27607   9.170   7.372   4.801 -0.2915 -0.0572  0.1516
14194W        W27608  17.563  10.983   0.237  0.3011  0.0600 -0.1235
14195W        W27609   0.975   3.039   2.472 -0.2909 -0.0475  0.0698
14196W        W27610   1.950   8.666  16.226 -0.1682  0.2432 -0.0696
14197W        W27611   8.516   0.489   3.702 -0.0983  0.1470  0.0072
14198W        W27612  17.389  14.331   4.472  0.1688 -0.1083 -0.2891
14199W        W27613  12.256   7.952   4.390  0.1192  0.5356 -0.0329
14200W        W27614   6.513  16.465   5.662 -0.0053 -0.1656  0.1823
14201W        W27615  12.511   4.226   0.255 -0.0479 -0.0689  0.0532
14202W        W27616  12.597   6.926   2.728  0.1982 -0.2762 -0.0577
14203W        W27617  11.400   7.120  13.578 -0.0719  0.2438  0.1411
14204W        W27618   7.097  17.576   4.783 -0.0270 -0.0130 -0.0026
14205W        W27619   3.966  14.414  13.745 -0.0250  0.1455 -0.1376
14206W        W27620  17.033  12.065  11.424  0.0695  0.4234  0.2378
14207W        W27621   5.253  13.053  12.246 -0.1658  0.1527 -0.1549
14208W        W27622   9.442   6.579   1.451  0.2992  0.2254 -0.3219
14209W        W27623  17.442   8.013   3.069  0.1050  0.1946 -0.5119
14210W        W27624   4.422   7.510  14.355 -0.3893  0.0528 -0.1067
14211W        W27625  10.377   1.927   3.262  0.1389  0.1270  0.0110
14212W        W27626  15.407  17.796  11.351  0.0079  0.0067 -0.1665
14213W        W27627  16.655   9.190  13.799 -0.1405 -0.2443  0.1313
14214W        W27628   8.911   9.821   4.726 -0.2250 -0.0223  0.1445
14215W        W27629   0.754   9.718   4.883 -0.2799 -0.0933 -0.5839
14216W        W27630  14.024   1.926  12.313  0.1510  0.1218 -0.1684
14217W        W27631   9.841   4.192  14.314  0.1503  0.0985  0.0763
14218W        W27632  10.193   2.756   3.889 -0.3616 -0.0863  0.1862
14219W        W27633   2.236  16.055  13.538 -0.0536  0.1514  0.1000
14220W        W27634  15.178   9.022  12.495 -0.3925  0.5621  0.0133
14221W        W27635   2.210   9.490   2.769  0.0819  0.0378  0.0111
14222W        W27636   2.395  14.529  10.703 -0.1279 -0.0412 -0.0225
14223W        W27637  14.538  10.778  15.719 -0.0191 -0.0995 -0.0254
14224W        W27638  13.484  17.686   0.122  0.1351  0.4758 -0.2440
14225W        W27639   6.105   3.344  12.902 -0.3672  0.0295  0.0297
14226W        W27640   1.412  12.860   1.441  0.0115  0.1027  0.0184
14227W        W27641   1.574   2.726   1.228 -0.2363  0.0389  0.1838
14228W        W27642  12.646   4.659  13.859  0.1705 -0.0685 -0.2221
14229W        W27643  11.499  15.406  11.041  0.0080 -0.3537  0.2544
14230W        W27644  11.930  12.331   0.488  0.1573  0.1575  0.1837
14231W        W27645   4.159   6.159  14.814 -0.0612  0.1831 -0.1679
14232W        W27646  13.607  16.170  12.117 -0.2019 -0.0331  0.0703
14233W        W27647   2.008   3.053   4.897  0.2596 -0.2014  0.3228
14234W        W27648  11.520  12.216  15.628  0.0691 -0.0297 -0.1647
14235W        W27649   0.124   8.698  13.731 -0.1689 -0.0623  0.1016
14236W        W27650  13.917   7.543  14.071 -0.0161 -0.2662  0.1102
14237W        W27651  15.758   8.634  11.783  0.1477 -0.1734 -0.0164
14238W        W27652   9.315  16.042   4.255  0.0871  0.1647  0.0730
14239W        W27653   8.059   0.580   3.482  0.1302 -0.1372 -0.1146
14240W        W27654   2.813   2.580   1.828 -0.1239 -0.1850  0.0471
14241W        W27655   1.863   5.151   1.527  0.0666 -0.0031  0.0508
14242W        W27656   0.862   4.660   2.772  0.0104  0.3455  0.0392
14243W        W27657   1.870   4.378   3.392  0.2167 -0.2012 -0.0144
14244W        W27658  11.907   6.285  13.305  0.3017 -0.2340 -0.2681
14245W        W27659  17.175   1.291   4.823  0.2998  0.0043 -0.0718
14246W        W27660  13.075   5.252   5.234 -0.0845  0.0430  0.2074
14247W        W27661   4.351   8.496  15.007  0.0127 -0.2431  0.0876
14248W        W27662   8.770  16.656  16.047 -0.0009 -0.1064  0.0028
14249W        W27663   3.651   7.018   9.994 -0.0025  0.1677 -0.1131
14250W        W27664   1.193   5.059   2.959  0.1003 -0.0684  0.2430
14251W        W27665   0.621   1.691   3.787 -0.2071 -0.1906 -0.1206
14252W        W27666   4.825  13.074  11.907  0.0749  0.2215  0.3398
14253W        W27667   7.883   8.294   2.680 -0.0086  0.1507  0.1756
14254W        W27668  14.401  18.071  14.059 -0.4277 -0.0041 -0.1516
14255W        W27669  16.497   5.342  16.126  0.1681 -0.4841 -0.1434
14256W        W27670   0.758  13.151  13.491 -0.2359 -0.3848  0.0869
14257W        W27671   3.685   3.783   5.245  0.0674  0.0939  0.0311
14258W        W27672   1.240   8.994  14.607  0.0340 -0.0250  0.0843
14259W        W27673  13.593   2.522   2.024 -0.0901 -0.0895 -0.0374
14260W        W27674   2.484   0.691   4.253 -0.0722 -0.2603  0.0528
14261W        W27675   6.405  14.622  15.598  0.0918 -0.1132  0.0099
14262W        W27676   4.134  10.628   2.557  0.2449 -0.2355 -0.2617
14263W        W27677  11.803   0.111   3.549  0.1175  0.1201  0.0118
14264W        W27678   6.136  14.790  12.480 -0.0115 -0.1685  0.0688
14265W        W27679   1.863  14.735  13.447 -0.2436 -0.1018 -0.2439
14266W        W27680  12.702   6.211  12.068 -0.2207 -0.1342 -0.1098
14267W        W27681  12.272   2.249   3.381  0.0574  0.2448 -0.0074
14268W        W27682  17.695  10.236  15.748  0.1801 -0.4291 -0.0530
14269W        W27683   0.096  12.685   3.028  0.1034 -0.1825  0.1123
14270W        W27684   5.557   2.889  15.085 -0.1113 -0.1212 -0.1193
14271W        W27685   3.180  16.389   1.112  0.1153  0.0574 -0.0794
14272W        W27686  16.854  11.182   0.790  0.1717  0.0630 -0.0068
14273W        W27687   1.257   2.831  13.842  0.3209 -0.1587  0.2746
14274W        W27688  12.781  10.045   5.863  0.0983 -0.2720  0.2560
14275W        W27689  11.491  10.635   2.776 -0.4530 -0.0318 -0.0225
14276W        W27690   4.884   3.729  13.584 -0.1271  0.2085 -0.2483
14277W        W27691   1.045  12.950   4.820 -0.0131 -0.3741  0.0181
14278W        W27692  10.717   5.444  16.237  0.1323  0.1007  0.0374
14279W        W27693   7.437  11.433   5.706 -0.2242  0.0884 -0.4166
14280W        W27694  18.363   8.927   0.721  0.1874 -0.2176 -0.0102
14281W        W27695  12.709  15.087  12.450 -0.3688 -0.0604  0.3639
14282W        W27696   3.221  12.829  16.175 -0.1864 -0.1603 -0.0132
14283W        W27697  15.188   7.957  14.889  0.1651 -0.0519 -0.1909
14284W        W27698   9.404  12.658  10.767  0.2135  0.0382 -0.1926
14285W        W27699  15.723   7.119   1.914 -0.0613  0.0197 -0.1496
14286W        W27700   4.344   2.395  13.193  0.1543  0.3965 -0.0934
14287W        W27701   1.883   1.139   1.533 -0.3241 -0.2126  0.2398
14288W        W27702   1.908  13.130   1.604 -0.0186  0.1505  0.0103
14289W        W27703   0.974  12.074   4.008  0.1868  0.1910  0.1935
14290W        W27704  14.178  10.236  14.157  0.0320 -0.1304  0.1253
14291W        W27705  16.774   7.732   1.847  0.1553  0.0328 -0.2314
14292W        W27706  12.677   8.803  15.711  0.0426 -0.2313 -0.0804
14293W        W27707  13.529  17.495   1.584  0.1311  0.2242 -0.3468
14294W        W27708   0.147   0.612   5.911  0.1630 -0.1117  0.1061
14295W        W27709   8.618   1.815  14.149  0.0545 -0.0041 -0.1614
14296W        W27710   6.819   5.177   0.570  0.0816 -0.2065  0.1187
14297W        W27711   1.052   1.190   1.802 -0.2245  0.0214 -0.2320
14298W        W27712   2.375   7.456   0.200  0.0314 -0.0262  0.1579
14299W        W27713  15.419  11.501   0.755  0.1102 -0.2596 -0.4675
14300W        W27714   2.673  18.273   3.943 -0.0436 -0.0948  0.0230
14301W        W27715  18.288  13.842  10.798 -0.0863  0.1300 -0.2058
14302W        W27716   8.120  11.618   5.137 -0.2230 -0.0320  0.1558
14303W        W27717  14.687  13.965  12.077 -0.0255 -0.1001  0.2666
14304W        W27718  17.603  16.177   6.273 -0.2166  0.1984  0.2684
14305W        W27719   3.005  10.225   5.155  0.3510  0.0182 -0.3116
14306W        W27720   2.288   1.287  16.171 -0.1117  0.0073 -0.0176
14307W        W27721   3.940   6.352  13.172  0.0258 -0.2145 -0.1418
14308W        W27722  17.906   3.014   0.833 -0.4056  0.3652  0.1342
14309W        W27723   8.633   4.327  14.141 -0.2186 -0.2477 -0.1029
14310W        W27724  14.432  11.812  12.190 -0.2588 -0.1339 -0.0207
14311W        W27725  14.370   7.573  14.327  0.3918  0.0355  0.0042
14312W        W27726   3.124  14.293   0.692 -0.0712  0.1070  0.1246
14313W        W27727   8.628  10.209  13.125  0.0336  0.1577 -0.1890
14314W        W27728  10.773   3.390   3.139  0.1180 -0.1585 -0.0955
14315W        W27729   7.959   3.017  11.171 -0.2469 -0.2310  0.2046
14316W        W27730   1.836  11.865   5.785 -0.4171  0.0773  0.2054
14317W        W27731   4.497  17.376   1.683  0.3326  0.1532 -0.0680
14318W        W27732   2.432   8.122  12.611  0.0189  0.2193  0.1775
14319W        W27733  10.637   5.551   1.451  0.0590  0.0210  0.1796
14320W        W27734   7.235  12.047   3.786 -0.0891  0.0185 -0.0835
14321W        W27735   8.543  11.445   3.739 -0.0933 -0.1372 -0.1279
14322W        W27736  13.097  10.880  13.934  0.0375  0.1517  0.0386
14323W        W27737   7.866   9.254  15.643 -0.0520 -0.0069 -0.0103
14324W        W27738  14.074  13.247   3.334  0.3588 -0.4593 -0.2941
14325W        W27739  14.163  13.494   3.784  0.4113  0.1304 -0.1947
14326W        W27740   5.154   1.383   4.779 -0.2263 -0.1431  0.1218
14327W        W27741  15.623  15.087   2.444 -0.0035  0.2989  0.1776
14328W        W27742  10.402  10.212   1.424 -0.2418  0.1822 -0.2252
14329W        W27743  18.344   2.835   3.806 -0.0204 -0.1635 -0.0454
14330W        W27744  11.650  13.494  12.343 -0.1382  0.1093  0.0688
14331W        W27745   8.941   8.293  14.936 -0.1855 -0.0556  0.0139
14332W        W27746   2.239  13.065  10.860  0.0446  0.1836  0.0198
14333W        W27747   5.497   0.207  14.327  0.1675  0.1731 -0.0276
14334W        W27748  13.872   2.149   1.340  0.2842 -0.1540  0.2736
14335W        W27749   3.889   4.993   0.571  0.1147  0.1721 -0.1455
14336W        W27750   5.105   8.540  15.467  0.0635  0.1279  0.2820
14337W        W27751   8.888  12.813  14.050 -0.1550 -0.2091 -0.0787
14338W        W27752   7.504   2.681  15.114 -0.1978 -0.1059 -0.2273
14339W        W27753   9.932   8.984  11.015 -0.1599  0.4361  0.2537
14340W        W27754   1.042   4.582  12.017 -0.2805 -0.1829  0.1243
14341W        W27755   5.035   9.478   0.294 -0.1587  0.0331 -0.3160
14342W        W27756  13.044   9.130  14.599  0.1038  0.1103 -0.5423
14343W        W27757   0.696  12.414   3.828 -0.1740  0.2294  0.0987
14344W        W27758  12.281   9.121  13.929 -0.0317 -0.0389 -0.0806
14345W        W27759   6.949   3.339  14.002 -0.1456 -0.1788 -0.0881
14346W        W27760   3.072   7.634  12.189  0.0504 -0.3257  0.0812
14347W        W27761   7.354  14.787   5.154  0.1642 -0.3889  0.0911
14348W        W27762  16.338   7.429  13.945  0.2452 -0.2329  0.2490
14349W        W27763  13.493  14.370  14.305  0.3237 -0.0092 -0.1095
14350W        W27764   4.019   6.760   4.835 -0.0131  0.1443  0.0129
14351W        W27765   8.769   2.906   3.587  0.4176  0.1968  0.1624
14352W        W27766  11.297   5.363   2.901 -0.0256 -0.1943  0.2030
14353W        W27767  14.075  13.946   5.991  0.1056 -0.0704 -0.0295
14354W        W27768   4.246   9.735   4.313 -0.2390  0.0999 -0.2795
14355W        W27769  10.019  10.672  13.106  0.0738  0.1069 -0.1016
14356W        W27770   4.633   2.669   2.350  0.1828  0.0975 -0.2214
14357W        W27771  14.624   0.996  12.066  0.1434 -0.0740 -0.0607
14358W        W27772   5.972  17.751  13.599  0.1407 -0.1661 -0.1411
14359W        W27773  16.157  17.535  14.268  0.2113  0.1539  0.0325
14360W        W27774   0.990  16.062  14.814 -0.3688  0.2031  0.0937
14361W        W27775  15.107  16.966  15.097  0.2160  0.2774 -0.0155
14362W        W27776   6.360  16.042  10.327  0.0445 -0.1438 -0.0144
14363W        W27777  12.467   7.036  15.726 -0.1373 -0.1274  0.1415
14364W        W27778   4.363   8.216   3.729 -0.2059 -0.0126  0.0528
14365W        W27779  15.938  13.143   1.382  0.0195  0.1373  0.1702
14366W        W27780   5.215  18.443   1.806  0.3600 -0.0816  0.1967
14367W        W27781   1.992   5.174   4.250 -0.0881 -0.0976 -0.4984
14368W        W27782   6.362   5.268  13.821  0.1982  0.0832  0.0353
14369W        W27783   5.322   3.654   5.832 -0.2237 -0.2570 -0.0100
14370W        W27784   6.939  11.782  13.174 -0.2655 -0.1576 -0.3279
14371W        W27785  14.335   6.524  14.759 -0.0156  0.1698 -0.0070
14372W        W27786  14.093   8.841   2.445  0.1222 -0.1082  0.1831
14373W        W27787   2.364  16.810  15.487  0.5122 -0.1330 -0.1292
14374W        W27788   8.478   7.642  10.269  0.0530 -0.1472 -0.1062
14375W        W27789  18.179  14.054  11.280 -0.0355 -0.1476  0.1280
14376W        W27790   8.609   2.168   2.512  0.0774 -0.0626  0.2025
14377W        W27791   2.967   6.242   4.178 -0.0076 -0.3417  0.3826
14378W        W27792  10.334   6.605   5.678 -0.3447 -0.1190 -0.3544
14379W        W27793  17.315  17.079  15.167  0.2091 -0.2920 -0.2808
14380W        W27794   6.314  13.656   4.947 -0.2414 -0.0678 -0.3704
14381W        W27795   8.714   9.500  11.025  0.1352  0.2042 -0.0010
14382W        W27796   3.804  13.974   2.425 -0.0595  0.1648  0.2010
14383W        W27797   2.644   9.638   0.299  0.1600 -0.3165  0.1465
14384W        W27798  15.776   8.731   3.022 -0.1901 -0.1234 -0.1663
14385W        W27799   1.719   1.720  13.036  0.2576 -0.1452  0.2309
14386W        W27800   2.417  13.167   4.778  0.3075  0.3091 -0.0157
14387W        W27801   3.241   1.451  16.175 -0.4033  0.0872 -0.1966
14388W        W27802   7.879   8.266  11.989 -0.2382 -0.1429  0.0492
14389W        W27803   6.003  12.147   5.171  0.2082 -0.0217  0.0143
14390W        W27804  11.795   2.533  10.210 -0.2155 -0.1668  0.2471
14391W        W27805  13.632  10.503  14.152 -0.1685 -0.0181 -0.0453
14392W        W27806  16.469  14.550   0.046  0.0408  0.1251 -0.0729
14393W        W27807   1.550   1.873  12.084 -0.1705  0.0739 -0.1772
14394W        W27808   1.559  10.436   2.244 -0.0154  0.0175  0.1233
14395W        W27809  17.229   3.802  12.601  0.0589 -0.0683  0.0658
14396W        W27810  11.390   4.907  15.265 -0.1229  0.1066 -0.1812
14397W        W27811   0.028   4.900   2.503  0.0107  0.2927  0.1260
14398W        W27812   0.678   0.023   3.648  0.2488  0.0801 -0.1403
14399W        W27813   4.486   4.237   1.514  0.1089 -0.0986  0.0758
14400W        W27814  14.012   2.724   5.963 -0.0911  0.0561 -0.5469
14401W        W27815   0.913   8.944   0.866  0.2149 -0.0964 -0.2946
14402W        W27816   7.045   7.399   0.527 -0.0826  0.2468  0.0629
14403W        W27817  18.405   0.177  11.493  0.0511  0.0022  0.1665
14404W        W27818  17.245  18.021  15.088  0.0417 -0.0279  0.0583
14405W        W27819   2.314  15.136  14.728 -0.0504 -0.1562  0.0657
14406W        W27820  16.755   1.310   3.285 -0.5076 -0.1992  0.3856
14407W        W27821  17.001   3.786  13.636 -0.0852 -0.0092 -0.1559
14408W        W27822   7.074  17.459   5.263 -0.1704 -0.0086  0.1083
14409W        W27823   5.314   6.851  15.367 -0.0918 -0.2618 -0.1562
14410W        W27824   8.449  12.955   3.636 -0.0340 -0.0725 -0.0085
14411W        W27825   5.497   4.278   3.983 -0.0959  0.0842  0.1831
14412W        W27826   3.478   7.554   4.487 -0.1875 -0.0294 -0.2314
14413W        W27827  16.095  15.455   3.127  0.2581 -0.1045 -0.1365
14414W        W27828   0.438   8.343   1.565  0.0707 -0.0951 -0.3040
14415W        W27829  17.482   5.913   1.884 -0.1728  0.2420  0.2053
14416W        W27830  16.012  16.644   2.978 -0.2717  0.1242 -0.2201
14417W        W27831   5.196   2.082  11.864 -0.0520  0.2734  0.3355
14418W        W27832   7.079  16.315   5.773 -0.1097  0.0171 -0.1512
14419W        W27833  18.409  12.707  14.869  0.3648  0.1747  0.0488
14420W        W27834  13.102   8.784   1.587  0.2115  0.2147 -0.2510
14421W        W27835   4.349   2.130  14.976  0.4025 -0.0882  0.0261
14422W        W27836   2.520  12.854   2.454  0.2392 -0.3721  0.0854
14423W        W27837   2.283   7.505   2.385 -0.2637  0.1845  0.0152
14424W        W27838   7.776  17.539   3.829 -0.0941 -0.2687 -0.2525
14425W        W27839  18.385  18.168   5.801  0.0891 -0.1273  0.0326
14426W        W27840  13.090  14.007  13.296  0.0834 -0.4238  0.0212
14427W        W27841  18.001   9.640   5.104 -0.0492 -0.1069 -0.0483
14428W        W27842  13.911   8.436   0.516 -0.0215  0.1516 -0.2520
14429W        W27843  12.230   6.725  10.911 -0.3049  0.0318  0.3558
14430W        W27844  10.817   9.851  12.533  0.2486  0.0237  0.0532
14431W        W27845  15.168  15.369   2.208 -0.2382  0.0923  0.3220
14432W        W27846  18.421  13.516  15.965  0.0907  0.0708  0.0591
14433W        W27847   7.247  15.031  16.154 -0.1698 -0.1589 -0.0491
14434W        W27848   6.709  13.272  15.794 -0.1705  0.0763 -0.0848
14435W        W27849   7.116   2.398  10.373  0.0020 -0.1292  0.0698
14436W        W27850   4.905   4.794  12.078 -0.0053  0.0784 -0.2465
14437W        W27851  14.070  13.705  13.795  0.1297  0.0275  0.1567
14438W        W27852   7.498  16.807   9.989  0.0028  0.2290  0.2044
14439W        W27853  17.014  18.386   5.469  0.3082 -0.1622 -0.0299
14440W        W27854  16.843  15.598  14.584  0.0189  0.1350  0.1195
14441W        W27855   1.099  13.747  15.467 -0.0469  0.1749  0.0254
14442W        W27856   1.099   1.338  10.258  0.1156 -0.0947 -0.3249
14443W        W27857  13.861   9.494  14.403  0.2246 -0.0982 -0.1234
14444W        W27858   7.860  14.370  14.273 -0.3119  0.0074  0.0607
14445W        W27859   8.108   2.543   5.003 -0.1643  0.2397 -0.1803
14446W        W27860  15.831   1.718   2.234  0.1624 -0.2057 -0.0007
14447W        W27861   2.468   0.719  13.469 -0.1717  0.0417 -0.0849
14448W        W27862   2.111   4.229  13.550 -0.2247 -0.1921 -0.0803
14449W        W27863  15.567   5.759   3.307 -0.1720 -0.1548  0.0778
14450W        W27864   7.765  12.313  13.483  0.2566  0.0088  0.0456
14451W        W27865   1.869  16.784  15.618 -0.0557  0.2170 -0.2443
14452W        W27866  11.177   1.927   0.182 -0.2076 -0.0875 -0.2060
14453W        W27867  14.458   7.915  15.602  0.0790  0.0573 -0.1814
14454W        W27868   4.340  10.422  14.769 -0.1596 -0.2295  0.2070
14455W        W27869   0.990  18.234  13.150 -0.0822  0.1291 -0.2193
14456W        W27870  15.343  12.710  15.532  0.1061 -0.1617  0.1985
14457W        W27871   0.255   9.382   4.869  0.0635 -0.1394  0.1065
14458W        W27872   5.462   9.757   4.387  0.0763 -0.0399 -0.1637
14459W        W27873  11.798   2.720   0.330  0.1382  0.2071 -0.1178
14460W        W27874   6.593  10.059  11.476 -0.1508  0.1868  0.0187
14461W        W27875  13.766  11.541  12.751 -0.3122  0.1035 -0.2851
14462W        W27876   0.019   1.888   2.195  0.0674 -0.1126 -0.2639
14463W        W27877  12.872   0.445  12.958  0.0982  0.0781 -0.2232
14464W        W27878  14.944  10.015   3.009 -0.0320  0.0521 -0.2983
14465W        W27879   8.426   1.420  11.419  0.3434 -0.0994  0.0706
14466W        W27880  17.685   9.369  11.066 -0.0605  0.0475  0.0896
14467W        W27881   5.232  14.129   2.771 -0.0157  0.0939 -0.0509
14468W        W27882   4.150  16.344   5.412 -0.0725  0.2428 -0.1264
14469W        W27883   4.708  12.482   2.773 -0.1833 -0.0597  0.0208
14470W        W27884  17.816  12.382  13.720 -0.0481 -0.4939 -0.1954
14471W        W27885   6.776  10.667   3.133 -0.0029  0.0584  0.3265
14472W        W27886  12.072   1.259  13.439  0.1461  0.1573 -0.3378
14473W        W27887   3.542   9.913   0.471 -0.2874 -0.2864 -0.2698
14474W        W27888   1.685   2.263  10.818 -0.0667  0.3528 -0.1895
14475W        W27889  18.284   3.849   3.849 -0.0469  0.1855  0.1355
14476W        W27890  14.010  14.600   0.719 -0.0272  0.1943  0.1488
14477W        W27891  15.469   5.642  11.146 -0.2105  0.2102 -0.0527
14478W        W27892  17.459  12.889   0.162  0.2945  0.1855  0.0131
14479W        W27893   9.777  11.979   2.706 -0.4863 -0.3404 -0.3619
14480W        W27894   2.532  12.217  11.261  0.0271 -0.3120 -0.1072
14481W        W27895  18.029   0.988   1.631  0.1202 -0.0314  0.0005
14482W        W27896   3.834   0.009   0.609  0.2178 -0.1098 -0.0089
14483W        W27897  17.527  17.800   4.363  0.2216 -0.1850  0.0661
14484W        W27898  15.375  15.816   1.453 -0.1114  0.1794 -0.2746
14485W        W27899   0.191  11.984  12.936 -0.2779  0.0581  0.1248
14486W        W27900   5.373   1.186   3.036  0.0131 -0.1203  0.2253
14487W        W27901   8.997  11.012   3.027  0.3177 -0.1698 -0.0891
14488W        W27902   8.498   2.901   5.664 -0.1204  0.1663 -0.0221
14489W        W27903  14.683   0.234  10.955  0.1429  0.0622  0.0989
14490W        W27904   4.717  13.006   0.813  0.0560 -0.1075  0.0797
14491W        W27905  11.369   2.682  15.692 -0.1158  0.1281 -0.1740
14492W        W27906  13.454  15.480   2.676 -0.0125 -0.0609  0.1123
14493W        W27907   4.880   0.494   3.255 -0.0868  0.0091  0.1024
14494W        W27908  12.198   2.411   3.943  0.1046 -0.1646 -0.0215
14495W        W27909  14.243   2.081  12.830 -0.0306 -0.0671  0.2674
14496W        W27910   4.788  12.624  16.089 -0.2752  0.5545 -0.3372
14497W        W27911  18.020   5.711   4.560 -0.1558 -0.0646 -0.2271
14498W        W27912   2.275   9.794   5.771 -0.2069 -0.0996  0.1941
14499W        W27913   5.994  14.391  13.175 -0.2667  0.2910  0.0875
14500W        W27914   8.902   7.353  12.829 -0.0883 -0.0610 -0.1500
14501W        W27915  13.596   6.519   3.636  0.0572 -0.1982 -0.0492
14502W        W27916  13.102  12.270   2.424  0.0847 -0.4122 -0.0292
14503W        W27917   4.145  14.695  12.510 -0.0554 -0.2956 -0.1586
14504W        W27918   3.651  16.315  14.125  0.0555 -0.0385  0.1028
14505W        W27919  11.482  16.582   1.956 -0.1692  0.0238 -0.0708
14506W        W27920   1.302   9.999  13.513 -0.2985  0.0262  0.1886
14507W        W27921   9.515  13.299  13.981  0.1496 -0.1761 -0.0722
14508W        W27922  10.821   7.893   0.957 -0.0705 -0.0538  0.0689
14509W        W27923   8.586  14.167  12.675  0.0835  0.0954  0.0899
14510W        W27924  11.004   8.060  15.712 -0.0249 -0.1220  0.0431
14511W        W27925   8.503  15.536   3.999  0.0300 -0.0553  0.1356
14512W        W27926   5.543   5.315   0.422 -0.1962  0.3721  0.0365
14513W        W27927  16.016  11.597  13.701  0.0815 -0.0725 -0.0407
14514W        W27928  14.297  15.158  11.690 -0.0196  0.0527 -0.1062
14515W        W27929   4.753  10.212  12.397  0.4455 -0.1749  0.4018
14516W        W27930   9.670  15.647  13.873 -0.0144  0.1923  0.0707
14517W        W27931   5.947  17.484  10.230 -0.2294 -0.0379 -0.3583
14518W        W27932  15.885   2.370   3.863 -0.1459  0.0108  0.1548
14519W        W27933  14.424   8.734   0.373 -0.0114 -0.3312  0.0684
14520W        W27934   2.071   4.039   6.156 -0.1851 -0.1155  0.1723
14521W        W27935  10.182   0.613   3.787  0.3174 -0.0362 -0.1292
14522W        W27936   6.276  15.552   4.109 -0.3831 -0.1971 -0.1086
14523W        W27937   1.987   6.118   5.923  0.1359 -0.0975  0.0977
14524W        W27938   1.183  13.690   4.586  0.0997 -0.0145 -0.4906
14525W        W27939   1.692   0.972   0.626  0.0672  0.0326 -0.0963
14526W        W27940  15.845   0.066  12.331  0.0989 -0.1477 -0.0749
14527W        W27941  12.349   7.703   0.614  0.0678 -0.0556  0.3228
14528W        W27942  17.890  14.651  13.776 -0.1061 -0.0425 -0.1121
14529W        W27943   7.231   7.436  14.348 -0.1393 -0.1419 -0.3164
14530W        W27944   5.968   3.277  14.266 -0.0284  0.0910 -0.2799
14531W        W27945   3.682   4.401   3.814  0.1895 -0.0057  0.2034
14532W        W27946   0.547   9.735   5.371 -0.1587  0.4393 -0.2107
14533W        W27947   9.666   3.764  10.596  0.4163 -0.1035  0.3205
14534W        W27948   2.188   7.364   6.361 -0.1009 -0.3027  0.1173
14535W        W27949  16.957   7.778   4.706  0.2712 -0.0261 -0.0206
14536W        W27950   6.720   9.698  15.235  0.4477  0.1248  0.0011
14537W        W27951  17.885  12.618   4.283 -0.0108  0.0664 -0.0291
14538W        W27952  13.496   9.869   4.199  0.1524 -0.1608  0.1398
14539W        W27953   7.216   5.616   2.595  0.2541 -0.4002  0.0323
14540W        W27954   8.544  13.207  12.142  0.0696  0.3243  0.2626
14541W        W27955   1.462   8.265  14.985 -0.0487  0.1343  0.1341
14542W        W27956  11.653   3.824  11.204 -0.1053  0.1313 -0.1234
14543W        W27957   5.009  12.430   5.246  0.4172 -0.1653  0.2011
14544W        W27958  16.879   6.072  14.470 -0.2334 -0.1495 -0.1099
14545W        W27959  13.331  16.291   4.116  0.0459  0.0693 -0.3157
14546W        W27960   2.674  16.874  14.345 -0.1260 -0.0111 -0.2775
14547W        W27961   3.569   7.929   4.103  0.1972  0.2019  0.1319
14548W        W27962   9.708   6.750   4.239 -0.0401  0.1637 -0.1489
14549W        W27963   7.928  13.066   3.240  0.1337  0.1927  0.0964
14550W        W27964   8.348   9.400  14.012  0.0084 -0.0156  0.0212
14551W        W27965   1.014  12.149   5.435 -0.0254  0.0461 -0.1319
14552W        W27966   3.862   7.281   2.743 -0.1756 -0.0492  0.1273
14553W        W27967   3.078   2.826   1.353 -0.3698 -0.1535 -0.0959
14554W        W27968   4.183   1.451  13.228  0.0950  0.0288 -0.0973
14555W        W27969   6.705   2.631  12.763 -0.1117 -0.1032  0.0640
14556W        W27970   0.185  15.429  15.398  0.0086  0.0819 -0.0538
14557W        W27971   3.482   9.527  12.721  0.3789 -0.1019 -0.0025
14558W        W27972  15.926  16.708  14.593  0.0068 -0.2247 -0.1071
14559W        W27973  18.080  18.383   6.539  0.1338  0.1255  0.2260
14560W        W27974   5.693  10.222  11.140 -0.1692  0.2608 -0.0790
14561W        W27975   6.882   0.080  13.127  0.0658 -0.0985  0.0059
14562W        W27976  15.452  10.308  12.125 -0.0175  0.0654 -0.0443
14563W        W27977   6.916   2.575  12.312  0.0398 -0.3266  0.1100
14564W        W27978   5.423  15.087  16.098  0.1194  0.1757  0.0552
14565W        W27979  15.707   0.376   5.088  0.0298  0.0393  0.4257
14566W        W27980  14.806   7.596   2.115  0.0150  0.2480 -0.1146
14567W        W27981   5.193   2.222   1.301  0.1638 -0.2679 -0.2638
14568W        W27982   3.469   3.676   3.821 -0.1999 -0.0603 -0.1883
14569W        W27983  15.916   8.974  14.626  0.0192 -0.0377 -0.1705
14570W        W27984   3.464  13.838   3.833 -0.5289 -0.2412 -0.0426
14571W        W27985  15.232  18.294   0.884 -0.0573  0.2341  0.3128
14572W        W27986  13.080   3.269  10.628 -0.0171 -0.1670  0.0862
14573W        W27987   4.733  15.962   2.662 -0.0699 -0.0494 -0.1906
14574W        W27988   8.885   4.958   5.368 -0.1122  0.3431  0.2791
14575W        W27989  17.605   8.401  12.890 -0.1160  0.0752 -0.0990
14576W        W27990   0.244  10.016   1.252 -0.1442  0.0545  0.0391
14577W        W27991   5.102   7.497   1.214  0.0485  0.1515 -0.0129
14578W        W27992  12.324  10.316   5.933 -0.1037 -0.0296 -0.0537
14579W        W27993   7.839  10.572  12.098 -0.0040 -0.1414 -0.0388
14580W        W27994  16.344   4.742   3.779 -0.0812 -0.1520 -0.3188
14581W        W27995   7.082   0.164   4.868 -0.1638  0.3082  0.1285
14582W        W27996   2.723   3.776  15.334 -0.3102  0.2477  0.1411
14583W        W27997  18.345   7.979   6.005 -0.1001 -0.1924  0.4029
14584W        W27998  13.868   2.317  10.487 -0.0030  0.0721  0.2943
14585W        W27999   2.416   9.970   1.300  0.0134  0.0684  0.1134
14586W        W28000  18.098   7.889  13.223 -0.1270  0.0893  0.1577
14587W        W28001   2.320  11.198   5.680  0.0621 -0.3476 -0.2705
14588W        W28002   8.096   8.852  13.781 -0.2374  0.0653 -0.2508
14589W        W28003  16.219  10.793  11.138  0.1685 -0.3344  0.0162
14590W        W28004  11.878   7.597  11.145 -0.0650  0.0527 -0.1492
14591W        W28005   2.542   6.494   3.940 -0.5214 -0.0602 -0.1948
14592W        W28006  14.912  10.457   5.785 -0.1300 -0.0396 -0.0692
14593W        W28007   5.227  10.064  15.949 -0.0890 -0.4274 -0.0242
14594W        W28008   4.502  12.302  14.580  0.0527 -0.0675 -0.1934
14595W        W28009  13.111   0.461   1.683 -0.0709  0.2137 -0.0852
14596W        W28010  14.486   1.414   1.384 -0.0548  0.0883  0.0511
14597W        W28011   7.325  18.197  15.152 -0.2154  0.1822  0.0194
14598W        W28012   4.552  18.254   3.659  0.1616  0.0656  0.0050
14599W        W28013  15.489  16.853  12.359  0.0177  0.2023 -0.0411
14600W        W28014   7.143   8.695   1.460  0.1497 -0.2651  0.1132
14601W        W28015  11.867   9.137  10.980 -0.0457  0.1550 -0.0688
14602W        W28016   7.736  17.918  12.794 -0.2766  0.0183 -0.2026
14603W        W28017   2.332   6.844  12.822 -0.2982 -0.0945  0.1082
14604W        W28018   0.388   0.454  11.719 -0.1688 -0.0733 -0.1208
14605W        W28019  10.963   5.048  12.517  0.1892 -0.0977  0.0040
14606W        W28020  15.991  12.189   4.654 -0.0237 -0.1048 -0.2385
14607W        W28021  12.632   6.003  13.901 -0.0003 -0.4163  0.0627
14608W        W28022  16.955   3.488   5.917 -0.1124  0.2679  0.2248
14609W        W28023  17.138  11.885  14.929 -0.0185 -0.1103 -0.3714
14610W        W28024  11.500  17.249   2.601 -0.0886  0.0645  0.2881
14611W        W28025  12.062   2.374   1.387 -0.1487 -0.1308 -0.1486
14612W        W28026  13.216  12.621  13.868 -0.1010 -0.1686  0.1183
14613W        W28027  17.669   2.209  13.170  0.3933 -0.0211 -0.4130
14614W        W28028  17.039  15.281  11.724  0.1148  0.1808  0.1515
14615W        W28029  14.002   0.850  11.431 -0.1088 -0.1571 -0.4749
14616W        W28030   2.790   7.598   5.427 -0.1844 -0.0924  0.4695
14617W        W28031  17.336   9.483   2.395  0.0910  0.1102 -0.1832
14618W        W28032  12.924   8.626   4.378  0.1922  0.1720 -0.1528
14619W        W28033   6.004  14.168   0.391  0.1782 -0.1629  0.1303
14620W        W28034  12.524  13.914  10.899  0.0004  0.1523 -0.2725
14621W        W28035   3.020   2.013  12.457  0.0612 -0.0662 -0.1880
14622W        W28036   4.086   5.393  10.857  0.2095  0.0288 -0.0222
14623W        W28037   9.320   3.687  13.561  0.2245  0.2545  0.2232
14624W        W28038  13.041  15.588   5.787 -0.0700  0.1140 -0.2538
14625W        W28039   5.268  12.542  11.461 -0.0211 -0.2311 -0.2456
14626W        W28040  18.347  14.764   3.787 -0.0484  0.0154  0.0030
14627W        W28041  15.749   4.598  15.560  0.0579 -0.1508  0.3021
14628W        W28042   9.384   6.113   5.679  0.0102 -0.0247  0.1658
14629W        W28043   6.238   2.239  10.393 -0.3066 -0.0951  0.1818
14630W        W28044   3.423   8.026  11.501 -0.2483 -0.1867 -0.0869
14631W        W28045   4.894   5.060   3.723  0.0684 -0.0901 -0.0612
14632W        W28046  14.569   1.326   2.987 -0.2220 -0.0542 -0.2529
14633W        W28047  15.325   0.952   1.949 -0.2657  0.1001 -0.2975
14634W        W28048  14.981   1.998  10.400 -0.2622 -0.2902 -0.2061
14635W        W28049   5.479  11.512   2.835  0.0324  0.2026 -0.0815
14636W        W28050  15.616  15.143   0.055 -0.0856 -0.0727  0.0278
14637W        W28051   2.490   2.520   5.294 -0.0378 -0.0713 -0.0610
14638W        W28052  11.019   7.503   1.706 -0.0923  0.2042 -0.0754
14639W        W28053  12.951  15.015   3.817 -0.2589  0.2747  0.1934
14640W        W28054   3.145   8.868   4.479  0.0405  0.1761  0.1197
14641W        W28055   8.318  18.129  12.130 -0.1410 -0.3017  0.2339
14642W        W28056  13.738  13.179  15.425 -0.0043  0.0602 -0.1166
14643W        W28057   9.408   1.562   3.050  0.1080 -0.1423  0.0626
14644W        W28058   7.128  10.529   4.441  0.0733 -0.0501 -0.1907
14645W        W28059   7.169  11.638   3.056  0.1961 -0.0198 -0.0758
14646W        W28060  17.102   7.615  14.267 -0.3954 -0.4081 -0.2454
14647W        W28061   5.429  10.726  11.247 -0.1394  0.2711 -0.1807
14648W        W28062   6.315   3.651  15.096  0.5708 -0.0165  0.0180
14649W        W28063  13.648   8.055   4.382  0.0550 -0.1795 -0.3020
14650W        W28064   6.944  11.111  10.159  0.1352  0.0952 -0.2368
14651W        W28065   9.670  17.059   1.389  0.0927  0.2327  0.0513
14652W        W28066  15.381   8.004   0.967  0.0157  0.1192  0.0282
14653W        W28067   3.067   3.437   3.565  0.0651  0.3504  0.0562
14654W        W28068  12.529   0.649  14.435  0.0931  0.0458  0.1880
14655W        W28069  15.827  16.546  13.740  0.0519 -0.2636 -0.1183
14656W        W28070   0.544  16.395  14.069  0.0334 -0.2891  0.0189
14657W        W28071   2.205  11.539   3.916 -0.1596  0.1305  0.0038
14658W        W28072   3.249  13.589   1.577 -0.3712 -0.1025 -0.1621
14659W        W28073   5.285   8.297   0.901  0.1725 -0.0245  0.0822
14660W        W28074   9.938   5.231  11.337 -0.0744 -0.0208 -0.0276
14661W        W28075  13.150  14.436   4.620 -0.0172 -0.1161  0.2786
14662W        W28076  16.058  13.547   2.144  0.0309 -0.3586 -0.2138
14663W        W28077   3.182   1.140   4.027 -0.1913  0.0521  0.0144
14664W        W28078  11.413  13.028  15.409  0.0300  0.0724 -0.0173
14665W        W28079   5.930  14.225   9.843 -0.1496  0.0441  0.0982
14666W        W28080  18.238   5.284   2.792  0.2570 -0.1614  0.1636
14667W        W28081  12.237  12.634   0.067  0.0676 -0.2016  0.3159
14668W        W28082   6.641   2.779  15.491  0.0174 -0.1636 -0.0956
14669W        W28083  16.055  13.847  13.464  0.3434 -0.2206  0.0280
14670W        W28084   3.580  14.005   5.332 -0.0307 -0.0306  0.0316
14671W        W28085  16.885  17.476  12.706 -0.1963  0.1283  0.4088
14672W        W28086   1.209  17.474   0.585 -0.0614  0.0796 -0.0401
14673W        W28087  11.628  14.612  13.072  0.1509  0.2161 -0.2834
14674W        W28088  12.985  12.174   3.858  0.0148 -0.2076  0.1418
14675W        W28089   3.083   6.798   1.693  0.0265  0.0237 -0.3200
14676W        W28090   3.763   8.559   4.012 -0.1806  0.0028  0.1140
14677W        W28091   9.185   0.365  16.166  0.0124 -0.2015  0.1054
14678W        W28092  14.294   9.122   0.118 -0.2697  0.1919  0.2263
14679W        W28093   7.299   4.518  11.980  0.0191  0.0235  0.1386
14680W        W28094  16.060   8.318   5.676 -0.5418 -0.0018  0.0173
14681W        W28095   6.658   9.020   0.612  0.1718  0.0891  0.0625
14682W        W28096  12.990  13.002  14.185  0.1546 -0.0750  0.1215
14683W        W28097  12.617   0.438  16.266  0.1165  0.4217  0.0188
14684W        W28098   9.004   9.894  11.346 -0.0701 -0.2175 -0.0173
14685W        W28099   2.902  12.194  13.253  0.0865  0.0646  0.1887
14686W        W28100   6.626  15.494  15.211 -0.2924 -0.2353  0.0726
14687W        W28101   2.187   1.531  12.959 -0.1881  0.0166  0.1823
14688W        W28102  17.489  10.057   1.780 -0.2116 -0.0509 -0.0341
14689W        W28103  14.033   0.727   0.740 -0.0763  0.3418 -0.5115
14690W        W28104   7.019  17.343   2.480 -0.2609  0.0993 -0.0897
14691W        W28105   0.233  15.278   3.751 -0.4441 -0.1173  0.3969
14692W        W28106  11.681   4.417  13.639  0.1399 -0.1547 -0.0524
14693W        W28107  14.988   8.723  14.642 -0.0839  0.1241 -0.1189
14694W        W28108  13.256  15.971  11.080  0.2443 -0.2072  0.0374
14695W        W28109  13.856   9.307  11.028 -0.0733 -0.1446  0.2160
14696W        W28110   4.371  14.900   4.276  0.2661  0.1684  0.0981
14697W        W28111  10.998   8.447  11.011  0.1866 -0.1583  0.0427
14698W        W28112  11.380   9.996  13.103  0.2469  0.0270 -0.2277
14699W        W28113   6.035   8.788  15.342  0.3414  0.4087  0.0998
14700W        W28114   1.563   9.120   0.810 -0.0616 -0.2633 -0.1088
14701W        W28115   1.798  10.757  11.231  0.0553  0.2076 -0.1517
14702W        W28116   2.951  16.588   2.707 -0.1703  0.0750 -0.2535
14703W        W28117  18.357   2.830   1.080  0.1188 -0.0042  0.0183
14704W        W28118   4.848  10.289   3.156  0.2061 -0.4658  0.3821
14705W        W28119   9.489   7.650  13.520  0.5201  0.1058 -0.1366
14706W        W28120   8.345   2.605   2.629  0.1488  0.0365 -0.0629
14707W        W28121  16.422   1.213  15.457  0.1110 -0.0492  0.1225
14708W        W28122   3.269  11.744  16.068  0.1527  0.1978  0.0355
14709W        W28123  11.224   3.425   3.483 -0.0592 -0.1219  0.3856
14710W        W28124   8.419  15.879   0.575  0.3372 -0.1664  0.2073
14711W        W28125   9.240   1.018   4.830 -0.1196  0.2642  0.2437
14712W        W28126   1.007  10.098  15.378 -0.1010 -0.0184 -0.1550
14713W        W28127   1.401  13.809  11.885  0.2192 -0.0139  0.0986
14714W        W28128   7.151   7.729   1.839  0.1706  0.1003  0.0063
14715W        W28129   9.713  18.336   0.970  0.2041  0.0024  0.2514
14716W        W28130   3.493   4.087   4.268  0.0701  0.2392  0.0439
14717W        W28131  16.510  16.678  10.764 -0.1353  0.3025  0.1187
14718W        W28132   8.158  11.053   3.396 -0.1665 -0.0331  0.1217
14719W        W28133   4.580  11.145   0.318 -0.1539 -0.2686  0.0732
14720W        W28134  10.825  18.413  13.666 -0.0521  0.1301  0.0488
14721W        W28135   7.948  12.770  11.084  0.1588  0.0297 -0.2678
14722W        W28136  16.082   6.510   2.780 -0.0890 -0.0531  0.4063
14723W        W28137   6.312  14.911   2.865 -0.0934 -0.0237  0.1271
14724W        W28138   9.975   6.685   1.431 -0.2302 -0.1168  0.1554
14725W        W28139  15.873  11.556   2.530 -0.1257  0.0263  0.0439
14726W        W28140   8.066   6.768   0.980  0.1039 -0.0393 -0.1332
14727W        W28141   0.049   3.499   0.245  0.1467 -0.0268  0.0513
14728W        W28142   6.435   5.397  10.906  0.1563  0.0296 -0.3036
14729W        W28143   7.167   7.809   2.405 -0.0116 -0.0315  0.1279
14730W        W28144   8.254  17.061   4.918 -0.1488  0.0114 -0.0350
14731W        W28145  17.912  11.118   2.336  0.2390  0.3393 -0.2508
14732W        W28146   5.404   7.516   2.118 -0.0425  0.2062 -0.1201
14733W        W28147   8.223   7.250   5.391 -0.2975 -0.0895  0.3066
14734W        W28148   6.936  12.003  11.923 -0.0646  0.0204 -0.0612
14735W        W28149  17.475  13.380  11.906  0.2272 -0.4554  0.1459
14736W        W28150  16.584   2.687   3.544  0.0846 -0.0556  0.5590
14737W        W28151   1.222   1.047   2.339 -0.3452 -0.0827 -0.1668
14738W        W28152  11.001   0.877  14.220  0.0002  0.0031 -0.2315
14739W        W28153   8.920   8.695  14.105 -0.1989  0.1422  0.1700
14740W        W28154   3.305  14.541   3.698 -0.2055 -0.0497 -0.2565
14741W        W28155  17.844   9.641   4.109  0.0709 -0.0258  0.1674
14742W        W28156  13.227  11.775   1.508  0.3330 -0.0994 -0.4855
14743W        W28157   4.730   0.894   6.434 -0.5093  0.1364  0.1871
14744W        W28158   8.933  17.994  15.938 -0.0708  0.1887  0.1339
14745W        W28159   2.239  11.181  14.540 -0.0246 -0.3129  0.0575
14746W        W28160  10.176  11.236   4.246 -0.0646  0.2276 -0.1282
14747W        W28161  12.801   0.552  15.665  0.1947  0.1909  0.1815
14748W        W28162  17.446   2.798   1.633 -0.1045  0.0144  0.2239
14749W        W28163   3.467   9.346   2.850  0.0939 -0.1301  0.0251
14750W        W28164  12.134   4.819   3.544 -0.4842  0.2155  0.2256
14751W        W28165   4.813  11.081   4.941 -0.0045  0.1703  0.1253
14752W        W28166   1.521  13.848  13.519  0.4226  0.1832  0.0897
14753W        W28167   6.741  17.601  12.811 -0.3390 -0.0812 -0.0210
14754W        W28168  17.294  11.396   0.623  0.1123  0.2000  0.1831
14755W        W28169  16.677  10.451   5.628 -0.2914  0.2095 -0.2559
14756W        W28170   6.177   3.454  10.987  0.0690  0.2539 -0.0026
14757W        W28171  16.992   8.865  13.124  0.0356  0.1549 -0.0907
14758W        W28172  12.642   7.260   0.486 -0.2217  0.1798  0.0109
14759W        W28173   9.511  12.095   0.033  0.0431  0.3181  0.3836
14760W        W28174   4.226   8.774   5.123  0.0468  0.3630 -0.0516
14761W        W28175   0.598   3.909  12.673  0.1448  0.2049  0.0514
14762W        W28176   0.589   8.129  13.386 -0.0364 -0.2394 -0.0147
14763W        W28177  18.039   1.700  13.767  0.0345 -0.1071  0.0073
14764W        W28178  12.042   9.923  16.026  0.0368  0.0257 -0.1250
14765W        W28179   0.741   7.170   2.044  0.0025  0.0583 -0.0399
14766W        W28180  14.493   9.904   3.183 -0.2711 -0.0640  0.0208
14767W        W28181  16.379  17.445  14.778 -0.1498  0.2093 -0.0224
14768W        W28182   6.863   9.772   1.199  0.1797 -0.0100  0.0918
14769W        W28183   8.278   9.753  10.838 -0.2953  0.1862  0.0852
14770W        W28184   5.617   9.138   2.761  0.1573 -0.3496 -0.2279
14771W        W28185  11.793   2.175   2.283  0.1359  0.0717  0.0531
14772W        W28186  11.803  14.446   4.818  0.1892  0.1401 -0.1084
14773W        W28187   0.392   1.624   5.039 -0.2485 -0.2689 -0.3257
14774W        W28188   1.303  11.788   3.507  0.1084  0.1609 -0.0206
14775W        W28189  12.513   9.902   5.479  0.0769 -0.1891 -0.2253
14776W        W28190  15.528  12.145   4.840  0.0728 -0.3013 -0.3206
14777W        W28191   7.815   8.849   0.760 -0.0818  0.2804  0.1836
14778W        W28192  10.046   1.061   5.955 -0.0288 -0.3802  0.1808
14779W        W28193  12.214   6.046   4.786 -0.1943 -0.0884  0.0941
14780W        W28194   0.126  17.860  12.573 -0.0373  0.2352  0.2216
14781W        W28195   7.256   8.499  15.654 -0.0551 -0.0111 -0.0021
14782W        W28196   3.048   6.490   0.825 -0.0042  0.1133  0.1591
14783W        W28197   8.804  17.604  10.112  0.1392 -0.0935  0.2784
14784W        W28198   3.714  12.754  14.516 -0.0505  0.0723  0.0004
14785W        W28199   1.309  16.780  11.529  0.3017 -0.0830  0.4058
14786W        W28200   1.230   4.462   6.269 -0.1574  0.0149 -0.0030
14787W        W28201  18.228  14.196   1.769 -0.0878  0.1800 -0.1066
14788W        W28202   5.328  18.233  10.598  0.0093 -0.0250  0.1480
14789W        W28203   0.894  12.314   1.362 -0.0558 -0.0916 -0.0834
14790W        W28204  15.749   1.473   3.691 -0.1524  0.0182  0.1282
14791W        W28205  12.108   6.573   4.659 -0.0503 -0.0227 -0.0448
14792W        W28206   7.578   7.418  12.061  0.1594  0.4167  0.0520
14793W        W28207  16.867  15.325  10.508  0.0004 -0.1175 -0.0166
14794W        W28208   8.698   1.249  16.067  0.2757  0.0267 -0.2300
14795W        W28209   8.131  17.514  12.182 -0.0871 -0.0338  0.0045
14796W        W28210   7.989   3.774   4.659 -0.0405  0.2627  0.3281
14797W        W28211  18.446  18.249  11.844  0.1471  0.2640 -0.0581
14798W        W28212   6.356  17.658   0.195 -0.0522  0.0539 -0.1111
14799W        W28213  17.635   0.712   5.912 -0.4190  0.2454  0.1868
14800W        W28214   2.137  11.512  13.387  0.0102  0.5406  0.0964
14801W        W28215  14.473   8.802   6.878  0.0033 -0.0842  0.2377
14802W        W28216   8.651   2.841  12.688 -0.1182  0.2925  0.0581
14803W        W28217  15.277   7.870   4.282 -0.2792  0.2903  0.1933
14804W        W28218   1.200  11.865  15.027  0.0787 -0.1533 -0.1507
14805W        W28219  13.922   8.121   2.123  0.2065 -0.3534  0.2637
14806W        W28220   9.198   4.413  10.397 -0.1851  0.0746  0.0805
14807W        W28221  17.401   8.437   4.439 -0.0741 -0.0081  0.1756
14808W        W28222   4.696   8.861   4.389  0.1121  0.2415  0.1891
14809W        W28223  12.165   8.925  12.560  0.1336  0.1081 -0.1258
14810W        W28224  11.056   7.229  16.061  0.1936  0.0158  0.2595
14811W        W28225   0.211  14.024  15.564  0.1589  0.3075  0.0274
14812W        W28226  15.638   4.348   5.584 -0.1947 -0.0039 -0.1072
14813W        W28227  14.893   0.597  11.332 -0.0480  0.0680  0.1119
14814W        W28228   6.048  16.649   5.467  0.0941 -0.1969  0.0590
14815W        W28229   0.627  12.626  11.639 -0.1599  0.1855  0.2381
14816W        W28230   2.379  14.191  12.939  0.2750 -0.0980 -0.0368
14817W        W28231  17.975   5.661  14.499  0.1362 -0.1465  0.3023
14818W        W28232  16.103  13.847  14.321 -0.1507 -0.2827 -0.1111
14819W        W28233  12.853   0.508  14.860  0.2229  0.0539  0.0134
14820W        W28234   8.501  10.416   0.994  0.0801 -0.0415  0.2730
14821W        W28235   0.638   5.840   5.790  0.0094  0.0463  0.3281
14822W        W28236   0.641   6.460   0.979 -0.1008 -0.2982  0.1772
14823W        W28237   5.193  10.439  14.940 -0.0781 -0.0488 -0.2368
14824W        W28238   6.138   8.816   4.406  0.0878 -0.1236 -0.0947
14825W        W28239   0.098   3.221  12.769 -0.3507 -0.0373  0.0836
14826W        W28240   1.647   5.040   4.576  0.1111  0.2007  0.0722
14827W        W28241  11.115   7.704  15.232 -0.2540 -0.1061 -0.0210
14828W        W28242  12.968   7.713   2.084 -0.3388  0.0519  0.1666
14829W        W28243   2.414  18.258   5.643  0.0153 -0.1710  0.3060
14830W        W28244  15.277   9.787   1.682 -0.0541 -0.4414 -0.1291
14831W        W28245  15.840   5.997   1.109  0.2032 -0.2616 -0.1231
14832W        W28246   1.129   9.326   0.633  0.0814  0.0993  0.0430
14833W        W28247   6.091   6.856  14.780  0.0733 -0.3081  0.1622
14834W        W28248  14.746   0.587  12.627 -0.2826  0.5346  0.0698
14835W        W28249  13.704  14.822   1.659  0.0912 -0.1439  0.0322
14836W        W28250  10.743  16.542   0.592  0.0925 -0.0402 -0.0702
14837W        W28251  15.562  11.880   0.055  0.2088  0.1556 -0.0197
14838W        W28252   7.031   6.563  10.546 -0.0231  0.0418  0.0914
14839W        W28253  18.015  11.154  14.970  0.1412  0.1576  0.2112
14840W        W28254   8.344   0.661  13.690  0.3634  0.1910  0.1412
14841W        W28255  11.916   4.866  13.408  0.2825 -0.0825  0.0180
14842W        W28256   1.829   4.367   2.916  0.0619 -0.1111 -0.1642
14843W        W28257  14.660   4.425  11.440 -0.0449  0.1112 -0.3559
14844W        W28258   7.285   9.101  13.238  0.2104  0.1672 -0.0265
14845W        W28259   7.088  13.733   9.930 -0.3163 -0.1254  0.2129
14846W        W28260   2.111  16.143  16.050 -0.0997  0.1270  0.2421
14847W        W28261  15.250  10.571  14.722 -0.1135 -0.0668 -0.1543
14848W        W28262   5.927   9.356  10.421  0.1312  0.1399  0.1609
14849W        W28263  13.196  14.200   1.690  0.0087 -0.1617 -0.1585
14850W        W28264  10.611  15.507   2.313 -0.0873 -0.0338  0.1874
14851W        W28265   1.853   0.979  12.632  0.1813 -0.0364  0.0418
14852W        W28266  11.527  17.617  12.290 -0.3154  0.0371  0.1450
14853W        W28267   4.839  13.759  14.666 -0.0856  0.0278  0.0077
14854W        W28268  13.905   3.032   3.452 -0.0133 -0.0351 -0.5055
14855W        W28269   5.154   0.728  10.049 -0.0676 -0.0843 -0.3201
14856W        W28270   6.416  13.164   5.027  0.0766  0.2492  0.1348
14857W        W28271  17.094  15.958  15.290 -0.4222 -0.0284 -0.1093
14858W        W28272  15.679   0.865  16.080  0.0186  0.0416  0.0133
14859W        W28273   6.430  12.048   4.795  0.1774  0.2207 -0.3585
14860W        W28274   9.346  12.009   5.322 -0.0479  0.2019 -0.1770
14861W        W28275   5.918  13.134   4.348 -0.2628  0.0616  0.2087
14862W        W28276   5.029  13.235   5.147 -0.2760 -0.0591  0.3872
14863W        W28277  10.363   2.345   3.040  0.0728 -0.1247  0.1065
14864W        W28278  12.423  13.857   4.073 -0.1007  0.0311 -0.1151
14865W        W28279  12.772  11.930   1.158 -0.2363 -0.0443 -0.0293
14866W        W28280   4.207   1.545  15.679  0.2590 -0.2126 -0.3566
14867W        W28281   7.644   2.056   2.117 -0.0824  0.1135 -0.1155
14868W        W28282   3.313   1.987   5.337 -0.0387  0.0282  0.1186
14869W        W28283  10.394  12.587   3.985 -0.1257 -0.0737 -0.1245
14870W        W28284  11.358   1.220  13.995  0.3568 -0.1079  0.2361
14871W        W28285   6.354  15.593  11.761 -0.0468 -0.1164 -0.0677
14872W        W28286   2.569  16.282   2.805 -0.3349  0.0576  0.0708
14873W        W28287  10.832  10.790  11.917 -0.1829 -0.0140  0.1510
14874W        W28288   3.440  16.879  16.213 -0.1613 -0.2445  0.0090
14875W        W28289   6.564   8.994  13.078  0.0912 -0.1193  0.0025
14876W        W28290   6.987   5.362  12.203  0.0059 -0.1146  0.1552
14877W        W28291   7.031   6.634  16.224  0.0673 -0.1286 -0.2943
14878W        W28292   4.450  14.168  13.054 -0.3615 -0.2466  0.1599
14879W        W28293  11.447   3.457   2.610  0.0829 -0.1960  0.4927
14880W        W28294   3.744   0.662  12.535  0.0434  0.1739 -0.1271
14881W        W28295  17.174   2.296   0.164  0.2182 -0.0991 -0.1927
14882W        W28296   7.471   4.542   4.968 -0.0992  0.0352  0.0808
14883W        W28297  12.465  17.422   4.018  0.0482  0.0540 -0.0727
14884W        W28298   6.636   3.839   2.479 -0.1977  0.1673 -0.1463
14885W        W28299  12.603   4.211  13.652  0.0198  0.0242 -0.0872
14886W        W28300  18.271  12.187  13.310  0.0319 -0.0727  0.0288
14887W        W28301   1.449  13.368   1.362 -0.1095  0.2367  0.1559
14888W        W28302   4.056   4.552   3.460  0.0721 -0.2438 -0.0045
14889W        W28303   8.532  12.564   5.509  0.1427 -0.3701  0.0257
14890W        W28304   9.868  12.311  14.723 -0.2386  0.1543  0.2371
14891W        W28305   8.674   1.641   2.302  0.0071 -0.2034  0.1413
14892W        W28306   0.073   2.771   0.008 -0.1454 -0.1222  0.0668
14893W        W28307   2.506   4.914  12.924  0.0849 -0.1825 -0.0569
14894W        W28308   7.409   2.162  14.888  0.1107 -0.2738  0.0596
14895W        W28309   5.713   9.241  15.847  0.2003  0.0014  0.1223
14896W        W28310   9.361   0.787  12.364 -0.3017  0.4090  0.1569
14897W        W28311   0.085   8.416  12.568  0.1659  0.2255 -0.2275
14898W        W28312  14.197  14.795  13.823  0.0438 -0.3364 -0.0739
14899W        W28313   2.287  16.917   1.971  0.0446 -0.0597 -0.1154
14900W        W28314   4.847   9.387  11.002 -0.1140 -0.0732 -0.1680
14901W        W28315  11.163   8.121  10.637 -0.0897 -0.1361  0.0334
14902W        W28316   4.716  16.276  13.891 -0.3857  0.4113 -0.0446
14903W        W28317  12.358  11.679   0.777 -0.0807  0.3230  0.1131
14904W        W28318   0.220  15.567  14.842  0.1754 -0.0477 -0.1066
14905W        W28319  15.220  12.918  13.889  0.2614 -0.1264  0.3341
14906W        W28320   8.506  11.401   3.144  0.4202  0.0392  0.0868
14907W        W28321   0.720   5.472  12.277  0.5560  0.0528  0.2366
14908W        W28322   0.592  10.353   1.495  0.2954 -0.1507 -0.0358
14909W        W28323  14.127  12.718   4.923  0.2096  0.1606  0.4058
14910W        W28324  14.720  13.318  15.833 -0.0197 -0.1314 -0.1843
14911W        W28325   4.586  12.312   2.335  0.1122 -0.1371 -0.2379
14912W        W28326   2.530  15.742   2.758 -0.8322 -0.0126  0.0208
14913W        W28327   9.001  16.598   2.057  0.0618  0.0282  0.2820
14914W        W28328   7.684  15.891   0.226 -0.2357 -0.3127  0.2142
14915W        W28329  18.058   4.570  10.746  0.0060 -0.1220  0.3719
14916W        W28330   4.556   8.642  11.739  0.1405  0.1418 -0.0560
14917W        W28331   8.826  18.180   2.947 -0.2089  0.2236 -0.0104
14918W        W28332  15.758   6.424  11.508 -0.2428 -0.3117  0.1874
14919W        W28333   9.155   1.118   0.973  0.1954 -0.2556 -0.2363
14920W        W28334  16.973  18.237   2.199 -0.1090  0.1148  0.2368
14921W        W28335   0.798   4.394   1.954 -0.0789  0.2851 -0.0776
14922W        W28336   5.147  10.591   2.841 -0.0900 -0.0341  0.1320
14923W        W28337  16.161   7.048   1.615  0.5093 -0.3439 -0.0061
14924W        W28338   5.217   7.138  12.639  0.0322 -0.1811  0.2617
14925W        W28339  14.859   3.793  15.136 -0.2384 -0.1852 -0.1567
14926W        W28340   0.792   2.155  15.355 -0.0235 -0.1789 -0.0227
14927W        W28341   2.224   4.620  16.245 -0.1380 -0.0186  0.2020
14928W        W28342   2.523   4.187  13.803  0.1237 -0.1073  0.0476
14929W        W28343   1.182   8.743   2.870 -0.2226  0.4173  0.3095
14930W        W28344   6.901   5.168   0.008  0.1551 -0.2752 -0.1461
14931W        W28345   3.139  12.663   4.365  0.0343 -0.1344 -0.1029
14932W        W28346   2.417   4.506   0.993 -0.0537  0.0949  0.1301
14933W        W28347  12.284  11.877  14.842  0.1556 -0.2902 -0.2092
14934W        W28348   6.477  10.999  14.589 -0.1468 -0.0568 -0.0187
14935W        W28349  10.136  15.199   3.858  0.1454 -0.0052 -0.0843
14936W        W28350  16.191  16.849  11.483 -0.2578  0.0580  0.0641
14937W        W28351   3.374   8.190  10.252  0.0485  0.0667  0.0826
14938W        W28352  17.375   6.640   0.513 -0.1261 -0.1272  0.3359
14939W        W28353  18.004  11.340  11.819  0.2694  0.0209 -0.1014
14940W        W28354   6.202   0.971  15.024  0.2158  0.2156  0.1476
14941W        W28355   9.253   1.985  11.810 -0.1407  0.2215  0.1679
14942W        W28356  11.322  18.168   1.231  0.0608 -0.1929 -0.2105
14943W        W28357   4.974  15.739  12.004 -0.1318 -0.0122  0.0321
14944W        W28358   3.767  12.489   2.377  0.0900 -0.0345 -0.1123
14945W        W28359   3.240   4.382   6.392 -0.0632  0.1827  0.0801
14946W        W28360  13.710  10.399  15.485  0.0373 -0.2340  0.1584
14947W        W28361  10.595   3.958  15.885 -0.0739 -0.2197  0.0042
14948W        W28362  12.925   0.044  14.729 -0.2212 -0.2061  0.3412
14949W        W28363   1.222   6.188  11.565  0.0189  0.0062 -0.1237
14950W        W28364  16.980  14.698  16.151  0.2517  0.0713 -0.0918
14951W        W28365  17.342   7.158  11.414 -0.0856 -0.2822 -0.0497
14952W        W28366   3.831  11.804  11.641  0.2479  0.1808 -0.0554
14953W        W28367   6.451   4.804   0.642 -0.2748  0.1843  0.4841
14954W        W28368   3.270   1.389  12.254  0.0527 -0.0838 -0.1531
14955W        W28369  12.042   8.217   3.457  0.0474  0.0228  0.0143
14956W        W28370  12.823   0.296   3.657 -0.0655 -0.1718 -0.1482
14957W        W28371  14.808   0.542  11.835  0.0704  0.2205  0.3865
14958W        W28372   7.846   8.297   3.560 -0.0972 -0.1046 -0.0799
14959W        W28373   0.035  16.322   1.983  0.1620  0.1709 -0.0494
14960W        W28374   1.571  12.188  15.975  0.0449 -0.0857  0.0278
14961W        W28375  15.886  11.765  14.446  0.0472 -0.1940 -0.0867
14962W        W28376   8.210  10.704  15.314  0.1919  0.0248  0.1868
14963W        W28377   7.810   8.759  15.784 -0.0162 -0.0295  0.0144
14964W        W28378   4.124  12.091   2.931  0.3683  0.0862  0.4045
14965W        W28379   7.285  15.392  12.892  0.3017  0.0012 -0.1682
14966W        W28380   8.673   7.951   3.673 -0.0909 -0.0007 -0.0480
14967W        W28381  18.168  16.020  14.132 -0.1265 -0.0638 -0.3500
14968W        W28382  15.992   2.240  13.386 -0.1684 -0.1018 -0.0338
14969W        W28383  16.389   6.821  16.181  0.0011  0.0459 -0.5181
14970W        W28384  13.906  12.418   5.453 -0.1442 -0.2035  0.2000
14971W        W28385  18.432   8.082  12.924  0.2485  0.1632  0.3160
14972W        W28386   9.646  16.557   0.771 -0.1590  0.1646  0.0822
14973W        W28387  15.804  10.545   3.962 -0.2488 -0.3149 -0.0912
14974W        W28388   6.807   2.915   4.738  0.1532  0.0329  0.2349
14975W        W28389   0.347   5.601  13.242 -0.0305 -0.1263 -0.3068
14976W        W28390   1.214  13.579   2.934  0.0299  0.1187 -0.0229
14977W        W28391  15.510  17.617   4.093  0.0294  0.0361 -0.0686
14978W        W28392   4.036   8.116   1.373 -0.0115  0.1078  0.0545
14979W        W28393  11.237  10.356  14.278  0.0060  0.0045  0.0244
14980W        W28394   0.135  11.502   3.063 -0.1062  0.2523 -0.0357
14981W        W28395   6.564   0.631  15.121  0.1010 -0.2449 -0.1554
14982W        W28396   4.937  10.865  10.320 -0.0622  0.2091 -0.2573
14983W        W28397   5.500   0.277   2.102 -0.2457  0.2118 -0.1053
14984W        W28398   1.705   0.195  12.686 -0.0819 -0.2355  0.2411
14985W        W28399  14.945   4.524  13.116  0.2234 -0.0130  0.1332
14986W        W28400   9.446  13.318   1.348 -0.1869 -0.0511 -0.0309
14987W        W28401   6.327   9.894  12.470  0.1690 -0.1301 -0.1087
14988W        W28402   1.490   3.292   1.892 -0.1680 -0.1826  0.1381
14989W        W28403  10.967   8.355   3.743  0.2318  0.0366 -0.1208
14990W        W28404  14.995  16.135  15.981  0.0829  0.2160 -0.0521
14991W        W28405   3.614   0.848  13.764  0.1169 -0.2572  0.1886
14992W        W28406  15.101  11.230  15.581  0.2176  0.0489  0.1049
14993W        W28407  10.544   2.813   0.484 -0.2327  0.2118 -0.1407
14994W        W28408   1.278   9.232  13.585 -0.0525 -0.1148  0.0707
14995W        W28409  12.621   7.040  10.994 -0.0975 -0.0594 -0.1022
14996W        W28410  10.029  13.809   4.801 -0.0244 -0.0100  0.2404
14997W        W28411  16.278   4.673   0.504 -0.0922  0.1349 -0.0349
14998W        W28412  16.362  11.975  10.300  0.1579 -0.2583  0.1923
14999W        W28413  15.831   6.833  10.162  0.1852  0.0442 -0.0643
15000W        W28414   7.435  10.721  15.710  0.0008  0.2063 -0.1336
15001W        W28415   2.195   2.019   2.213 -0.4291 -0.2494 -0.0895
15002W        W28416   6.314  13.593  12.651 -0.1205 -0.1223  0.3815
15003W        W28417   8.397   7.127  10.359  0.0594  0.0561 -0.1344
15004W        W28418  18.045  15.721   4.497  0.0626 -0.1789 -0.1796
15005W        W28419  11.929   9.618   5.558  0.1804  0.0928 -0.0215
15006W        W28420   5.907  17.609   3.247  0.4263  0.0162  0.1456
15007W        W28421   2.502  13.805  13.842  0.2420  0.0153  0.0325
15008W        W28422  12.559  11.027   0.520  0.0884 -0.1844 -0.0077
15009W        W28423  11.328   4.015  10.401 -0.1167  0.0334 -0.0359
15010W        W28424  15.036   2.429  11.328 -0.1031 -0.0023  0.0105
15011W        W28425   6.966   0.415   1.961 -0.0086 -0.1819  0.0357
15012W        W28426  17.226   4.326   2.411  0.0779  0.1209 -0.0220
15013W        W28427  12.744  17.692   2.995  0.0598 -0.1146  0.1963
15014W        W28428  14.836   6.464  12.852 -0.0155 -0.1565 -0.1895
15015W        W28429   3.152  12.832   5.838 -0.2190 -0.2157 -0.0929
15016W        W28430   0.248   5.423  12.085 -0.0965 -0.1291 -0.3008
15017W        W28431   2.092  17.118   0.640 -0.3456 -0.1690 -0.1092
15018W        W28432   2.176   9.408  14.513  0.1499  0.0562  0.0273
15019W        W28433  10.854  12.904   9.879  0.3817 -0.2187  0.5302
15020W        W28434  13.953  15.675   1.039 -0.1303  0.0755  0.0453
15021W        W28435  17.073   5.694  14.663 -0.3075  0.2532 -0.1605
15022W        W28436   9.100   2.568  16.097  0.0455  0.2639  0.0092
15023W        W28437  17.427  16.744   3.011  0.2005 -0.1119 -0.4993
15024W        W28438  17.461   5.912  13.717  0.1826 -0.0490  0.0531
15025W        W28439  16.486  18.152   2.099 -0.3299 -0.5051 -0.2622
15026W        W28440   2.645  12.602  13.453 -0.1472  0.0769 -0.0347
15027W        W28441   6.186   3.227  16.101  0.0229 -0.2407 -0.3283
15028W        W28442   6.367   1.253   6.487  0.3620  0.0746 -0.1814
15029W        W28443   0.044   0.842  13.230  0.4586 -0.0341 -0.5084
15030W        W28444   4.958  16.824   1.384  0.3064 -0.0294  0.0908
15031W        W28445  15.502  12.966   1.478  0.2366  0.1922 -0.3360
15032W        W28446   6.870  13.887  10.344 -0.0988  0.0225 -0.0107
15033W        W28447  14.345   6.130   4.540 -0.3449  0.2751  0.1046
15034W        W28448   6.920   8.411  10.230  0.1997 -0.1666 -0.5279
15035W        W28449  15.031  16.578  12.319 -0.2330  0.2176 -0.2004
15036W        W28450   3.032   4.474   4.497 -0.0971 -0.2449  0.0005
15037W        W28451   3.761   8.011  13.869  0.1123  0.0589 -0.0100
15038W        W28452  11.169  10.092   0.949 -0.1929 -0.1157  0.0493
15039W        W28453   8.039  12.663   2.861  0.0216 -0.2404 -0.1767
15040W        W28454  13.802   3.919   1.202  0.1914  0.0018 -0.0849
15041W        W28455   0.398   4.967  10.827 -0.2006  0.1842 -0.1373
15042W        W28456  15.280  18.359  15.659  0.0102 -0.0747  0.0660
15043W        W28457   5.071   8.975  10.356  0.1292  0.1489 -0.0862
15044W        W28458   3.593   1.227  13.394 -0.0928  0.0658  0.0369
15045W        W28459  13.680   9.016   3.741  0.0027  0.2444 -0.0526
15046W        W28460  11.512  14.533   5.205  0.0288 -0.0892  0.1331
15047W        W28461   4.752   3.150   5.038 -0.4275  0.1177 -0.0378
15048W        W28462  14.899  12.052   3.161  0.4191 -0.0737 -0.1282
15049W        W28463   8.867  11.448  15.375  0.0436 -0.0369 -0.0127
15050W        W28464   6.321  14.371  12.704  0.1441  0.2886 -0.1633
15051W        W28465   2.770  14.858  12.500 -0.0583  0.2609 -0.3176
15052W        W28466  11.273  12.150  10.495 -0.0219  0.0185  0.2190
15053W        W28467  12.617  11.097   5.545 -0.0349  0.1587 -0.2173
15054W        W28468   7.934  10.199  10.771 -0.0002  0.1841 -0.2356
15055W        W28469  16.523  18.055   4.590 -0.2204 -0.0056  0.2763
15056W        W28470  17.069   4.439   0.051 -0.0527 -0.2059  0.1338
15057W        W28471   0.623  17.855  13.394  0.1010  0.5206 -0.2028
15058W        W28472   7.932   1.418  11.797 -0.0248 -0.0731  0.1124
15059W        W28473  13.601  14.782   3.586 -0.0981 -0.0212 -0.1067
15060W        W28474  16.652  15.841   5.888  0.0524  0.0573 -0.1667
15061W        W28475   3.510  14.014   2.822 -0.3888 -0.2474  0.1022
15062W        W28476  17.624   8.855   4.551 -0.4619  0.0406  0.0482
15063W        W28477  17.464  10.535  10.386 -0.1800 -0.3129 -0.0603
15064W        W28478  11.321  15.768  10.713 -0.1413  0.1140  0.0545
15065W        W28479  17.890   5.500  15.531  0.2437 -0.4117 -0.1637
15066W        W28480  16.642   7.299  10.901 -0.0464  0.3460  0.1197
15067W        W28481  14.563  15.988  11.129  0.1243 -0.1023  0.2003
15068W        W28482   7.698  16.213   2.047  0.1732  0.3914  0.1585
15069W        W28483  15.901   9.389   3.775  0.2132 -0.0823  0.1045
15070W        W28484  16.803   2.951  14.978  0.0993 -0.2775 -0.0658
15071W        W28485   2.827   4.610   1.997  0.0353  0.0701  0.1763
15072W        W28486   1.612   5.383  11.650  0.0789  0.2428 -0.4530
15073W        W28487  16.056  17.169   2.074 -0.0376 -0.1872 -0.0216
15074W        W28488  10.109   5.204   0.763 -0.3234 -0.0357 -0.1150
15075W        W28489  15.369  12.296  12.694 -0.1467  0.2331  0.0479
15076W        W28490  17.006   7.301  13.814 -0.1661  0.0864  0.3762
15077W        W28491  14.227   0.290   0.930 -0.1049 -0.2712 -0.1120
15078W        W28492   8.559   5.495   4.736 -0.0182  0.0976 -0.2876
15079W        W28493  11.935   2.567  12.445 -0.1508 -0.1226  0.1872
15080W        W28494  10.280  11.130   6.193  0.1713  0.0002 -0.0457
15081W        W28495   1.315  16.078   2.931 -0.1344 -0.2462 -0.0889
15082W        W28496   6.334   8.399  10.201 -0.0737  0.1796  0.0064
15083W        W28497   6.057   7.648   5.570  0.1353 -0.0699 -0.2602
15084W        W28498   6.678   5.461  13.394  0.2848 -0.1207 -0.1529
15085W        W28499   2.911  10.182   2.558 -0.0952  0.2820 -0.0556
15086W        W28500   1.626  16.912   0.433 -0.2414 -0.1387  0.1538
15087W        W28501   2.833   9.445   3.941  0.1372  0.2625 -0.3204
15088W        W28502  14.273   5.810   0.111 -0.1260  0.0168 -0.0374
15089W        W28503   1.927  15.512  15.202 -0.0663 -0.2863 -0.2694
15090W        W28504   6.493   3.936  13.500  0.6075  0.2783 -0.0269
15091W        W28505   3.260  11.676  14.211 -0.0307  0.0083  0.1336
15092W        W28506   8.317   0.316  10.763  0.0710 -0.0616  0.1272
15093W        W28507  13.722  11.220  15.548 -0.4201  0.0430 -0.0404
15094W        W28508  14.523   1.507  14.121 -0.0049  0.1606 -0.2090
15095W        W28509   5.329   3.469  12.520 -0.4130 -0.2714  0.2750
15096W        W28510  11.797  13.581   5.296 -0.0798  0.2686  0.3345
15097W        W28511  10.587   2.395  14.638  0.0577 -0.0191 -0.0308
15098W        W28512  10.727   2.514  15.204  0.0567  0.1050 -0.0162
15099W        W28513   3.957   6.648   0.941  0.1593  0.1474  0.0933
15100W        W28514   0.641  14.736   2.543 -0.1794  0.5471  0.0539
15101W        W28515   5.686   5.482  14.262 -0.0858  0.0895 -0.1299
15102W        W28516   3.783  12.940   0.599 -0.0834  0.2628 -0.4413
15103W        W28517   0.908   8.583   1.703  0.0524  0.1823  0.2925
15104W        W28518   9.186  17.272   2.439  0.0609  0.0341  0.2761
15105W        W28519   4.997   8.480   1.381  0.0806  0.0570 -0.1660
15106W        W28520  13.428   9.228   5.583  0.1237 -0.2193 -0.3322
15107W        W28521  18.394  18.310   4.399 -0.1293  0.0936 -0.1018
15108W        W28522   7.334   0.627  10.050 -0.1143  0.1666 -0.3651
15109W        W28523   9.498  12.006   0.599 -0.1564 -0.0679  0.2845
15110W        W28524   1.069  17.799  12.909  0.0900 -0.4191 -0.0654
15111W        W28525   7.442  11.712  10.756 -0.0548 -0.1421 -0.1270
15112W        W28526   3.803  11.079   0.257 -0.0095 -0.4029  0.2493
15113W        W28527   3.547   3.923   2.273  0.1668  0.0092 -0.3386
15114W        W28528   4.495   9.229   5.251 -0.3525  0.1457 -0.2006
15115W        W28529  14.698  10.613   1.532 -0.3050 -0.0320 -0.2635
15116W        W28530   4.890  17.596  14.986 -0.2668 -0.3343  0.0248
15117W        W28531  15.988   1.152  12.458 -0.0158  0.2403  0.0284
15118W        W28532   7.167  11.428  16.075  0.2413  0.1012 -0.2164
15119W        W28533   0.425  11.476  16.220 -0.0242  0.1180  0.0917
15120W        W28534  14.217  18.058  11.535 -0.0688 -0.1026  0.0773
15121W        W28535   1.748  15.619   5.944  0.0374 -0.1869 -0.0985
15122W        W28536   6.644   3.297  14.361  0.2722 -0.2173 -0.6179
15123W        W28537   5.178  15.602  14.381 -0.1396 -0.0839 -0.3129
15124W        W28538   9.889  12.320   0.450 -0.0518 -0.1866 -0.0573
15125W        W28539  13.733  17.219  11.585 -0.1051  0.2940  0.0457
15126W        W28540  17.482   4.170  15.975 -0.1971  0.1488  0.0459
15127W        W28541  18.309   7.360   3.027 -0.2612 -0.0600 -0.1916
15128W        W28542   6.040   3.531  10.436  0.0019  0.1333  0.0198
15129W        W28543  18.017  15.182   3.725  0.2006  0.1989  0.0367
15130W        W28544  10.746  18.052   2.969 -0.1442  0.1252  0.0008
15131W        W28545   3.864  10.136  10.511 -0.2183  0.0055 -0.1078
15132W        W28546   4.100   3.115   3.353  0.0909  0.1370 -0.1581
15133W        W28547   3.752   4.003   3.518  0.0782 -0.0754 -0.1362
15134W        W28548  15.810  14.833  13.592 -0.1231  0.1319 -0.0477
15135W        W28549   4.580   9.733  10.140  0.0574 -0.0942 -0.1487
15136W        W28550   3.828  11.762  13.524 -0.0598 -0.1037 -0.0811
15137W        W28551  11.176   7.001   2.470 -0.0224  0.0570 -0.1991
15138W        W28552   1.359  15.140   2.676  0.0939 -0.2640  0.1584
15139W        W28553  17.340   8.388  13.754 -0.3977  0.1765 -0.2123
15140W        W28554  17.513   9.173  12.347  0.0268 -0.0239 -0.0573
15141W        W28555  17.094  14.176  13.863  0.1252  0.0948 -0.0184
15142W        W28556   5.042   7.300  15.128  0.1971 -0.1599 -0.3774
15143W        W28557  11.469   1.405  14.714 -0.1604  0.0763 -0.5053
15144W        W28558   7.878   0.939  12.692  0.1087 -0.2864 -0.0761
15145W        W28559   9.915  18.280   6.006 -0.2959  0.2822 -0.0371
15146W        W28560  18.090  13.171   4.480 -0.0860  0.0195 -0.1613
15147W        W28561  14.354  12.280  14.350  0.0025  0.2561 -0.1939
15148W        W28562  12.308   2.049  15.505  0.0094  0.3126 -0.0434
15149W        W28563   5.759   4.349  13.852 -0.0404 -0.3134  0.1271
15150W        W28564  12.405   6.874  10.461 -0.1741  0.0938 -0.0478
15151W        W28565  14.059  15.866  16.206 -0.0092 -0.1042  0.0822
15152W        W28566   2.191  15.228  10.145  0.1330  0.0371  0.2751
15153W        W28567  13.552  11.879  13.064 -0.0429  0.4741  0.3523
15154W        W28568   9.165   0.720  12.807 -0.0790  0.0471  0.0382
15155W        W28569  13.397   2.224  15.847 -0.0404  0.1288  0.0582
15156W        W28570   5.175  11.484   4.855 -0.0345  0.1249 -0.0103
15157W        W28571  11.748  12.660  11.743  0.0273  0.0546  0.0098
15158W        W28572   5.991   7.655   5.081  0.1358 -0.0851  0.1691
15159W        W28573  11.682   8.925  12.266  0.1077  0.0173  0.0098
15160W        W28574   4.479  14.435   5.507  0.1957 -0.2701  0.3226
15161W        W28575  10.910  18.195   2.404  0.0247 -0.1340 -0.1355
15162W        W28576   3.063  11.871  13.731 -0.0200  0.1926  0.1474
15163W        W28577   1.506  10.988   2.118 -0.0974  0.1407  0.1941
15164W        W28578  13.313  16.468  15.964 -0.1447 -0.3276  0.0032
15165W        W28579   5.068   2.586  13.748  0.2878  0.0109 -0.2365
15166W        W28580  16.345   0.219   1.392  0.2067  0.2659  0.0568
15167W        W28581   6.976   8.659  10.858 -0.2408  0.0514  0.1938
15168W        W28582  10.803   6.540  13.285  0.0790  0.1715  0.2201
15169W        W28583   5.211  15.744   4.184  0.3289 -0.3616  0.1619
15170W        W28584   2.724   0.857  14.862  0.5057 -0.1741 -0.1265
15171W        W28585   7.356   1.695  11.449 -0.0966 -0.2119 -0.0057
15172W        W28586  17.341   7.775   1.713 -0.1360  0.0058 -0.0182
15173W        W28587  10.024   5.794   2.502  0.0163 -0.1822  0.0739
15174W        W28588  14.140   1.589   2.253  0.0157 -0.1147 -0.2933
15175W        W28589   0.177  10.863   4.438 -0.0582  0.0606 -0.1786
15176W        W28590   9.202  13.084  14.333  0.1586  0.1429 -0.2011
15177W        W28591   2.470   4.428  13.224  0.1219 -0.1130  0.1628
15178W        W28592  15.759  10.613  12.313 -0.1172  0.1689 -0.1639
15179W        W28593   5.457  11.309  15.159  0.1335 -0.0400 -0.0846
15180W        W28594   9.489  12.388   2.882 -0.1006  0.0701  0.1250
15181W        W28595   1.957  14.594  10.944  0.1742  0.1367  0.1595
15182W        W28596  18.094   4.876  14.754  0.0880  0.0058 -0.0809
15183W        W28597   7.246  13.731   0.349 -0.2427 -0.4819 -0.1836
15184W        W28598  15.806  17.961  12.054  0.0928  0.1028 -0.2117
15185W        W28599   5.305   1.030   1.780  0.3227  0.0369 -0.4213
15186W        W28600  17.369  16.087  15.685  0.0169  0.0101  0.0032
15187W        W28601  16.858  17.681   2.490 -0.0263 -0.0329  0.1174
15188W        W28602   5.481  15.181   2.821 -0.0055 -0.2540 -0.0538
15189W        W28603   0.258  15.291  10.904  0.0080  0.2654  0.1029
15190W        W28604   3.110   1.565  12.711  0.2444 -0.2884  0.1119
15191W        W28605  13.953   5.323  15.352  0.1214  0.0347 -0.0037
15192W        W28606  17.216  14.429   1.574  0.0151 -0.3212  0.2589
15193W        W28607  12.062  14.632  10.387 -0.0510  0.1378  0.0345
15194W        W28608   0.466   2.905  11.647  0.1103 -0.0745 -0.1487
15195W        W28609   9.028   5.571   5.101 -0.0677  0.0681  0.1888
15196W        W28610  11.522   5.125   1.821  0.2139  0.3054 -0.3267
15197W        W28611  10.661   7.443  15.054  0.1608  0.0681 -0.0227
15198W        W28612  12.733   7.643   2.490  0.1960  0.1379 -0.3131
15199W        W28613  13.074  17.154  13.668 -0.1172 -0.2955 -0.1554
15200W        W28614  14.251   1.889   5.747 -0.1471  0.0091  0.2369
15201W        W28615   3.115  12.791  10.524  0.1668 -0.1374 -0.0778
15202W        W28616   5.217   2.650  11.208  0.0295  0.0446  0.1893
15203W        W28617   9.888   6.375  10.793 -0.3176 -0.0225 -0.0049
15204W        W28618  16.815  15.685  13.723  0.1222  0.2278 -0.0509
15205W        W28619  13.958   2.226   2.808  0.0245 -0.0618 -0.0941
15206W        W28620   8.003  15.256  14.135  0.1312  0.0638  0.0158
15207W        W28621  10.614  17.600   2.623 -0.1257 -0.5220 -0.2363
15208W        W28622  15.212   3.282  10.950  0.0010 -0.1929 -0.1174
15209W        W28623  16.636   9.487  11.623  0.0219  0.0945  0.0062
15210W        W28624   0.273   0.819  15.241 -0.1102 -0.2239  0.2499
15211W        W28625  11.212  12.886   5.299 -0.2242  0.0119  0.0939
15212W        W28626  18.313   0.883   3.287  0.1010  0.2237  0.0559
15213W        W28627  15.172   1.829   0.839  0.0975  0.0012  0.0486
15214W        W28628  15.543  11.413   4.075  0.0279  0.1294 -0.1253
15215W        W28629  12.327  15.126   1.242 -0.1610 -0.1863  0.2970
15216W        W28630   5.196  13.625   1.411  0.1540 -0.0478 -0.0420
15217W        W28631  14.421  14.308   1.836 -0.0654  0.0483 -0.0323
15218W        W28632  10.185   1.224  14.367 -0.1249 -0.1921 -0.0328
15219W        W28633  13.122   9.262  11.111  0.1162  0.2664  0.0011
15220W        W28634   8.870   1.348   2.814 -0.1703  0.0153 -0.0743
15221W        W28635   2.185   1.757  14.880  0.4503  0.1410 -0.5143
15222W        W28636  17.653  15.051  14.814  0.3062 -0.1603  0.0579
15223W        W28637   2.664   4.528   5.439  0.0329 -0.3558  0.2228
15224W        W28638  14.136  10.098   5.702  0.2521 -0.3349 -0.2403
15225W        W28639  13.888  12.106   5.869  0.0953  0.0995  0.0947
15226W        W28640   1.890   5.783  13.289  0.1728 -0.0972 -0.0672
15227W        W28641   5.479   7.170  13.493 -0.0376  0.1093 -0.3782
15228W        W28642  18.118   8.833   6.032  0.2016 -0.1464  0.0469
15229W        W28643   4.154  14.014  13.500 -0.3878  0.2216  0.0013
15230W        W28644   1.924  11.296   0.966  0.1971 -0.2333 -0.1567
15231W        W28645  14.446   2.870   4.159  0.0258  0.2370 -0.0138
15232W        W28646   9.123  17.371  13.727  0.0775 -0.2527 -0.0152
15233W        W28647   0.512   2.692  14.677 -0.0227 -0.0765  0.1066
15234W        W28648  12.674   9.647   0.366 -0.1796  0.1978  0.0308
15235W        W28649  12.790  13.699   1.295 -0.0095  0.2934  0.2777
15236W        W28650   4.758   8.926  13.702  0.0441  0.0995  0.5787
15237W        W28651  13.354   6.871  15.464 -0.1313 -0.2771 -0.1549
15238W        W28652   7.609   1.265   1.628  0.2444  0.2155 -0.0261
15239W        W28653  12.522  18.104  12.552  0.4183  0.2843 -0.1984
15240W        W28654   0.063  15.116  15.009  0.0258 -0.1394  0.2195
15241W        W28655  15.532  15.422   0.717  0.0925  0.0440 -0.1851
15242W        W28656  16.547  14.662  12.253  0.3174 -0.3248 -0.0649
15243W        W28657   3.299  14.791   2.104  0.2827  0.2054 -0.0095
15244W        W28658   7.220  12.157  10.751  0.0312 -0.1206 -0.0222
15245W        W28659  11.449  13.135  14.487  0.1140 -0.3107  0.0709
15246W        W28660  10.236  12.358   5.437  0.0113  0.0871 -0.1212
15247W        W28661   5.841  14.927  12.887  0.0421 -0.1838  0.2511
15248W        W28662  12.826  10.511  12.184  0.0536 -0.2082 -0.2756
15249W        W28663  14.954  14.055   0.087  0.2355 -0.0912 -0.2276
15250W        W28664   1.654  11.034  14.538 -0.1710  0.1905  0.0225
15251W        W28665  11.861   8.824  11.824 -0.0324 -0.1958  0.2367
15252W        W28666  10.549  12.502   4.965 -0.2520  0.3448  0.2743
15253W        W28667  13.231   8.291  13.998 -0.0211 -0.0416 -0.1010
15254W        W28668  15.363   2.040  11.170  0.1122  0.3994  0.0875
15255W        W28669   3.107   5.240  12.954 -0.2334  0.1829  0.0133
15256W        W28670   4.840   0.954  13.872  0.2799 -0.3794 -0.0699
15257W        W28671  14.474   7.118  13.645 -0.0855  0.0655  0.3005
15258W        W28672   5.171   3.572   4.581 -0.0476 -0.0094  0.2486
15259W        W28673  11.613   8.133   2.194 -0.0123  0.0419 -0.0066
15260W        W28674   0.499  17.094   4.260 -0.1023  0.0467  0.1950
15261W        W28675   2.261  16.167  11.856  0.2717  0.1244  0.0236
15262W        W28676   9.906  18.076  12.494  0.2757 -0.0593  0.0296
15263W        W28677  14.762  15.471  12.357  0.0985  0.2104 -0.2399
15264W        W28678   9.617   3.132   4.800  0.0387 -0.1304  0.1256
15265W        W28679   1.067   7.802   3.076 -0.0778  0.3419 -0.1041
15266W        W28680  16.234   9.818   0.541  0.1524 -0.0203  0.2166
15267W        W28681  17.292  15.553  10.283 -0.1931  0.1086 -0.2285
15268W        W28682   1.537   8.804  14.961 -0.0563 -0.1912 -0.3507
15269W        W28683   0.770  11.176  14.302  0.0362  0.1723 -0.0363
15270W        W28684  16.126  11.409  12.859  0.4135 -0.4178 -0.3161
15271W        W28685  15.426   1.518   5.098  0.0461 -0.0505 -0.2836
15272W        W28686  17.147  16.453  15.085  0.0038 -0.3342 -0.0407
15273W        W28687  15.211  16.606  16.065  0.0867 -0.2375  0.1433
15274W        W28688  15.634   1.649  15.286  0.4058  0.1420 -0.0803
15275W        W28689   9.206   5.599  15.213 -0.0315  0.2165 -0.2329
15276W        W28690  10.991   0.816  12.858 -0.0873 -0.0212 -0.0672
15277W        W28691  11.024  10.017   4.646  0.0946  0.0230  0.1239
15278W        W28692   1.459   8.378   0.078 -0.2511 -0.2178  0.2568
15279W        W28693   8.470  11.327  14.125  0.0044  0.0770 -0.0860
15280W        W28694   0.339   8.182  13.848  0.0640  0.1583  0.1725
15281W        W28695   4.979  12.125  12.654 -0.0476  0.1880 -0.1937
15282W        W28696  18.325   2.480  12.399 -0.0071 -0.1511  0.1276
15283W        W28697  15.130  12.528  11.680 -0.0459 -0.2239 -0.0564
15284W        W28698   8.963   0.346   0.419 -0.0745 -0.0174  0.3218
15285W        W28699  13.221  10.356  15.349  0.0264 -0.0822  0.1778
15286W        W28700  12.692  11.379   1.359  0.1309 -0.1473 -0.1129
15287W        W28701   0.325  15.560   5.093  0.0202 -0.2203 -0.0800
15288W        W28702   8.718   6.759  14.289  0.1315  0.1446  0.1749
15289W        W28703  10.419  18.035   9.960  0.0049 -0.1656  0.0448
15290W        W28704   0.738  10.728  11.039  0.0158 -0.1455 -0.2211
15291W        W28705   7.643   5.612  12.034 -0.0004 -0.1864  0.4622
15292W        W28706  16.138  17.167  10.494 -0.3275  0.2993  0.2404
15293W        W28707  15.027   2.592  12.444 -0.0138 -0.1393 -0.1929
15294W        W28708   5.704   0.055   0.002  0.0394  0.1584  0.4390
15295W        W28709   0.178  17.499  10.629 -0.0130  0.0266  0.1210
15296W        W28710   6.019  10.650  12.101 -0.2356  0.0720 -0.1878
15297W        W28711  11.979  11.342   4.361  0.1653 -0.2448  0.1413
15298W        W28712   5.903   6.556   2.100 -0.0164 -0.0259 -0.2216
15299W        W28713  10.650   6.889   3.880 -0.2134  0.0459 -0.0080
15300W        W28714  17.174  10.331  14.327 -0.0300  0.0680 -0.0708
15301W        W28715   2.907   9.897  12.336 -0.1084 -0.2506 -0.1726
15302W        W28716   1.696  16.531   1.788 -0.2728  0.1528 -0.0826
15303W        W28717  17.846   8.172   0.364 -0.0305 -0.1278 -0.0128
15304W        W28718   5.036   6.045  13.772 -0.0527 -0.1894 -0.0123
15305W        W28719   0.154   5.838  14.083  0.0361 -0.0032 -0.3608
15306W        W28720   9.800   1.507  12.915 -0.1327  0.0186 -0.2830
15307W        W28721   8.017   1.157  12.259 -0.0578 -0.2845 -0.0786
15308W        W28722   4.839  14.445   0.481  0.0676 -0.2707 -0.1370
15309W        W28723  15.704  11.393   4.694 -0.2052 -0.2911  0.0575
15310W        W28724   5.086   5.283   1.603  0.0481 -0.1762  0.0787
15311W        W28725   9.545  18.077  12.087  0.1281 -0.4415  0.1407
15312W        W28726   0.345  16.415  16.153  0.0515  0.3589  0.1305
15313W        W28727  11.986  16.961  16.078 -0.4431  0.1268 -0.1594
15314W        W28728   8.448  16.587   2.689  0.1918  0.1534  0.2662
15315W        W28729   0.736   3.481   3.459  0.2116 -0.1003  0.0834
15316W        W28730   0.665   2.499  13.088  0.1482 -0.1295 -0.1547
15317W        W28731   4.172  15.707   0.130  0.1869 -0.2472  0.0187
15318W        W28732  17.815  17.774  14.971  0.2031 -0.2371  0.2151
15319W        W28733   8.258   4.189   1.691  0.0268 -0.1055  0.1345
15320W        W28734   2.575  16.539   1.795  0.2992 -0.2124 -0.0916
15321W        W28735  14.886   4.891   5.817  0.0257  0.0044 -0.1751
15322W        W28736   3.487   1.038  15.725  0.2088 -0.1616 -0.1538
15323W        W28737  10.068   4.824  11.572  0.0852  0.0201 -0.2485
15324W        W28738   3.711   8.528  15.196  0.2073 -0.1706  0.4297
15325W        W28739   3.183  15.428   9.844 -0.0127  0.0897 -0.2020
15326W        W28740  14.438  12.683   5.492 -0.0706  0.0603 -0.1041
15327W        W28741   4.539   5.992  13.971  0.0643  0.1724 -0.2115
15328W        W28742   0.653  12.226   1.795  0.0733  0.2844 -0.2200
15329W        W28743   1.265   3.054   0.502  0.0814 -0.0110  0.1147
15330W        W28744   2.596  17.237  15.255  0.0426 -0.0356 -0.0929
15331W        W28745   3.169  16.771  11.886  0.2886  0.0649 -0.0345
15332W        W28746  14.800   4.687   4.296 -0.2740  0.1569 -0.0551
15333W        W28747   9.589  16.170   5.960  0.2218  0.2502 -0.3273
15334W        W28748   4.004  13.905  15.162  0.1055 -0.1964 -0.0447
15335W        W28749   9.061   9.660  14.243  0.1768 -0.2667  0.2671
15336W        W28750  12.529   9.202  14.788  0.2586  0.1811  0.1226
15337W        W28751  15.100   6.599  14.094 -0.0629  0.0568  0.3343
15338W        W28752  14.939  15.356   3.607 -0.5239 -0.0559  0.1400
15339W        W28753  11.557  14.455   0.294  0.1268 -0.0565 -0.0161
15340W        W28754   3.671  12.297   1.798 -0.0380 -0.1471 -0.1912
15341W        W28755   8.860   4.901   0.715 -0.0747 -0.2181  0.0314
15342W        W28756   7.279  11.090  14.342  0.2202 -0.2057 -0.2303
15343W        W28757   0.789   3.647   4.420  0.3517 -0.0469 -0.1302
15344W        W28758   7.801   5.767   4.122 -0.2688 -0.4816 -0.3190
15345W        W28759   3.197   7.656   0.098  0.1010  0.2915 -0.0963
15346W        W28760  14.051  13.936  11.110 -0.1873  0.2315  0.2420
15347W        W28761   3.553   5.922  15.653 -0.0476  0.1478  0.1135
15348W        W28762  10.078  13.507   3.131  0.1575 -0.1399  0.0967
15349W        W28763   2.548  16.622   2.453 -0.2478  0.1325 -0.3423
15350W        W28764   7.240   8.811  16.050  0.2633 -0.0632 -0.0527
15351W        W28765  11.312  12.736   2.288  0.2977  0.0225  0.1905
15352W        W28766   4.932  11.588   5.795 -0.2577  0.0309 -0.0089
15353W        W28767  14.784   6.302   1.072  0.0347 -0.4755  0.3750
15354W        W28768   6.014  15.944  11.797  0.0314  0.0106 -0.1925
15355W        W28769   2.541  13.795  11.084 -0.1330  0.0288 -0.3144
15356W        W28770   4.452  12.759   2.211 -0.0044  0.0764  0.2659
15357W        W28771   9.072  11.541  11.382 -0.2544  0.0566  0.0888
15358W        W28772  10.385  14.136  13.757 -0.1304  0.0213 -0.1129
15359W        W28773   5.689  17.809   4.520 -0.0200  0.0088  0.2489
15360W        W28774   8.966   1.486   0.156  0.0181  0.3336  0.1728
15361W        W28775   6.637  12.528  10.460  0.0387  0.1270  0.0788
15362W        W28776   0.468  17.787  10.349  0.0876 -0.0767 -0.3640
15363W        W28777   0.382   3.698  14.915  0.1932 -0.2080  0.0479
15364W        W28778   9.827  17.513  15.352 -0.2032  0.3269  0.1021
15365W        W28779  10.781   8.254  14.157 -0.0538  0.1233  0.2031
15366W        W28780  16.998  18.232  14.469 -0.1797  0.3431 -0.0253
15367W        W28781   4.115  14.353  12.115  0.1334  0.1094  0.1664
15368W        W28782   5.331  14.910   3.264 -0.3060 -0.1252  0.1542
15369W        W28783  10.436   8.071   1.236  0.1163  0.2436  0.0328
15370W        W28784   0.381   6.696  11.144 -0.0814 -0.0688  0.0850
15371W        W28785  17.194   7.686  15.719 -0.2075  0.2533  0.2436
15372W        W28786   0.278   2.464   3.930  0.1612 -0.2134  0.0382
15373W        W28787  12.405   0.112  10.064 -0.0332  0.2363  0.2336
15374W        W28788  14.436   0.405  13.065  0.0920  0.2284 -0.2232
15375W        W28789   1.992  13.148   0.457 -0.0889 -0.3311  0.1369
15376W        W28790   7.911   3.423   1.480  0.0285  0.1095 -0.1983
15377W        W28791   4.851  16.481   0.675  0.0323 -0.3307 -0.1786
15378W        W28792  11.982  10.658  11.244 -0.0236  0.0399  0.2501
15379W        W28793   6.786  10.428   9.778 -0.2925  0.3304  0.1618
15380W        W28794   9.344   1.836  10.640  0.0013  0.1443 -0.1211
15381W        W28795  18.402  10.698  12.516  0.3235 -0.0004 -0.3026
15382W        W28796  13.519   2.137  14.710  0.1461 -0.2167  0.1766
15383W        W28797   6.325  17.635  15.511 -0.2772 -0.0225  0.1030
15384W        W28798   0.560   5.668   3.774  0.1300  0.1657  0.0477
15385W        W28799   7.648   9.192   0.400  0.0713  0.1088  0.0596
15386W        W28800   9.373   6.663  13.233  0.3677  0.0980 -0.1528
15387W        W28801  11.484   3.447  14.893 -0.1152  0.1081  0.3068
15388W        W28802   9.458   4.950   5.663  0.0161  0.1809  0.2302
15389W        W28803   6.276  13.810  15.212 -0.2667  0.2055 -0.0140
15390W        W28804   2.157  16.662   5.281 -0.4158  0.3851 -0.3126
15391W        W28805   4.837  10.093   5.667  0.1655 -0.1597  0.1347
15392W        W28806  14.256   6.607  13.734 -0.0693  0.0821 -0.0455
15393W        W28807  18.350   9.763   4.257 -0.0421 -0.0241 -0.0393
15394W        W28808   3.094   6.401   1.349 -0.0348 -0.0104 -0.2995
15395W        W28809  14.391   4.517  14.455 -0.0555  0.0440 -0.1020
15396W        W28810   6.572   1.840   5.550  0.0029  0.1993  0.1118
15397W        W28811   8.537   2.566   3.124 -0.2792 -0.3243 -0.0251
15398W        W28812  12.146  12.546   1.551  0.2334  0.2053  0.1691
15399W        W28813  11.400  15.849   4.231  0.0951 -0.0760 -0.0305
15400W        W28814  18.203   9.069  15.566 -0.3173  0.3893  0.2726
15401W        W28815   7.546  12.270   0.451  0.3525 -0.4448 -0.2615
15402W        W28816  17.988  15.910  10.995 -0.5366  0.0902  0.1385
15403W        W28817   6.972   8.030  12.057  0.1604  0.2010 -0.0981
15404W        W28818   0.066   8.673   1.374  0.0517  0.1832 -0.1814
15405W        W28819   6.190   4.580  14.016  0.1000  0.1577 -0.1971
15406W        W28820  17.612   5.927   5.927 -0.1629  0.0412 -0.1377
15407W        W28821   4.739  14.802  10.120 -0.2049 -0.0048  0.0657
15408W        W28822  17.349  12.643   4.039  0.0210 -0.0912 -0.0548
15409W        W28823  12.930  17.587   4.783 -0.0222 -0.0219  0.0801
15410W        W28824  12.428   4.811  11.642  0.1281  0.1423 -0.1300
15411W        W28825   3.820  16.485   4.192 -0.1175  0.2656  0.2747
15412W        W28826   3.031   6.909  15.041 -0.1173  0.0892 -0.2849
15413W        W28827   9.253   2.245   1.265 -0.0486  0.0427  0.0892
15414W        W28828  17.798   7.634  15.667  0.2631 -0.0328 -0.1125
15415W        W28829   3.109   6.148  15.523 -0.0095  0.3396  0.2558
15416W        W28830  14.302  13.511  11.728  0.0976 -0.3105 -0.0894
15417W        W28831   8.782   0.434  15.876 -0.2896  0.0881  0.1439
15418W        W28832  15.833   1.633   0.253 -0.0353 -0.0439  0.1398
15419W        W28833   0.907   3.566  14.907  0.1225  0.0675 -0.0438
15420W        W28834  12.832   4.707  11.904 -0.0516  0.3246 -0.2735
15421W        W28835   9.563   5.513   4.975  0.1549  0.0077 -0.1301
15422W        W28836  12.804  18.121   4.254 -0.5363 -0.0058 -0.1310
15423W        W28837  17.731   1.384  13.148 -0.1994  0.0849  0.2182
15424W        W28838  18.441  14.918   5.771 -0.1135  0.2576 -0.2077
15425W        W28839  15.081   1.380  15.866 -0.0101 -0.0203 -0.1977
15426W        W28840   6.529  18.337   5.486 -0.0725  0.1855  0.1951
15427W        W28841   5.342   7.776  15.793  0.2445  0.2117  0.0218
15428W        W28842   2.997   3.897   3.347 -0.1977 -0.2084  0.3042
15429W        W28843  16.179   1.615   4.377 -0.2700  0.0728 -0.0833
15430W        W28844  16.132  11.341   5.693  0.0704  0.1345 -0.1126
15431W        W28845   9.367  18.134  16.259 -0.2988 -0.0374  0.0314
15432W        W28846  16.537  14.244  12.570 -0.0337  0.1355  0.0228
15433W        W28847   1.727   0.223  14.529 -0.0992  0.0238  0.2942
15434W        W28848  17.527  16.981  15.584 -0.2216  0.2271 -0.0987
15435W        W28849  12.766  18.381  12.184  0.2424 -0.2159 -0.0240
15436W        W28850   3.404   9.156   0.712 -0.2278 -0.1721 -0.1405
15437W        W28851   0.818  16.467   4.749  0.2206 -0.0245 -0.4242
15438W        W28852   2.926  17.126   3.046 -0.1514  0.0985  0.1494
15439W        W28853  10.107   6.188   3.820  0.2583  0.1511  0.1252
15440W        W28854  15.024  15.640  16.226 -0.1699  0.3533  0.0007
15441W        W28855  17.359   1.206   1.969 -0.0210 -0.3372  0.1563
15442W        W28856   5.196   6.471   4.104 -0.0248 -0.1032 -0.1347
15443W        W28857  17.877   4.303  11.179 -0.0684 -0.0461 -0.3359
15444W        W28858  14.793   1.141   3.570  0.1623 -0.2050 -0.1713
15445W        W28859   8.271   1.339   1.188  0.0056 -0.1717  0.1050
15446W        W28860   7.418   1.070  13.797  0.0120 -0.2631 -0.1347
15447W        W28861  15.677   1.451  10.756 -0.0448 -0.0033  0.1982
15448W        W28862  16.970  10.770   6.204  0.0798 -0.4459  0.1410
15449W        W28863  16.058   7.304  12.713 -0.2676  0.1849 -0.1962
15450W        W28864  15.318   7.508  11.706  0.0636  0.1602 -0.1473
15451W        W28865  15.735  13.040   6.435  0.1468 -0.2181 -0.1279
15452W        W28866   8.132   2.761   2.206  0.2477  0.2353 -0.0454
15453W        W28867  13.460  10.757  11.733 -0.2067  0.1015  0.3014
15454W        W28868   3.296  16.568  13.563 -0.0380  0.3110 -0.2042
15455W        W28869   9.237   5.869  16.076 -0.3969 -0.1681 -0.0217
15456W        W28870   1.520   0.219   0.241  0.1379 -0.1744 -0.0713
15457W        W28871  13.577   5.550  12.316 -0.0228  0.1553 -0.1371
15458W        W28872  10.155  18.191   4.723 -0.1424  0.1420  0.0337
15459W        W28873  17.220   1.409   0.639 -0.1866  0.3017  0.0173
15460W        W28874  17.479   0.535   0.737  0.1520  0.0762  0.3434
15461W        W28875  17.643  11.577  13.520 -0.0586  0.0418  0.3625
15462W        W28876  18.381  13.793   1.149  0.0505  0.0918  0.1043
15463W        W28877   6.883   3.055   1.881 -0.1040  0.2967 -0.3797
15464W        W28878  13.476  10.389   1.103  0.0096  0.1305  0.2005
15465W        W28879  11.180  12.902   3.571 -0.0639 -0.0707 -0.0700
15466W        W28880  13.400  17.031  15.752  0.0467  0.1122  0.3106
15467W        W28881   5.578   7.654   1.428  0.0426  0.2073  0.1047
15468W        W28882  16.223  14.882   0.739  0.0227 -0.2242  0.0553
15469W        W28883  11.802   4.341  10.562  0.2151  0.0628 -0.1610
15470W        W28884   1.819  11.017   5.309 -0.3433 -0.1526  0.0371
15471W        W28885  15.823  14.146   0.295 -0.0838  0.1524 -0.2021
15472W        W28886   6.395  18.268   0.225 -0.0797 -0.3588  0.3640
15473W        W28887  17.379  11.359   5.180 -0.1400  0.0087 -0.3752
15474W        W28888   0.499   1.553  14.105 -0.2669 -0.0189 -0.3462
15475W        W28889  16.654   7.996  14.361  0.1706  0.2433  0.3386
15476W        W28890   3.955  17.522  12.443 -0.2121  0.3366 -0.0477
15477W        W28891  12.430  12.880   2.680 -0.1743 -0.4253 -0.0176
15478W        W28892  13.960   9.435   5.169 -0.3366  0.0734 -0.2938
15479W        W28893   8.135  13.686  14.645 -0.2057  0.3437  0.2700
15480W        W28894   5.518   8.148   4.133  0.1350 -0.0616  0.1428
15481W        W28895   0.755   5.809  11.287  0.1304  0.1518  0.1553
15482W        W28896   4.015   4.121   2.165 -0.0555 -0.1379  0.2259
15483W        W28897   9.293  11.342   3.654 -0.0389  0.0963 -0.0750
15484W        W28898  14.844  16.952  12.546  0.0697  0.0218 -0.1550
15485W        W28899  15.005  16.929  11.388  0.0941 -0.1160  0.3372
15486W        W28900  14.536  14.806  10.965 -0.0008 -0.1997 -0.2140
15487W        W28901   0.945   2.334   5.518  0.1007 -0.0247  0.2394
15488W        W28902  17.242  11.988  12.456  0.1790 -0.2225 -0.0211
15489W        W28903   9.757   2.062  15.113 -0.0973 -0.0321  0.0860
15490W        W28904  18.123  11.763  11.148  0.0958  0.1731 -0.0860
15491W        W28905  14.838   3.636   2.789 -0.0979 -0.2211  0.0849
15492W        W28906   3.909   3.084  12.109 -0.1002  0.2396  0.0488
15493W        W28907   9.632   9.070   9.987 -0.1049 -0.0246  0.0630
15494W        W28908   6.425  10.006   4.724  0.1491  0.0975  0.3130
15495W        W28909   4.548  15.716  15.616  0.0714  0.3722 -0.1057
15496W        W28910  15.258  13.908   2.384  0.1372 -0.0979  0.3083
15497W        W28911  17.570  14.175   3.576 -0.1886  0.1741  0.2993
15498W        W28912  15.040   5.880  15.484 -0.0864  0.3666  0.1292
15499W        W28913  12.133  12.330  11.853 -0.1831  0.0318 -0.1363
15500W        W28914   7.093  14.741  14.642 -0.2991  0.1029 -0.1299
15501W        W28915   8.898   0.166   3.716 -0.1015  0.1001 -0.1184
15502W        W28916   7.565  17.190  10.802  0.2830  0.1660 -0.3061
15503W        W28917  10.855  12.401   0.782 -0.1795 -0.1801  0.0520
15504W        W28918  14.225   3.224   2.060 -0.1654  0.1055  0.0055
15505W        W28919   2.810   5.866   1.646  0.1178 -0.0409 -0.1873
15506W        W28920   4.097   4.612   4.284 -0.1314 -0.2097  0.0640
15507W        W28921   6.814  13.916  12.054 -0.0080  0.0106 -0.2294
15508W        W28922  14.875   1.050   1.669 -0.1857  0.2281  0.3967
15509W        W28923  10.252   4.300   0.922  0.0825  0.0138 -0.1564
15510W        W28924   2.695  10.956   0.420  0.0009  0.1278 -0.0819
15511W        W28925  16.936  14.525   6.248 -0.3226  0.1111  0.1474
15512W        W28926   6.157  17.375   0.995  0.1746  0.0265  0.0117
15513W        W28927  14.858  11.741  15.629  0.2809 -0.1698 -0.1254
15514W        W28928  10.982  11.921  13.364  0.0038  0.0920 -0.0989
15515W        W28929  10.116  11.508   9.915 -0.1589 -0.1421 -0.1470
15516W        W28930   0.564  10.129  15.082 -0.1475  0.0319  0.1851
15517W        W28931   6.758  17.181  11.837  0.0918  0.0728 -0.0214
15518W        W28932   5.267  18.008  15.039 -0.0890 -0.1956 -0.3238
15519W        W28933   7.236   0.453  13.110 -0.4858 -0.2427 -0.0546
15520W        W28934   9.271   6.537   4.205  0.0254  0.0884  0.0882
15521W        W28935  16.388   9.730  16.115 -0.0584 -0.0380 -0.0278
15522W        W28936  16.071   1.260  12.991 -0.0742 -0.0299 -0.0743
15523W        W28937   8.589  12.188  15.198 -0.2289 -0.0358 -0.0532
15524W        W28938  17.288  17.483  10.818 -0.1360 -0.0237 -0.0123
15525W        W28939  17.568   0.508  15.191 -0.0628  0.0882 -0.0145
15526W        W28940   5.470   7.805   0.891  0.0319 -0.2730 -0.1247
15527W        W28941  18.227  12.591   3.934  0.0709  0.3877  0.2961
15528W        W28942   5.035  14.872   0.145 -0.3186  0.2605 -0.0274
15529W        W28943   9.016  12.869  15.753  0.1347 -0.1188  0.0470
15530W        W28944  13.101  12.826  11.259 -0.3292  0.1499 -0.1786
15531W        W28945   1.135   7.285   2.379  0.0673 -0.1367 -0.0147
15532W        W28946  13.907  17.891  15.634  0.0971  0.2505  0.3405
15533W        W28947  14.935  16.315   5.090  0.1276 -0.0729 -0.1851
15534W        W28948   9.573   9.209  12.622  0.2230 -0.1272  0.2771
15535W        W28949   9.114  14.294  12.649  0.0447 -0.1968  0.0025
15536W        W28950   5.132  10.014   4.076 -0.0679  0.1052 -0.4974
15537W        W28951   3.626   0.953   3.332  0.2775 -0.1082 -0.2354
15538W        W28952   0.472  12.677   2.082 -0.0786 -0.2134 -0.2077
15539W        W28953   0.539   6.341  12.062 -0.2043 -0.4967 -0.1741
15540W        W28954   6.169   2.375  12.881  0.2434 -0.1279 -0.0274
15541W        W28955  17.162   5.004   0.484  0.1062 -0.0988 -0.1332
15542W        W28956   0.297  17.732   5.998  0.2053 -0.1879  0.1594
15543W        W28957  17.344   7.215  14.676 -0.3001  0.0124  0.2165
15544W        W28958  12.479   5.640   0.915  0.0137 -0.0842  0.0312
15545W        W28959   6.570  17.343   2.270 -0.0421  0.2439  0.0402
15546W        W28960   7.621   1.238  10.828  0.0363  0.3170 -0.0371
15547W        W28961  13.129   9.920   0.415  0.2643  0.1780  0.1303
15548W        W28962  12.605  15.825   3.980  0.0614 -0.1728 -0.2327
15549W        W28963  13.918  12.503   4.513  0.1211 -0.1445  0.2352
15550W        W28964   6.049  12.398  11.597  0.2599  0.0715  0.3005
15551W        W28965   6.132  10.261   4.255 -0.2162 -0.2440 -0.0682
15552W        W28966   8.035   3.042  15.236 -0.1878  0.0555 -0.0331
15553W        W28967   0.391   4.525  13.207  0.2891 -0.0568 -0.0525
15554W        W28968  10.326  11.568  12.221 -0.1173  0.0954  0.0727
15555W        W28969   9.697  10.197  14.611 -0.1302  0.2732 -0.0113
15556W        W28970   5.396  10.321   5.676  0.1688  0.1079 -0.1952
15557W        W28971   4.965  12.451  14.671 -0.0112  0.0883  0.0126
15558W        W28972  13.939   4.629  14.217  0.1471  0.3577 -0.1289
15559W        W28973   3.667   5.951   4.603 -0.0090  0.0164  0.5962
15560W        W28974   8.382  10.473  10.645  0.1063  0.2410  0.3732
15561W        W28975  18.199  11.197   1.485  0.0737  0.3227 -0.2718
15562W        W28976   4.274  11.948  15.514  0.0048  0.2447  0.1767
15563W        W28977   5.730   7.213   0.444 -0.4990 -0.1762 -0.1212
15564W        W28978  17.416   8.862  14.632  0.2603 -0.2735  0.2282
15565W        W28979   9.815  13.415   0.670 -0.1901  0.2335 -0.2028
15566W        W28980  16.622  13.439  14.736 -0.1583  0.0812 -0.2562
15567W        W28981   6.267   6.858   4.297 -0.1388  0.1743 -0.1821
15568W        W28982   5.863   7.830  14.577  0.2865  0.0644 -0.0231
15569W        W28983   9.222   1.440   5.083 -0.0535  0.2047  0.2843
15570W        W28984   5.748   1.422   5.051 -0.3614  0.0045 -0.1600
15571W        W28985  13.926  14.824  12.766 -0.0514 -0.1289  0.3290
15572W        W28986  16.616  14.870   2.362  0.1306 -0.1004 -0.1565
15573W        W28987   0.010  17.834   0.389 -0.1927 -0.0365  0.0231
15574W        W28988   0.610   7.711  10.585  0.2629  0.1997 -0.0132
15575W        W28989   2.666  16.621  14.809 -0.2343 -0.0151  0.1517
15576W        W28990  16.297  10.991   0.945 -0.1571 -0.1541  0.0688
15577W        W28991   8.411  14.305  11.153 -0.2245  0.1731 -0.0186
15578W        W28992  16.616  13.571   2.053  0.1817  0.2646 -0.1940
15579W        W28993  15.755  10.440   1.989 -0.1833  0.0504 -0.0132
15580W        W28994  11.898   7.271   1.983  0.0432  0.1292 -0.0479
15581W        W28995  17.367  10.470  12.167 -0.1667  0.2232 -0.0193
15582W        W28996   9.431  12.507   0.348 -0.0534 -0.0758 -0.2235
15583W        W28997   6.777  15.142   0.065 -0.0715  0.0593 -0.1123
15584W        W28998  10.384   2.048   3.886  0.0432 -0.1722  0.4339
15585W        W28999   9.746   2.135  10.457  0.0338 -0.1228  0.0400
15586W        W29000   8.025  16.885  15.279 -0.0277  0.4714 -0.1232
15587W        W29001  11.722  17.150   4.575  0.1702  0.1958  0.1847
15588W        W29002   1.161   8.614  12.359  0.1350 -0.1220 -0.2798
15589W        W29003  18.292   5.522  11.813  0.0357  0.2492  0.1131
15590W        W29004  13.220  16.587  12.014 -0.1556  0.2166 -0.2296
15591W        W29005  10.680  13.247  14.040 -0.0664  0.3056 -0.0340
15592W        W29006   3.289   6.406   2.710 -0.0312 -0.0707 -0.1348
15593W        W29007  16.984   0.377   5.736  0.1005 -0.1431 -0.4338
15594W        W29008   4.135   2.254   6.429  0.0150  0.0627 -0.0465
15595W        W29009  15.425  15.401   1.754 -0.1800  0.2617  0.2056
15596W        W29010  13.437   9.437  15.137 -0.1003  0.0821  0.0017
15597W        W29011  13.393  11.350   4.987  0.1362 -0.2488  0.3407
15598W        W29012  12.874   6.735  15.757  0.0067  0.2091 -0.1761
15599W        W29013   5.865  13.724   3.441  0.1311 -0.3590  0.0673
15600W        W29014  11.323  17.732  13.511  0.1417  0.1108  0.0874
15601W        W29015  15.597  14.245   3.630 -0.0668 -0.0771  0.1743
15602W        W29016   0.095  16.384   3.728 -0.0074  0.2106  0.2897
15603W        W29017  12.085  14.594   4.215 -0.2600  0.0303  0.0091
15604W        W29018   8.770  15.872   4.366  0.1687 -0.0882  0.0302
15605W        W29019  13.790  15.472   2.250 -0.0700 -0.1940  0.1693
15606W        W29020   7.083  15.663   1.019 -0.1402 -0.3249  0.0898
15607W        W29021  11.619  11.515   3.090 -0.1058 -0.1242  0.0657
15608W        W29022   5.315  17.298   4.835  0.0866 -0.0492  0.3416
15609W        W29023   6.240  13.340  15.338 -0.0393  0.1058  0.4897
15610W        W29024   1.248  11.330  13.141  0.0729  0.0894  0.1100
15611W        W29025   4.867   7.778  14.987  0.1930  0.0769 -0.1184
15612W        W29026   5.642  17.767   2.608  0.1099  0.2105  0.0322
15613W        W29027  17.358   5.413  14.381 -0.0726 -0.0017  0.0541
15614W        W29028   5.106   3.909   0.629 -0.1584  0.0116 -0.2018
15615W        W29029   8.100  10.850   4.616 -0.1570  0.0968  0.1076
15616W        W29030   1.860  14.934   2.794  0.1400  0.0457 -0.0658
15617W        W29031   3.312   7.278  13.665 -0.0910 -0.0194 -0.0108
15618W        W29032  13.685   6.912  12.965 -0.1430 -0.0279  0.1545
15619W        W29033   9.561   0.141   1.550  0.2449  0.3078 -0.0394
15620W        W29034  11.213   0.384   1.987 -0.2222  0.1055 -0.1239
15621W        W29035   8.330  11.327  11.504 -0.0822 -0.1255  0.1014
15622W        W29036   5.333   1.155   4.297  0.0020  0.0905  0.1203
15623W        W29037   5.506   3.582   0.806  0.4185 -0.1155  0.0659
15624W        W29038   9.987   7.332  11.851 -0.0385 -0.2069 -0.0583
15625W        W29039   5.438   1.503   2.644 -0.3618 -0.0982 -0.1246
15626W        W29040  16.392   7.349   0.620 -0.1280 -0.0389 -0.3198
15627W        W29041  13.070   2.374  10.548 -0.0562 -0.0438 -0.0148
15628W        W29042   1.664  13.662   2.027 -0.0164  0.0413  0.0355
15629W        W29043  16.045  17.214  16.179  0.2677 -0.2894  0.0026
15630W        W29044  18.154   9.329  13.220  0.0580 -0.3285  0.1117
15631W        W29045  10.330   4.782   3.586  0.0863 -0.2611 -0.0980
15632W        W29046   8.717   5.518   2.686 -0.1083  0.1033  0.0339
15633W        W29047   4.587   2.797   4.015 -0.1257 -0.1445 -0.1553
15634W        W29048   2.585  10.521  10.532 -0.0710 -0.1132 -0.1658
15635W        W29049  14.214   3.577  14.282 -0.2352 -0.0180  0.1126
15636W        W29050  14.219  12.122   3.195  0.0618  0.1979 -0.1841
15637W        W29051   7.896   3.830   4.173 -0.0870 -0.0248  0.2310
15638W        W29052  18.143  10.235   1.265 -0.2735  0.1095  0.0343
15639W        W29053  14.178   3.511  13.286  0.2916  0.1335  0.0240
15640W        W29054  11.495  14.600  11.838  0.0228 -0.1200 -0.1447
15641W        W29055   3.340   3.698   0.347  0.0432  0.0181 -0.2322
15642W        W29056   1.897  16.751   2.271  0.2194 -0.3124 -0.1396
15643W        W29057   7.643   3.796  12.511  0.1086 -0.0880  0.0843
15644W        W29058   1.134   6.890  13.064 -0.0803 -0.2496  0.0615
15645W        W29059  17.996  17.041   4.379 -0.1276  0.0940 -0.2896
15646W        W29060   6.104   8.931  13.986 -0.0667  0.0862  0.2757
15647W        W29061   4.845   2.276   2.642  0.1294  0.0454  0.1277
15648W        W29062   1.033   8.011  14.724 -0.3116  0.0330  0.3754
15649W        W29063  17.228   0.970  15.573  0.2920  0.0426 -0.0194
15650W        W29064  13.068   5.570   2.590  0.1227 -0.2474  0.0494
15651W        W29065   8.133  18.056   9.676 -0.0969  0.0318  0.2773
15652W        W29066   3.580   7.132  11.869  0.3883 -0.1348 -0.2629
15653W        W29067   5.659  18.024  13.937  0.0771  0.1046 -0.1885
15654W        W29068   9.669   6.988  11.579 -0.2406  0.3003 -0.1875
15655W        W29069   3.804  16.492  13.702 -0.3595 -0.0344 -0.0529
15656W        W29070   1.241   9.385   2.235 -0.0732  0.4131  0.0388
15657W        W29071   5.517   2.387  13.947 -0.0866 -0.1839  0.0277
15658W        W29072  13.763  10.030   3.052 -0.2516 -0.0693  0.1064
15659W        W29073  11.752   8.510   1.369  0.2872  0.1636  0.1923
15660W        W29074  10.813  17.890   0.209 -0.1958  0.0171  0.2151
15661W        W29075  15.729  14.011   5.954  0.1624 -0.1399  0.0417
15662W        W29076  10.781   0.781   9.520 -0.2081  0.2945  0.1622
15663W        W29077   0.070  14.385   0.336 -0.2001  0.0695  0.3129
15664W        W29078   1.744   8.105   2.501  0.1138 -0.0582  0.2686
15665W        W29079   0.048   2.199   0.429  0.3647  0.1067 -0.0783
15666W        W29080   1.193  14.119   4.888 -0.1412 -0.1259  0.0503
15667W        W29081  13.859   6.834   4.454  0.0008 -0.0899 -0.3303
15668W        W29082  15.717  10.120   3.682  0.0348 -0.2878  0.2247
15669W        W29083   2.191  10.689   5.637 -0.3122  0.1083  0.4905
15670W        W29084  18.218   7.704   1.192  0.0832  0.0462 -0.0624
15671W        W29085  11.877   2.667   0.989  0.0310  0.0127  0.0761
15672W        W29086  17.433   8.205   0.680 -0.1888 -0.0708 -0.0594
15673W        W29087  12.042   0.481  15.762 -0.1765  0.2759  0.0845
15674W        W29088   8.829  10.508  12.390  0.4659  0.0345 -0.0237
15675W        W29089   8.440   9.605  12.653  0.1655  0.1441  0.0238
15676W        W29090   9.140   0.807  15.878 -0.1347 -0.1304  0.0968
15677W        W29091  11.270  10.860  14.259 -0.0592  0.1066 -0.1521
15678W        W29092   6.212  17.643   3.735  0.0319  0.1105  0.0015
15679W        W29093   5.776   3.774   3.947 -0.2760  0.0709 -0.4043
15680W        W29094  14.361  10.526  15.282 -0.1377  0.1282 -0.0829
15681W        W29095  10.190  11.207  13.872 -0.0113  0.0920  0.0303
15682W        W29096  16.968  16.017   1.734  0.1174  0.2245  0.1357
15683W        W29097   2.960  11.213   4.456 -0.0298  0.1394 -0.1913
15684W        W29098  15.024  11.224   0.638 -0.3281 -0.1556 -0.0436
15685W        W29099   3.940  16.751  14.225 -0.2735 -0.0255 -0.1211
15686W        W29100  12.955   8.092   2.392  0.1125  0.2150  0.0023
15687W        W29101   0.911  10.538   2.980 -0.3910  0.3450  0.0212
15688W        W29102  16.577   6.257  11.927  0.2452 -0.1368 -0.0214
15689W        W29103   0.799  14.178  10.317 -0.1626  0.1948  0.0988
15690W        W29104   7.260   5.339   0.842 -0.0871 -0.0341  0.0158
15691W        W29105  18.062   8.905   3.755  0.1235 -0.0968 -0.0754
15692W        W29106   4.315  12.180  15.097 -0.1065 -0.3591  0.1237
15693W        W29107  15.622  16.899   2.874  0.2215 -0.1674  0.0198
15694W        W29108   6.447  15.133   5.398  0.2984  0.0247 -0.0369
15695W        W29109  13.729   3.324  13.515  0.1685 -0.1656  0.0979
15696W        W29110   8.283  16.766   4.423 -0.3322  0.1432  0.0613
15697W        W29111   5.742  14.631   9.594 -0.2164 -0.1678 -0.1101
15698W        W29112   1.647  17.283   5.044  0.2666 -0.1025  0.4435
15699W        W29113   9.136  15.090  13.149 -0.0300 -0.0855 -0.1452
15700W        W29114   0.719   7.256   3.382  0.0029  0.1923 -0.5496
15701W        W29115   9.495  15.918  10.438  0.1498 -0.1174  0.0257
15702W        W29116   9.305   8.569   0.841 -0.2490 -0.0482 -0.2749
15703W        W29117  11.295  18.424  12.630  0.0634 -0.0243 -0.3500
15704W        W29118  14.769  11.237   5.389  0.0538  0.1682  0.1108
15705W        W29119  13.872  13.682  12.830 -0.2112 -0.1340  0.1120
15706W        W29120  14.932  13.250  10.094 -0.3204  0.2921  0.1093
15707W        W29121  15.604   4.110   2.621  0.1472 -0.1839  0.0585
15708W        W29122   7.886  10.078   3.913 -0.1033  0.1578  0.2390
15709W        W29123   4.552   7.231  11.580 -0.2059 -0.1613  0.1932
15710W        W29124  12.216  13.881  10.044  0.0372  0.0362  0.0488
15711W        W29125  13.000   6.578  15.208  0.4367 -0.0934  0.2305
15712W        W29126  13.506   4.753   1.169 -0.0510  0.0569 -0.0321
15713W        W29127  16.212  11.361   0.255 -0.2619 -0.0681 -0.1708
15714W        W29128   6.919  14.662  14.142 -0.1267  0.0205  0.2279
15715W        W29129   3.645  18.412  14.701  0.0977  0.0175  0.2695
15716W        W29130  12.827  14.681   2.233 -0.0792  0.1342 -0.2657
15717W        W29131  15.227   9.759  12.912 -0.0421  0.3683  0.3217
15718W        W29132  16.356  16.752  16.145  0.0144 -0.0718  0.1600
15719W        W29133  18.274  13.737   2.366 -0.1195  0.0455  0.1349
15720W        W29134  12.330   3.354   4.690  0.0523  0.0073  0.1592
15721W        W29135   6.874   2.096  15.055  0.0001 -0.1706 -0.1405
15722W        W29136  13.586  11.658   1.121 -0.0568 -0.0969  0.1741
15723W        W29137   6.847  12.442   1.017  0.0055  0.3776  0.1131
15724W        W29138   6.739  10.147   0.779 -0.1928  0.0815 -0.0111
15725W        W29139  18.401   9.527  13.956  0.1418  0.2265  0.1092
15726W        W29140   9.159  11.142  10.475  0.0702 -0.0169 -0.0802
15727W        W29141   2.701   0.011  14.312  0.1371 -0.1516 -0.1587
15728W        W29142   0.247   4.811  11.263 -0.1994 -0.1981 -0.0811
15729W        W29143  11.132   1.468   5.418 -0.0338 -0.3151 -0.3093
15730W        W29144   5.095  14.344  13.134  0.1240  0.0930  0.0198
15731W        W29145   9.779  16.098  11.372  0.3858  0.1505  0.1236
15732W        W29146   0.822   9.838  14.765 -0.2752 -0.0882  0.2518
15733W        W29147  10.133   0.935   4.960 -0.0799  0.0486 -0.2948
15734W        W29148   4.533   3.469  12.179 -0.3670 -0.0055  0.0397
15735W        W29149   4.639   4.818  10.527 -0.0775  0.3543  0.0120
15736W        W29150  12.247   7.503   4.125  0.0982 -0.1349  0.0045
15737W        W29151   0.347  10.850  13.849 -0.1118 -0.2370  0.0890
15738W        W29152  10.812   0.034  12.347 -0.0161  0.0701  0.2139
15739W        W29153   7.623  12.009  12.456 -0.1545  0.1236  0.0452
15740W        W29154  17.566  14.973   5.488 -0.2120  0.0487  0.1144
15741W        W29155  18.315  14.559   5.039  0.0893 -0.1002  0.0201
15742W        W29156   8.125  10.263  12.450  0.1576 -0.0259 -0.0636
15743W        W29157  15.179  14.687  14.996  0.2531  0.1575 -0.0992
15744W        W29158   6.748  14.431  13.749 -0.2304  0.0128  0.2388
15745W        W29159  16.565   8.562  14.368 -0.0849  0.1112  0.1013
15746W        W29160  17.036  17.697  11.436  0.6261 -0.2341  0.2739
15747W        W29161   0.238   3.283   3.231  0.2270 -0.2283 -0.1725
15748W        W29162   1.383   4.305  14.233  0.1185  0.0280 -0.0475
15749W        W29163   4.414   0.383   3.476  0.0888  0.1136 -0.1308
15750W        W29164  17.740   6.466   3.876  0.0481  0.0415 -0.3787
15751W        W29165  15.102  11.718  11.167  0.3446  0.1802  0.1428
15752W        W29166  14.489  18.236  11.157  0.2664 -0.1764  0.0241
15753W        W29167   7.021  17.824   4.297  0.0807  0.2013  0.2564
15754W        W29168  17.338   5.131  15.030  0.3684  0.2717 -0.0632
15755W        W29169   1.768   4.176   2.436 -0.1559  0.2420 -0.1131
15756W        W29170   0.515  10.751  15.872  0.1028 -0.0168 -0.1858
15757W        W29171   2.844   8.935  10.894 -0.2324  0.1578  0.0167
15758W        W29172   9.022   5.198  11.861 -0.1463 -0.0465  0.5609
15759W        W29173  14.321  12.161  11.810 -0.1894 -0.0989  0.1028
15760W        W29174  17.701   7.152   1.894 -0.0601 -0.0958  0.0888
15761W        W29175  14.279   0.149  12.567 -0.1050 -0.2363  0.2512
15762W        W29176   9.122   4.152  15.955 -0.0773 -0.0571  0.2468
15763W        W29177  12.170   7.949  11.567 -0.0365 -0.2019  0.0256
15764W        W29178   3.400  11.134   2.515  0.1033  0.3327  0.0221
15765W        W29179  17.096   2.529  14.948  0.2430 -0.1137 -0.2260
15766W        W29180  16.242   2.483   0.616 -0.1294  0.0739  0.7243
15767W        W29181  17.950  12.505  15.831 -0.0301 -0.3521  0.0315
15768W        W29182   2.811  10.086   6.272  0.3363 -0.2753 -0.0297
15769W        W29183   2.855  13.162   0.551  0.2528  0.0003  0.1815
15770W        W29184   8.375   0.531  15.173  0.1243  0.0518 -0.0261
15771W        W29185  15.214   1.010  14.384 -0.0737  0.0225  0.1956
15772W        W29186  15.658  16.333   5.865 -0.1394 -0.3519  0.0697
15773W        W29187  16.189   2.022   4.656 -0.0377 -0.0952 -0.2631
15774W        W29188  13.550   5.039  15.828 -0.0393  0.2923 -0.0258
15775W        W29189   2.171  13.565  10.903  0.1834 -0.2344 -0.2053
15776W        W29190   6.536   0.177   5.090 -0.1348 -0.0304  0.0059
15777W        W29191   7.085  16.498  12.418 -0.1770 -0.3531 -0.1868
15778W        W29192   1.019   5.840   6.214  0.1987  0.0332  0.0910
15779W        W29193   0.617   2.999   0.181 -0.2378  0.1515  0.0166
15780W        W29194   3.541   2.755  12.243 -0.1203  0.3141  0.3634
15781W        W29195   3.214   6.102   2.312 -0.3756  0.1530  0.1022
15782W        W29196   1.277   0.868  11.929  0.0333  0.0627 -0.2681
15783W        W29197   4.594  13.406  14.517 -0.1143  0.0512 -0.0625
15784W        W29198  13.886   4.868   4.896 -0.0006  0.0059  0.1948
15785W        W29199   3.323   1.828  13.783 -0.1443 -0.1509 -0.0775
15786W        W29200   1.854   0.081   5.641 -0.0541  0.1061  0.0617
15787W        W29201  18.088  15.402  16.156  0.2388 -0.2120  0.2748
15788W        W29202  11.850   2.305   0.652  0.1641 -0.1035  0.0904
15789W        W29203   7.316  14.347  14.195 -0.3929  0.1185 -0.4171
15790W        W29204  16.729   3.060   4.617 -0.0615  0.1023  0.0702
15791W        W29205   5.498   0.894  11.839  0.3488 -0.1938  0.0913
15792W        W29206   4.656  16.149  10.431  0.2309  0.1136  0.0933
15793W        W29207   5.551   9.200   0.962 -0.1074 -0.0548  0.0689
15794W        W29208   2.960   5.331   1.583  0.0262  0.1564 -0.1303
15795W        W29209  17.614  16.421   3.607 -0.1535 -0.1202 -0.1563
15796W        W29210   9.945   8.367  14.697 -0.0439  0.0761 -0.1654
15797W        W29211   6.408  17.609   2.677 -0.0806  0.0544  0.1804
15798W        W29212   6.057   1.431   1.775  0.1042  0.1563  0.2252
15799W        W29213  16.696   4.801   4.971 -0.1772  0.0986 -0.2771
15800W        W29214   1.513  15.242  15.139 -0.1156  0.0889 -0.0666
15801W        W29215   4.399  15.177  10.281 -0.1534  0.2526 -0.2277
15802W        W29216   5.984   9.720  15.792  0.2111 -0.1643 -0.0692
15803W        W29217  10.328  17.418   2.230 -0.0680 -0.1363  0.0029
15804W        W29218   9.942  13.462  14.540  0.3749 -0.0185  0.1103
15805W        W29219  17.893  14.171  14.001  0.2597  0.0091  0.0280
15806W        W29220   3.940   6.117  15.307 -0.1398 -0.2350 -0.1605
15807W        W29221   0.551   0.393   0.694  0.1425 -0.0529 -0.0916
15808W        W29222   4.738  17.091  12.082 -0.0175  0.1608  0.1010
15809W        W29223   4.738   9.699   3.812 -0.3252 -0.1930  0.2838
15810W        W29224  16.618   3.738   2.299 -0.1195 -0.2092  0.2180
15811W        W29225   0.831   4.950   3.718 -0.3140 -0.4492 -0.1405
15812W        W29226  13.696   9.297  12.158  0.0998  0.1626  0.3032
15813W        W29227  16.135   6.539  13.245  0.0869 -0.0189  0.0107
15814W        W29228   6.321  15.449  14.768 -0.1309  0.4231 -0.0698
15815W        W29229  17.371   9.987   2.265  0.0531  0.0417 -0.1219
15816W        W29230  10.887   5.928   1.857  0.1771  0.2385  0.0631
15817W        W29231   9.936   6.991  15.356 -0.0284  0.1805  0.3885
15818W        W29232  14.005  16.716  12.653 -0.2389 -0.1864  0.3387
15819W        W29233  12.150   3.687  11.477 -0.1463 -0.2152 -0.0416
15820W        W29234   8.329   7.650  13.443  0.2310 -0.0919 -0.0166
15821W        W29235  18.117   0.256   4.548  0.2550  0.0642 -0.0035
15822W        W29236   4.591   9.650  14.551  0.4428 -0.0769  0.0011
15823W        W29237  12.459   7.327   1.690 -0.2594 -0.1201  0.4132
15824W        W29238  17.484   6.744   3.538 -0.0260 -0.1405  0.1056
15825W        W29239  15.082   0.474   0.910  0.0508 -0.1126 -0.2480
15826W        W29240  16.790  17.590  11.844 -0.0918  0.1654  0.0773
15827W        W29241   8.290  14.190  15.647  0.0139  0.3767 -0.0394
15828W        W29242   9.811  11.168  10.197 -0.1975 -0.2149  0.1103
15829W        W29243  12.678  10.072  11.378  0.0852  0.1482  0.2341
15830W        W29244  18.231  11.681   6.136 -0.0962  0.1194  0.0908
15831W        W29245   6.549  10.558   3.866 -0.1277 -0.1019 -0.3380
15832W        W29246  12.748  18.391   4.748  0.0305  0.0049  0.0345
15833W        W29247   8.759   0.675  11.594  0.0109  0.2187 -0.0036
15834W        W29248  16.404   8.753   5.872 -0.0912  0.3847  0.1241
15835W        W29249  10.282   2.643  12.288  0.2326 -0.0558 -0.1372
15836W        W29250   4.948   6.853  11.451 -0.3621  0.3878  0.1333
15837W        W29251  15.849   9.639  12.140  0.1709 -0.0361  0.3534
15838W        W29252   7.096  13.278  14.857 -0.0830 -0.1376 -0.4489
15839W        W29253  17.142   7.273   4.006 -0.1655 -0.2227 -0.1926
15840W        W29254  14.829  17.541  13.990 -0.0044 -0.1098 -0.3217
15841W        W29255  15.128  12.465   4.770 -0.1297 -0.1785  0.2266
15842W        W29256   4.393   6.818   3.459  0.1598 -0.2823 -0.0766
15843W        W29257   2.576  16.739  13.133  0.4196 -0.3055  0.2480
15844W        W29258  10.212  16.948   5.694  0.1536 -0.0039  0.1108
15845W        W29259   8.348   1.559  11.917  0.4909 -0.1281 -0.0469
15846W        W29260   2.608  17.158  15.708  0.2673 -0.1170  0.1994
15847W        W29261   2.263   7.356  12.335 -0.0600  0.0615  0.1553
15848W        W29262   0.749   4.670  14.793  0.2172 -0.0049 -0.1260
15849W        W29263   5.452   8.278   5.024 -0.3065 -0.1282 -0.1731
15850W        W29264  17.832   5.862  13.116 -0.0426 -0.2992 -0.1380
15851W        W29265   0.034   1.061   6.595  0.0864 -0.2362  0.0432
15852W        W29266   8.408  15.039  13.791  0.1729 -0.1869 -0.2191
15853W        W29267  17.219  17.092   0.824 -0.0753  0.2209  0.1027
15854W        W29268  12.622  16.501  14.185  0.1051 -0.1502  0.1102
15855W        W29269   9.090   7.875   2.502  0.0702  0.0673  0.0058
15856W        W29270   6.009   6.491   0.591  0.0529 -0.0841 -0.1124
15857W        W29271  13.514  11.052   4.607  0.0084 -0.0192  0.0373
15858W        W29272   9.879  12.854  11.116  0.3388  0.2433 -0.2908
15859W        W29273   4.324   6.741   4.033 -0.1243 -0.3330  0.2748
15860W        W29274   5.340   9.202  14.907  0.2540 -0.1519 -0.0572
15861W        W29275  11.560   9.103  15.195  0.1213 -0.0585  0.1208
15862W        W29276  12.887  15.470   2.514 -0.1579  0.0272 -0.2645
15863W        W29277   4.389  10.283   3.569 -0.3966  0.4799  0.2142
15864W        W29278  15.744  14.547  12.527  0.5032 -0.1227 -0.2776
15865W        W29279   7.120  18.320   0.455  0.0654 -0.2065 -0.1556
15866W        W29280   2.847   8.472  11.000  0.0056 -0.0398 -0.1417
15867W        W29281   9.058  12.175   0.225 -0.1837 -0.0139 -0.1013
15868W        W29282   7.178  12.631  14.061 -0.0473 -0.2216  0.2708
15869W        W29283   5.804  13.878   2.086 -0.1679  0.0192 -0.1104
15870W        W29284  17.848   3.851   4.245 -0.1215  0.0286 -0.1828
15871W        W29285   6.992   0.044  11.757 -0.0778 -0.0667 -0.1800
15872W        W29286   8.633   1.747  14.650 -0.1818 -0.1760  0.2038
15873W        W29287  15.768  12.019  12.312 -0.1330  0.1293  0.3137
15874W        W29288  10.571   9.748  15.555 -0.6214 -0.0492  0.0356
15875W        W29289  11.684   0.215  15.488 -0.1829 -0.2650 -0.2376
15876W        W29290   0.742  15.093   3.843 -0.2938 -0.0093 -0.0345
15877W        W29291  10.845  15.580  14.955  0.2129 -0.1048 -0.1641
15878W        W29292  12.120   6.690  15.838 -0.2486 -0.0895  0.0103
15879W        W29293  10.404  13.597   1.855 -0.0574  0.1419 -0.1199
15880W        W29294   7.411  12.397  15.216  0.3393 -0.1370  0.2043
15881W        W29295   2.443   9.855  10.680 -0.2647 -0.1340 -0.1118
15882W        W29296  11.932   8.058  14.823 -0.1670  0.1721  0.0420
15883W        W29297   6.869   7.358   2.760  0.0781  0.1516  0.0204
15884W        W29298   7.023   3.818   3.407 -0.0279  0.2396 -0.2271
15885W        W29299  14.903  11.164   4.929  0.0190 -0.0579  0.2739
15886W        W29300   3.258   0.014  12.006  0.0757  0.0364 -0.0127
15887W        W29301   2.581  15.349   4.227  0.0417  0.0217 -0.0603
15888W        W29302  15.290   6.031   1.375 -0.2875 -0.2532  0.0963
15889W        W29303   5.295  17.233  15.703  0.0787 -0.2882  0.0610
15890W        W29304   4.272   1.532  16.166  0.1205 -0.0187 -0.0663
15891W        W29305   2.274   6.260   2.385 -0.1510 -0.2194  0.2333
15892W        W29306  10.232  17.780  13.412 -0.2126  0.0583  0.1440
15893W        W29307  14.527  13.469   3.420  0.0634 -0.0565 -0.1789
15894W        W29308   4.324   3.086  13.937 -0.2262 -0.1453  0.0171
15895W        W29309  15.336   9.490   5.167  0.2709 -0.2382 -0.3365
15896W        W29310  15.102  11.634  16.059 -0.2094 -0.3286  0.2944
15897W        W29311  18.134  16.669  14.979  0.4764 -0.0042  0.2371
15898W        W29312   3.722   5.305  12.269 -0.0853  0.0322 -0.3676
15899W        W29313  17.657   5.919   2.415  0.1060  0.2393 -0.5753
15900W        W29314   6.877  16.430  10.785 -0.0178  0.0791 -0.1495
15901W        W29315   2.009  10.433   0.428  0.2259 -0.0499 -0.0169
15902W        W29316  16.000   1.002  15.304 -0.2871  0.0855  0.2566
15903W        W29317  14.098  16.016  15.327 -0.0162 -0.1071 -0.1088
15904W        W29318  15.846  11.506  16.161 -0.0006  0.1615  0.0855
15905W        W29319  14.971  13.774  12.887  0.0991  0.4361  0.3083
15906W        W29320  12.057   2.086  12.468 -0.2094  0.0349 -0.2226
15907W        W29321   7.737   7.670  15.537  0.4108  0.0130 -0.0476
15908W        W29322  17.514  18.110  12.909 -0.0250 -0.4947 -0.1200
15909W        W29323   5.728   8.323  14.774 -0.0988  0.1334  0.1220
15910W        W29324   1.239   7.096   5.969 -0.0889  0.3006 -0.2461
15911W        W29325   9.947  13.557   1.146  0.1182 -0.0354 -0.0113
15912W        W29326  12.820  12.085  15.175  0.0813  0.1150 -0.1443
15913W        W29327   6.935  15.083   1.318 -0.1259 -0.1322  0.1903
15914W        W29328   2.642  11.710  11.525  0.2013  0.0609 -0.1412
15915W        W29329   4.477   6.783  15.531 -0.0514 -0.1420 -0.1012
15916W        W29330  13.582   5.487   4.976  0.0309 -0.2947  0.0712
15917W        W29331   7.842  16.667  13.783 -0.1988  0.0523  0.0728
15918W        W29332  18.172   1.070   0.638  0.3273 -0.2293  0.4386
15919W        W29333   0.270  12.156   0.700  0.1001  0.2634  0.1774
15920W        W29334   4.287   8.311  10.121 -0.2107 -0.0036 -0.4229
15921W        W29335   4.479   0.612  13.377  0.1571  0.0626 -0.2416
15922W        W29336   2.588   2.449  10.833  0.0472 -0.2116 -0.0200
15923W        W29337  13.198   5.810  14.820  0.1114 -0.1529  0.0874
15924W        W29338   6.719   0.694  13.123  0.0598  0.0146 -0.0761
15925W        W29339  13.433   3.175  16.263 -0.1471  0.0367  0.0096
15926W        W29340   1.519  17.286  15.696 -0.2603  0.0326  0.1921
15927W        W29341  16.062  10.705   0.324  0.2127  0.1290  0.2657
15928W        W29342  10.083   9.905  10.890  0.0472 -0.3323 -0.2534
15929W        W29343  13.651   5.772   0.741 -0.0259 -0.0492  0.0624
15930W        W29344   5.852   1.952  11.056 -0.2153 -0.0880 -0.1241
15931W        W29345   4.161  15.354  15.422 -0.3687  0.0057 -0.1854
15932W        W29346   2.771   3.754   0.474 -0.2515  0.2493 -0.0641
15933W        W29347  18.234   1.123  11.350  0.0791  0.1351  0.4741
15934W        W29348   0.071   5.528   4.068 -0.1328  0.3258  0.1150
15935W        W29349   0.384   7.782   5.181 -0.0605 -0.2078 -0.4696
15936W        W29350   5.755  16.886   1.117 -0.2353 -0.0812  0.0453
15937W        W29351   9.812   6.238   4.294 -0.1327 -0.1384 -0.2013
15938W        W29352   5.321  14.837  10.921 -0.2055 -0.2848 -0.0123
15939W        W29353   4.576  10.061  13.716  0.0026 -0.0483  0.2664
15940W        W29354   9.923  13.920  13.198 -0.1406 -0.1079  0.2212
15941W        W29355   0.534  17.381   6.546  0.1870 -0.5435  0.0463
15942W        W29356  11.162   7.117  11.518 -0.2719  0.2790 -0.1077
15943W        W29357   9.305   4.721  13.334 -0.1186 -0.1382 -0.1351
15944W        W29358   3.691   9.705   1.530  0.0017 -0.2258 -0.0482
15945W        W29359   9.781   0.833   3.546 -0.2278 -0.0937  0.1657
15946W        W29360  18.031   8.863  13.288  0.0723 -0.1724 -0.2885
15947W        W29361   3.635  17.987  14.342 -0.1408  0.2648  0.1116
15948W        W29362  15.680   1.352  11.876  0.0343  0.4371  0.0579
15949W        W29363  14.625  11.237   1.006 -0.0993 -0.3454  0.2483
15950W        W29364   1.862   8.089  12.716  0.0061  0.2945 -0.4102
15951W        W29365  15.835  14.487   3.232 -0.2813 -0.1997 -0.0805
15952W        W29366  14.265  12.186   6.314  0.0059 -0.3122 -0.0526
15953W        W29367   4.750   5.411   5.564 -0.0990  0.2781 -0.1674
15954W        W29368  10.618   1.691  13.990 -0.1844  0.1851  0.1670
15955W        W29369  15.176  12.048  11.850 -0.2240  0.1839 -0.2100
15956W        W29370   1.095   5.473  12.853  0.1511 -0.0169  0.0887
15957W        W29371   5.922   5.447  13.628 -0.0744  0.0136 -0.0848
15958W        W29372   9.110  17.835  12.402  0.0787 -0.0958 -0.1550
15959W        W29373  18.442  14.994  10.589  0.0532 -0.0759 -0.0979
15960W        W29374  13.998   3.179  14.637 -0.0802  0.1739 -0.1714
15961W        W29375  12.866  13.607   0.435  0.3651 -0.2656 -0.0769
15962W        W29376  17.976  16.106  14.900 -0.1618 -0.3607  0.3021
15963W        W29377  10.365  15.608  11.920  0.1319 -0.1373 -0.1414
15964W        W29378   5.760   0.503   4.748 -0.0527  0.1924 -0.0394
15965W        W29379   2.357   8.795  12.785  0.0613  0.1690 -0.0670
15966W        W29380  16.408  10.592  11.544  0.1408 -0.2449  0.0433
15967W        W29381  15.183  18.436  14.736  0.1493 -0.0316  0.2223
15968W        W29382   6.038  10.414   3.774  0.0470 -0.1272  0.0520
15969W        W29383   4.470  10.430   0.531 -0.0339 -0.1096  0.0072
15970W        W29384   5.370   0.281   4.075  0.0367 -0.0014 -0.4021
15971W        W29385  11.199   8.231   4.590 -0.1928 -0.0594 -0.1247
15972W        W29386  17.323   1.548  13.965 -0.0894  0.1091 -0.1268
15973W        W29387  17.425   5.979   3.859 -0.3593 -0.1295  0.1331
15974W        W29388   7.062  10.292   0.420 -0.1291 -0.1840  0.0432
15975W        W29389   2.525   3.715  14.174 -0.0000  0.1282 -0.0185
15976W        W29390  18.203  12.077   0.954  0.2725 -0.0247 -0.1625
15977W        W29391  12.796  14.103  11.324 -0.0656  0.2686  0.2940
15978W        W29392  12.394  16.691   2.667 -0.0777 -0.0218  0.0752
15979W        W29393  14.588  16.571   2.836  0.0814 -0.2568  0.1309
15980W        W29394  17.827  12.169   0.572 -0.0883 -0.2233 -0.1764
15981W        W29395  15.379  14.583  13.566 -0.0861 -0.0122 -0.1982
15982W        W29396   7.964  16.546  10.687  0.0832  0.2996  0.0388
15983W        W29397   8.893   1.175  15.567  0.1150  0.0971 -0.1579
15984W        W29398   9.258   2.283   4.904 -0.1510 -0.3325  0.0579
15985W        W29399  15.060  11.097   3.380 -0.0436  0.0881  0.2300
15986W        W29400   5.001   1.993   1.696 -0.0782  0.0672  0.5119
15987W        W29401   1.567   7.062   0.979  0.0740  0.1688 -0.2258
15988W        W29402   7.753  18.417   4.317  0.0746 -0.0139  0.2775
15989W        W29403   6.425   8.986  14.434 -0.0037 -0.0363  0.0299
15990W        W29404  13.412  14.774   0.064  0.0029  0.1181  0.1249
15991W        W29405  11.422   2.673  12.590 -0.0672 -0.1044 -0.2257
15992W        W29406   5.556   9.340   4.727 -0.1461 -0.0351  0.1031
15993W        W29407   4.192   7.214  14.709 -0.0329 -0.0668  0.0625
15994W        W29408   5.166   9.143  13.966 -0.2190 -0.0308 -0.0233
15995W        W29409   7.335  10.358   4.990 -0.0939  0.2577 -0.2762
15996W        W29410   8.497   0.154  12.469  0.0218  0.3559 -0.1354
15997W        W29411   7.922  12.202   4.605 -0.2397 -0.0940  0.3708
15998W        W29412  11.678  16.153  13.284  0.1960 -0.4541 -0.0348
15999W        W29413   0.108  15.677   2.850  0.3997  0.1471 -0.1882
16000W        W29414  11.933  15.004   1.979  0.1869 -0.1317 -0.3159
16001W        W29415  16.553  16.538   0.871  0.0751 -0.0774  0.1401
16002W        W29416   7.854   2.669   2.672 -0.1509  0.1294  0.0584
16003W        W29417   2.441   1.647   1.998 -0.0974  0.1571 -0.4209
16004W        W29418  17.709   8.733  13.686 -0.0080 -0.1732 -0.1262
16005W        W29419  14.361   4.851   4.695  0.2403 -0.0357  0.0519
16006W        W29420  17.663  17.500  14.519  0.1572 -0.3033  0.4182
16007W        W29421   0.578  10.879   1.159  0.0675 -0.1178  0.0257
16008W        W29422   8.984   3.636  13.216 -0.0581  0.2196  0.0050
16009W        W29423   2.795  12.020  15.232 -0.1197  0.1411 -0.1972
16010W        W29424  12.638   8.993   1.604 -0.1878  0.0073  0.5980
16011W        W29425   9.500   0.249  13.485  0.3224  0.1648 -0.0863
16012W        W29426   4.626  12.872   3.107  0.0923  0.1669  0.1405
16013W        W29427   8.507   1.228  10.610 -0.3133  0.0862  0.1406
16014W        W29428   7.235   3.718   0.360 -0.1352  0.0457 -0.0409
16015W        W29429  15.865  12.027  11.698  0.2267 -0.0100 -0.2153
16016W        W29430   0.924   0.658  13.603  0.1645 -0.1025  0.0613
16017W        W29431  10.284   4.256   0.442  0.0797 -0.0188 -0.1919
16018W        W29432  10.700  12.051  13.751 -0.2384 -0.4990 -0.3266
16019W        W29433  11.649   3.280   3.576 -0.2471 -0.2857 -0.0910
16020W        W29434   9.566  15.594   1.656  0.1857 -0.2922 -0.1425
16021W        W29435   2.745  13.077  10.347 -0.1937  0.2838  0.0067
16022W        W29436  16.121  10.372  13.447  0.0121 -0.0880  0.1484
16023W        W29437   1.259  15.139  15.581  0.2597 -0.1872 -0.0641
16024W        W29438   8.806   6.756   4.112  0.0346  0.0603  0.2659
16025W        W29439  13.806  15.616   1.517  0.1304 -0.2248  0.1617
16026W        W29440  16.282   8.066   6.728  0.3675 -0.1064  0.1858
16027W        W29441  11.316   3.308   4.536  0.1486  0.0527  0.2243
16028W        W29442  18.098  10.771   4.708  0.1498 -0.0678  0.2089
16029W        W29443  10.273   6.596   0.866 -0.0745 -0.2206  0.0707
16030W        W29444  10.044  10.374   3.274  0.1031  0.0040 -0.0415
16031W        W29445  17.403   1.544   5.781 -0.0746  0.1870 -0.0643
16032W        W29446  10.297   6.028   4.259 -0.2475 -0.2661  0.1725
16033W        W29447   5.412   3.130   3.515  0.2269  0.3304 -0.3128
16034W        W29448  10.129   9.976  10.222 -0.0287  0.0325  0.1580
16035W        W29449  10.370  15.505   1.428 -0.0701  0.3983 -0.2654
16036W        W29450  16.920  11.070  12.974 -0.2327 -0.3317  0.3098
16037W        W29451  12.022  11.226   3.184 -0.0985 -0.2351 -0.1201
16038W        W29452   0.119   6.229  12.474  0.0286 -0.0783 -0.1933
16039W        W29453   3.424  12.511  10.851 -0.3053 -0.1549  0.1842
16040W        W29454  18.319   5.761  12.294  0.1304  0.3560 -0.0013
16041W        W29455  16.159  15.927   2.913  0.1130  0.3465  0.2890
16042W        W29456   5.179  11.870   1.847 -0.0632 -0.0379  0.2264
16043W        W29457  10.547   4.467   0.010  0.0027  0.2732  0.1806
16044W        W29458   4.332  16.934  13.599 -0.2079 -0.0591  0.1723
16045W        W29459  10.973  17.816   1.122 -0.0065  0.3094 -0.1891
16046W        W29460  11.266  17.461  12.699  0.2978  0.0121  0.0128
16047W        W29461   7.116  13.240   5.013  0.0684 -0.1657  0.1421
16048W        W29462  16.965   0.166   3.704 -0.2302 -0.0216 -0.4330
16049W        W29463   0.083   9.654  13.310  0.1648  0.0489  0.1723
16050W        W29464  11.893  12.262   3.202  0.2497 -0.0432 -0.0919
16051W        W29465  14.083  14.087   2.838 -0.1286 -0.0878 -0.1881
16052W        W29466   0.335  17.314   4.702  0.2412  0.3558  0.1311
16053W        W29467  16.637  18.420   3.384  0.1761  0.0597 -0.0868
16054W        W29468   5.447   4.601   5.116  0.2093 -0.1921  0.0929
16055W        W29469  12.619  14.252   5.894  0.3254 -0.1320 -0.0459
16056W        W29470   4.631  11.144   3.743  0.1760 -0.1001 -0.0746
16057W        W29471   7.581  17.064   2.985 -0.0664  0.0812  0.1630
16058W        W29472  17.075  16.452  14.420  0.2146  0.1601  0.2308
16059W        W29473   8.697   3.650   1.314 -0.0771 -0.0654  0.1041
16060W        W29474   2.231  15.195  15.607  0.1351 -0.2556  0.1530
16061W        W29475  13.508   4.399  14.367 -0.0008 -0.2808 -0.1662
16062W        W29476   7.206  18.054   2.913 -0.2977 -0.1080  0.0744
16063W        W29477  17.726   3.772   3.330 -0.3135 -0.0260  0.3613
16064W        W29478   9.394   4.047   2.345  0.3358 -0.1795 -0.2222
16065W        W29479   0.073   7.905  14.203 -0.0809 -0.0510  0.3786
16066W        W29480   7.632   0.354  12.725  0.1711  0.2402  0.1259
16067W        W29481  17.003   3.809   6.641 -0.0378  0.1363  0.3256
16068W        W29482  15.830  15.890   1.607  0.2980 -0.0269 -0.0430
16069W        W29483  15.415   5.355   4.251 -0.0929 -0.1545  0.0275
16070W        W29484  10.283   9.391  14.638 -0.2833 -0.2149  0.3292
16071W        W29485   7.606   1.750   2.474 -0.0954  0.0373  0.0078
16072W        W29486   3.423  17.852  15.526  0.0824 -0.0051 -0.2436
16073W        W29487  16.100   4.205  15.360 -0.0923 -0.0024 -0.1654
16074W        W29488   6.198  14.733  11.336 -0.2095  0.2228  0.4540
16075W        W29489  11.475   0.836  13.184 -0.3295 -0.2240 -0.0189
16076W        W29490   8.941   2.980  14.163  0.1938 -0.0586  0.2279
16077W        W29491   2.704  12.790  10.788 -0.1544  0.0653  0.2195
16078W        W29492   2.347  17.758   5.822  0.0589  0.0709 -0.0488
16079W        W29493   1.009  17.247  15.535 -0.2775  0.0575  0.0244
16080W        W29494  16.647   7.705  11.223 -0.1614 -0.2804  0.2060
16081W        W29495   4.817   9.792  11.888  0.0705  0.0545 -0.1307
16082W        W29496   2.456   8.450   1.793 -0.0542 -0.2362 -0.0780
16083W        W29497   0.747  12.940   5.224  0.0070  0.2203 -0.0594
16084W        W29498  12.492  18.283  14.588 -0.3961 -0.0937 -0.2674
16085W        W29499   7.570   5.904   0.242  0.3546 -0.3557  0.0601
16086W        W29500   4.942  16.350   4.918 -0.0416 -0.2041 -0.2091
16087W        W29501   6.964   0.825  15.508 -0.2384 -0.2342 -0.1844
16088W        W29502  12.566   3.803  11.685  0.1515 -0.0257 -0.1236
16089W        W29503  11.125   7.548  14.720  0.2378 -0.2516 -0.2711
16090W        W29504   1.386  11.328  15.840  0.1573  0.0313  0.1916
16091W        W29505   7.560   7.942  14.624  0.3501  0.0498 -0.2055
16092W        W29506   1.487  15.680  13.678  0.0075  0.0502 -0.0395
16093W        W29507   3.678  16.478  15.154  0.1933  0.0249  0.2405
16094W        W29508   3.528  13.939  10.697 -0.1761 -0.0608 -0.1622
16095W        W29509  17.335  12.102  15.335  0.1010 -0.0619 -0.3180
16096W        W29510  11.642   0.059   0.052 -0.0133  0.0906 -0.0993
16097W        W29511   2.134  17.581   0.277  0.1781  0.0032  0.0310
16098W        W29512   5.598  15.420   2.337  0.2232  0.1703  0.2070
16099W        W29513  14.219  14.548  11.695 -0.0005 -0.0728  0.0869
16100W        W29514   8.612   7.079  13.633  0.2302 -0.0304  0.2473
16101W        W29515   8.873   3.853  14.458  0.0866 -0.0216 -0.0794
16102W        W29516   6.960   4.265  12.756  0.1807  0.0209  0.0278
16103W        W29517  10.140   6.830  11.694  0.0496 -0.1064  0.2850
16104W        W29518  17.596  17.979  15.601 -0.0463 -0.0430 -0.2019
16105W        W29519  16.954   5.015   5.969 -0.0585  0.0348 -0.0412
16106W        W29520   1.507   3.302  12.643  0.2070 -0.1915  0.2091
16107W        W29521  13.963  16.630  10.590  0.1571 -0.0071  0.0950
16108W        W29522  11.404   5.730   2.507  0.0546 -0.0442 -0.2088
16109W        W29523   7.847   0.208   2.690  0.0930  0.1251  0.0849
16110W        W29524   6.935   9.525  12.453  0.4873  0.0624  0.3174
16111W        W29525   0.077   6.166   2.569  0.1531 -0.1306 -0.0154
16112W        W29526  12.697   8.532   1.512  0.2505 -0.1492 -0.0812
16113W        W29527   1.205  10.345  10.912 -0.1629 -0.0696 -0.0283
16114W        W29528  17.330   4.970  11.799  0.2899 -0.2263  0.1125
16115W        W29529  17.432   9.153  13.617  0.0870 -0.0714  0.0709
16116W        W29530  15.986   5.487  13.622  0.0284  0.2242 -0.0307
16117W        W29531  10.587   0.973  14.748 -0.1446 -0.2046  0.0240
16118W        W29532  14.580   3.792  12.621 -0.0551  0.1278  0.0488
16119W        W29533  10.359  14.976  12.670  0.0633  0.0648  0.0119
16120W        W29534   8.272  11.132   5.079 -0.3549  0.2912  0.0824
16121W        W29535   8.761   9.585  15.236  0.0131 -0.0358  0.0074
16122W        W29536   9.055  13.041  12.372  0.1965  0.0449  0.0411
16123W        W29537  12.817  18.196   2.850 -0.0142 -0.1278  0.2979
16124W        W29538  17.818   9.775   3.103  0.1805  0.1147  0.1927
16125W        W29539  11.490  18.242  15.894  0.0704  0.2085 -0.0045
16126W        W29540   8.264  12.341   9.760  0.2299  0.1927 -0.2816
16127W        W29541   6.681   2.896  14.079 -0.1079  0.1056 -0.0298
16128W        W29542   4.847   7.239  12.961  0.0941 -0.4786 -0.1746
16129W        W29543   7.545  14.636   3.847  0.0876  0.0965  0.2932
16130W        W29544   8.623  17.795   3.562 -0.0202 -0.1828  0.0980
16131W        W29545  10.334   5.041  12.220  0.0050  0.3729 -0.0351
16132W        W29546  11.401   6.197  13.226  0.1549 -0.1780 -0.2430
16133W        W29547  11.762   4.181   2.030 -0.0119  0.1795  0.2246
16134W        W29548  11.716   7.349   0.576  0.0626 -0.1147  0.0682
16135W        W29549  10.362   3.060   2.167 -0.3555 -0.0075 -0.1776
16136W        W29550   5.324   6.535   2.154  0.2518 -0.0443  0.3661
16137W        W29551  16.286  13.067   2.021  0.1652  0.3590 -0.0813
16138W        W29552  12.268   3.093  10.683  0.0416  0.2653  0.0043
16139W        W29553   1.247   0.271   5.821 -0.0372 -0.2081  0.2779
16140W        W29554   9.781   9.129   2.352  0.0639  0.0406  0.1384
16141W        W29555  15.452   6.661  15.480 -0.1396 -0.0850  0.1530
16142W        W29556   6.301  17.700  14.126  0.1453  0.0520  0.0592
16143W        W29557  16.873  16.009  15.703 -0.2139  0.1506 -0.1590
16144W        W29558   9.479  15.897  10.958  0.2037  0.0810 -0.0349
16145W        W29559   1.897   6.960  14.983  0.0203  0.0866  0.1678
16146W        W29560   7.167  10.236   5.486  0.1737  0.0273 -0.0244
16147W        W29561   7.497   8.844  13.721  0.0558  0.1685  0.4357
16148W        W29562  16.009  10.031  14.651 -0.3758 -0.1969 -0.3992
16149W        W29563   4.912  17.126  12.713  0.1963 -0.1182  0.0684
16150W        W29564  11.993   3.440   0.318  0.1334 -0.0606 -0.1859
16151W        W29565  13.414  14.759   5.478 -0.1604  0.0418  0.0428
16152W        W29566   4.477   1.476   3.546  0.0050 -0.1005  0.1709
16153W        W29567   3.706  12.918   2.724 -0.2604  0.1443 -0.2895
16154W        W29568  17.270  11.346  14.896  0.0476  0.2120  0.5995
16155W        W29569   7.871  15.930  15.581 -0.0308 -0.0594 -0.1010
16156W        W29570  11.866   6.413   0.780  0.2236 -0.0294  0.0509
16157W        W29571   4.507  12.960  10.478 -0.0932  0.2413  0.0612
16158W        W29572  17.760   0.259   1.101  0.3369 -0.0276 -0.0781
16159W        W29573   6.424  15.008   2.382  0.0750 -0.0554  0.2517
16160W        W29574  13.344  12.839   0.297  0.3465 -0.0852 -0.1782
16161W        W29575  12.053  15.303  11.125 -0.0252 -0.2022  0.0918
16162W        W29576   1.190   9.572   5.072 -0.3005 -0.1687  0.1384
16163W        W29577  15.656   1.173  10.241  0.1882  0.2236  0.2291
16164W        W29578   7.232   4.210   5.852 -0.0379 -0.1352  0.0332
16165W        W29579  11.704   2.304   1.759 -0.0907  0.1510  0.1461
16166W        W29580   2.586   8.914  11.344 -0.1375  0.2193 -0.0560
16167W        W29581   4.000  11.392  14.748 -0.2476  0.1635  0.0777
16168W        W29582  10.682   7.120   2.682  0.0278 -0.1312  0.2644
16169W        W29583   3.810  15.971   3.115 -0.3088  0.0119 -0.1845
16170W        W29584  12.707  17.913  13.886 -0.1973 -0.0420  0.1482
16171W        W29585  15.814   7.238  13.999 -0.1800 -0.1556 -0.0920
16172W        W29586  17.430   7.818   0.393 -0.3147  0.1606  0.0150
16173W        W29587  11.128  14.685   4.863  0.0102 -0.0880  0.2087
16174W        W29588   0.029  10.562   4.003  0.0771 -0.4701 -0.0641
16175W        W29589   7.016   3.534  12.786  0.0420 -0.1012  0.1302
16176W        W29590   0.163  11.854   2.711  0.0366 -0.3119 -0.0900
16177W        W29591   0.468   9.880  11.161 -0.0869  0.0960  0.0554
16178W        W29592   6.664  10.011   5.599 -0.1557 -0.2139 -0.0521
16179W        W29593  16.635   9.912   2.898  0.2771  0.0742  0.1342
16180W        W29594   6.594  13.676  11.680 -0.2424  0.0453  0.1094
16181W        W29595   6.664   0.991  11.507  0.0129  0.3112  0.0574
16182W        W29596   0.069  16.090  15.649  0.0691 -0.1633  0.1670
16183W        W29597   8.778   3.808   3.661 -0.2057  0.0736  0.0589
16184W        W29598   1.690   1.039  14.153  0.1044  0.1993 -0.1359
16185W        W29599  16.446  15.650  10.321  0.1719  0.0735 -0.2948
16186W        W29600  16.072   4.975  12.749  0.0224 -0.0926  0.0516
16187W        W29601   0.590   8.622   4.242  0.4087  0.0736  0.2328
16188W        W29602  14.073   4.894   5.494  0.0792  0.0024 -0.0087
16189W        W29603   7.413   0.572   2.729 -0.2833 -0.1225 -0.0303
16190W        W29604  12.186   0.819  11.023  0.3200  0.4413  0.2314
16191W        W29605  15.269   5.092  13.472 -0.1237 -0.0841 -0.2494
16192W        W29606  11.845  15.600   3.326 -0.0763  0.3096  0.1249
16193W        W29607  14.811   9.870   4.720 -0.0472 -0.2877 -0.0737
16194W        W29608   1.595   3.175   3.544 -0.3155  0.1038 -0.1754
16195W        W29609   0.693   5.715   6.575 -0.3242 -0.1484  0.0213
16196W        W29610   3.339  12.043   4.628 -0.2456 -0.0099  0.1804
16197W        W29611   5.520   1.851   6.334 -0.0471 -0.0250  0.3401
16198W        W29612  11.237   3.010  14.734 -0.1641 -0.1302 -0.0615
16199W        W29613   0.332   3.307   6.075  0.0337 -0.1245  0.0705
16200W        W29614   6.798  16.587   2.479 -0.0511 -0.1199 -0.1955
16201W        W29615  13.234  10.628   2.598 -0.2338  0.0324  0.2432
16202W        W29616   1.877   7.719  11.448 -0.0606  0.3071 -0.0877
16203W        W29617  12.471  17.824  14.318  0.2787 -0.2975 -0.0314
16204W        W29618   7.879   6.644  14.245 -0.1491 -0.0309  0.0676
16205W        W29619   5.903   6.371   1.615  0.0004  0.0652 -0.2297
16206W        W29620  11.733   7.221  12.029  0.1837 -0.1730 -0.1195
16207W        W29621  10.407  15.553   3.569  0.1940 -0.2570  0.0278
16208W        W29622   4.717  11.881  11.308 -0.0050  0.2123  0.0309
16209W        W29623  17.077   3.160  14.119 -0.2660 -0.0468  0.1707
16210W        W29624  18.318   6.740  12.492  0.0093 -0.0677  0.0365
16211W        W29625   2.707   0.432   1.795  0.3166  0.0002  0.0886
16212W        W29626   1.423  12.816  10.876  0.0189  0.3432 -0.3866
16213W        W29627   2.489  17.744   6.933  0.2086 -0.1499  0.1517
16214W        W29628  11.878   7.057  15.611 -0.0702 -0.0436 -0.2419
16215W        W29629   2.600  15.835  12.693 -0.1835 -0.2038  0.0005
16216W        W29630  11.771   3.708   5.143 -0.1819  0.0459  0.2718
16217W        W29631   0.699  14.443   5.888  0.1578  0.2622  0.0397
16218W        W29632  10.111   8.439  10.811  0.0504 -0.0853  0.0174
16219W        W29633   7.739   6.942  13.844 -0.2642 -0.0869 -0.1512
16220W        W29634  11.030   7.847   3.621 -0.2914  0.0406 -0.0512
16221W        W29635  12.960  15.857   4.337 -0.0512 -0.2709 -0.0418
16222W        W29636   0.354   4.241   1.911  0.0691  0.0802  0.1465
16223W        W29637   9.297   8.825   4.237  0.0663 -0.0996  0.0099
16224W        W29638   8.001  10.491   0.898 -0.1071 -0.0234 -0.2440
16225W        W29639   8.662   5.797  14.901 -0.2555 -0.0470 -0.1992
16226W        W29640   7.811   8.582   4.880  0.1331  0.0657 -0.1170
16227W        W29641   2.657   9.849  11.211 -0.0980  0.0491  0.2440
16228W        W29642   7.921  10.350   2.715  0.1315  0.2359  0.1923
16229W        W29643  11.257  13.207   9.862 -0.0305  0.1138  0.0446
16230W        W29644   5.270   1.706  15.834  0.2332  0.2967  0.1509
16231W        W29645   9.901   5.323   4.268  0.1973 -0.0160 -0.3914
16232W        W29646   9.836   9.246  14.908 -0.0283 -0.0527  0.1312
16233W        W29647  14.864   0.833  13.099 -0.3027 -0.1317  0.1340
16234W        W29648   8.504   3.201  10.033 -0.0751  0.1580 -0.1204
16235W        W29649   0.406   9.314   1.895 -0.2815  0.3017  0.2914
16236W        W29650   3.427  10.781   5.099 -0.1920 -0.0600 -0.0601
16237W        W29651  11.346   7.735  16.104  0.0329  0.1293 -0.1743
16238W        W29652  16.501   5.658  11.596 -0.5172 -0.0115 -0.0215
16239W        W29653  12.870   2.212   3.944  0.1559 -0.2174 -0.3805
16240W        W29654  13.962  11.372  12.067  0.0949  0.4192  0.1212
16241W        W29655  11.689  11.697  15.518 -0.0636  0.0451 -0.0534
16242W        W29656   9.049   1.827  13.716  0.3074 -0.1821 -0.0317
16243W        W29657  16.971  17.504  16.126 -0.2608 -0.0818 -0.0757
16244W        W29658   3.553   5.316  10.899 -0.2378 -0.0214  0.2125
16245W        W29659  10.662  11.038   3.104  0.3885 -0.3145 -0.0968
16246W        W29660  15.827  11.511  12.340  0.0700 -0.0090 -0.1789
16247W        W29661  10.670  12.076  12.054  0.2771 -0.1035 -0.0796
16248W        W29662  10.450   0.788  14.281 -0.1413 -0.2324 -0.1438
16249W        W29663   5.315   4.874  12.359 -0.3418  0.1793 -0.0130
16250W        W29664  15.974   1.001  14.088 -0.0323 -0.1042  0.0783
16251W        W29665   7.587  13.252  14.044 -0.1116 -0.2292  0.2624
16252W        W29666   9.667   3.837  12.022  0.0750 -0.0144 -0.0033
16253W        W29667  15.328   1.388  13.646 -0.1011  0.4528 -0.0221
16254W        W29668   0.298  17.396  12.245  0.0416 -0.2916 -0.2871
16255W        W29669  15.890  12.786   1.854 -0.0355  0.0378 -0.1430
16256W        W29670   4.122  12.528   3.939 -0.0330  0.0017  0.0397
16257W        W29671  10.043  14.410  13.384  0.0698  0.4048  0.0010
16258W        W29672  14.675  12.114  16.026  0.0392  0.2161  0.0661
16259W        W29673  11.552   2.134   3.260  0.0141  0.3996 -0.2423
16260W        W29674   7.269   0.734  10.510 -0.0007 -0.4086 -0.0897
16261W        W29675  18.290   1.359   4.284  0.0412 -0.1641 -0.0299
16262W        W29676  12.384  12.799   5.248  0.0771  0.1284  0.0097
16263W        W29677  13.224  15.229  13.308  0.0844 -0.1032  0.1972
16264W        W29678  13.346  11.404   0.579 -0.0800 -0.0121  0.1282
16265W        W29679  11.385  16.816  11.146 -0.0759 -0.1568  0.1024
16266W        W29680   4.729   9.095  12.799  0.0230 -0.0776  0.1102
16267W        W29681  16.412  16.601  12.562 -0.0056  0.0971 -0.1320
16268W        W29682  18.195   1.238   2.892  0.0835 -0.1307  0.0793
16269W        W29683  13.590   4.766  12.813  0.0487 -0.0277 -0.1361
16270W        W29684   7.431  15.546   2.576 -0.1947 -0.1876  0.0032
16271W        W29685   5.128   8.604   0.115  0.2183 -0.1247 -0.2159
16272W        W29686   9.667  13.151   4.159  0.0877 -0.0073 -0.0402
16273W        W29687   3.094   3.597  10.890 -0.2803 -0.0303  0.1844
16274W        W29688   8.131  16.467   5.540 -0.4056  0.2430  0.0470
16275W        W29689   7.736  11.142   2.003 -0.0699  0.5375 -0.0233
16276W        W29690   5.101   2.122  11.315  0.1962  0.1138  0.0440
16277W        W29691   2.631   6.846   1.404 -0.0535  0.3260 -0.0480
16278W        W29692   3.441   9.298  15.973 -0.0647 -0.1185 -0.1120
16279W        W29693   4.678   8.947   4.869 -0.1227  0.2151 -0.1619
16280W        W29694  16.885  13.497  15.481  0.0114  0.1552  0.0112
16281W        W29695   2.662   1.842  10.563  0.1366  0.1545  0.0525
16282W        W29696  13.745  12.243   2.460  0.1328 -0.1740 -0.2525
16283W        W29697   8.456   7.354   5.813 -0.0556 -0.1392  0.1114
16284W        W29698  12.515  15.425  11.478 -0.1518 -0.2688  0.4195
16285W        W29699  14.030   7.797  15.295  0.1969  0.0976 -0.0156
16286W        W29700  17.071   6.427  11.042 -0.0974 -0.0110 -0.1603
16287W        W29701   1.278  13.736   5.237 -0.2529  0.1973 -0.4348
16288W        W29702  10.840  10.120  11.575  0.1314 -0.2857  0.0591
16289W        W29703   1.559  15.598  14.187  0.0529  0.0634 -0.0624
16290W        W29704  13.139   5.502  12.529 -0.2154 -0.0920  0.1460
16291W        W29705  14.559   7.817  11.775  0.1181  0.0006 -0.1868
16292W        W29706  12.839   1.719  14.331 -0.2302  0.0789 -0.1948
16293W        W29707  16.417  12.612  13.635 -0.1070  0.0511  0.2143
16294W        W29708   8.969  15.987   0.386  0.2083 -0.0883 -0.0811
16295W        W29709  17.061  10.253  10.823  0.0011 -0.1620  0.4221
16296W        W29710   0.719   8.959  14.838 -0.6107  0.1890  0.0412
16297W        W29711  13.404   2.361   4.023 -0.0362  0.0205 -0.2584
16298W        W29712   6.352  13.992  15.713 -0.0617 -0.0837  0.0725
16299W        W29713   3.015   4.866   1.500 -0.1442  0.1311 -0.1171
16300W        W29714   8.764  10.963   2.261 -0.1121 -0.1905 -0.1363
16301W        W29715   1.036   6.069   1.057 -0.0999 -0.2513  0.1182
16302W        W29716   1.762  11.255   4.768 -0.1165 -0.2464  0.1851
16303W        W29717   7.278   6.042  10.459 -0.0615  0.0085  0.5344
16304W        W29718  12.508  15.823  10.262  0.0936  0.0771  0.0502
16305W        W29719   2.051  17.319   5.864  0.1692 -0.3568 -0.2788
16306W        W29720  13.433   2.032   2.836  0.0255 -0.2492  0.1038
16307W        W29721   1.631  10.773   0.319  0.0028 -0.1315  0.2766
16308W        W29722   9.554  10.171   1.764  0.3608 -0.2093  0.0121
16309W        W29723  17.479  18.431  14.362 -0.4237  0.1094  0.1979
16310W        W29724  12.529   5.471  13.165  0.1843  0.2603 -0.3118
16311W        W29725  14.955  11.087   5.830 -0.1862  0.1243  0.2006
16312W        W29726  14.223   6.122  13.117  0.3171 -0.2090  0.0789
16313W        W29727  13.445  16.584   1.927 -0.0019 -0.1178 -0.0236
16314W        W29728  14.516   3.270  11.361  0.0343 -0.1953  0.0104
16315W        W29729  10.796  17.838   3.970  0.0105 -0.1976  0.2224
16316W        W29730  11.229   1.211   1.488 -0.0410 -0.0207  0.1056
16317W        W29731  13.632   1.308  10.519  0.1491 -0.0963 -0.0501
16318W        W29732  14.623   5.824  11.231 -0.1291  0.0997  0.2554
16319W        W29733  15.917   3.934  14.121  0.0475 -0.1798 -0.1673
16320W        W29734  13.262   3.081  11.732  0.3592 -0.2061 -0.0009
16321W        W29735  14.617  16.815  15.322 -0.0713  0.0588  0.0189
16322W        W29736  14.817   9.623   1.584 -0.2284  0.4202  0.0093
16323W        W29737  12.853  17.802   2.513 -0.1376 -0.3924 -0.2295
16324W        W29738  12.822   6.773   0.578  0.1878 -0.0516  0.0277
16325W        W29739   8.996   1.608   0.743  0.0769 -0.1142  0.0002
16326W        W29740  18.134   0.156   4.051 -0.2298 -0.1130  0.0964
16327W        W29741   3.804  13.961   4.442  0.1157  0.2936  0.0069
16328W        W29742  16.503   0.275   3.852  0.2388 -0.2717 -0.2376
16329W        W29743   2.516   0.719   3.549  0.0242 -0.0076 -0.1723
16330W        W29744  15.466   4.398  12.892  0.1530 -0.2003  0.0454
16331W        W29745  17.975  15.767   5.688 -0.1941  0.0045  0.1919
16332W        W29746  16.546   6.316  10.907  0.1234  0.1831 -0.2783
16333W        W29747   3.667  17.465  12.880 -0.1815  0.0845  0.1308
16334W        W29748   7.886  13.185   2.200  0.1590  0.2272  0.0114
16335W        W29749   8.249  13.152   4.128 -0.1266  0.0628 -0.0729
16336W        W29750  10.148   4.818   3.101  0.1528 -0.4055  0.3159
16337W        W29751  10.520  11.797  14.594 -0.0882  0.3886  0.0030
16338W        W29752   8.763   9.882  15.731  0.2852  0.2671  0.1976
16339W        W29753   3.564   9.473  10.894  0.2094  0.2550  0.2182
16340W        W29754   0.740  14.016  14.306 -0.3739  0.0653  0.1763
16341W        W29755  12.546  14.286   0.474 -0.2354  0.1285 -0.0786
16342W        W29756  12.071  16.611  12.612  0.1278 -0.1100  0.1140
16343W        W29757  10.185   1.490   5.518 -0.0874 -0.2214  0.1888
16344W        W29758  10.867   4.145   2.237  0.0893 -0.0958  0.0755
16345W        W29759   6.099   3.327  11.457 -0.3410  0.1245  0.0528
16346W        W29760   3.415   8.153   3.699  0.1279 -0.1984  0.0873
16347W        W29761  16.720  13.155   1.706 -0.2623 -0.1310 -0.0283
16348W        W29762  16.440  12.786   5.174 -0.1369 -0.1223 -0.2531
16349W        W29763  15.151   7.147   6.619 -0.0197  0.1460  0.2813
16350W        W29764   8.304  11.684   2.725 -0.1484  0.0439  0.1090
16351W        W29765   6.811  12.316  11.003  0.1934 -0.2038  0.0545
16352W        W29766  10.688   1.554   3.170  0.1887 -0.0414  0.8174
16353W        W29767   5.920  18.151   2.454 -0.3109  0.0684 -0.0957
16354W        W29768  18.281  16.106   0.973 -0.0533 -0.1911  0.3548
16355W        W29769   3.862  15.761   2.328 -0.0815 -0.1195 -0.0016
16356W        W29770  16.601   7.744   1.012 -0.3498  0.0782  0.0056
16357W        W29771   2.533  12.474   0.994 -0.4871 -0.2379  0.2010
16358W        W29772  16.886   5.189  15.843  0.0794  0.2796  0.3808
16359W        W29773  16.301   3.929  12.332  0.1296  0.1251  0.2058
16360W        W29774  12.865  16.221   3.217  0.1986 -0.1356  0.1252
16361W        W29775  10.795  15.226  11.727 -0.0231  0.1776  0.3382
16362W        W29776  13.436  15.810   4.210  0.2967 -0.0229 -0.1707
16363W        W29777  17.394   7.001   2.861 -0.0532 -0.2639  0.0443
16364W        W29778   7.604   5.661   0.669  0.1907 -0.1999  0.3289
16365W        W29779  15.070  15.390  13.213 -0.2050  0.0939  0.1675
16366W        W29780   8.027  10.256   1.336 -0.3737  0.0163 -0.2254
16367W        W29781  12.250  18.114   0.648 -0.4343  0.2534  0.0624
16368W        W29782  15.775  16.480   4.144  0.1035 -0.0515 -0.0113
16369W        W29783   1.105  18.372   5.436 -0.1017 -0.0333  0.0522
16370W        W29784   1.235  13.908   0.162  0.3809  0.5192 -0.3290
16371W        W29785   4.443   0.101  14.072  0.0550 -0.0252 -0.0752
16372W        W29786  16.042   3.822  11.930  0.0966  0.0428  0.1667
16373W        W29787   1.298  10.635   2.637  0.1460  0.2037  0.2533
16374W        W29788   3.811  11.388   3.301 -0.1169 -0.1034  0.1383
16375W        W29789   9.906   7.137   2.743  0.0352  0.0029 -0.1568
16376W        W29790   4.477  18.096   0.500  0.2311 -0.0688  0.3117
16377W        W29791   3.725   8.684   6.153  0.0667 -0.2812 -0.1085
16378W        W29792   8.765  13.515   0.277  0.2166  0.1154 -0.0941
16379W        W29793  11.820   1.483  15.876 -0.2227 -0.0011 -0.0931
16380W        W29794  10.421   1.524   4.104  0.0211 -0.1628  0.0283
16381W        W29795   0.395   0.874   1.195 -0.2856 -0.0415  0.2369
16382W        W29796  10.523  12.645   1.114 -0.2992 -0.0526  0.0210
16383W        W29797   5.573  12.207   1.771 -0.0190  0.0502 -0.6001
16384W        W29798  13.772  18.342  11.286  0.1687 -0.1709 -0.0438
16385W        W29799  15.493  10.620  13.952 -0.1854  0.2209 -0.0045
16386W        W29800  10.115   4.564   4.676  0.0574 -0.1131 -0.2156
16387W        W29801  15.183   6.523   1.402  0.0553 -0.2687 -0.0005
16388W        W29802  11.949  17.354  11.245  0.0782  0.1863 -0.0699
16389W        W29803  16.073  15.150  11.714  0.0875 -0.0065 -0.0612
16390W        W29804  15.289   4.151  14.624 -0.0551  0.0256  0.0612
16391W        W29805   1.435  10.265   3.593 -0.1786 -0.2662 -0.0264
16392W        W29806   2.171   0.312  15.827  0.0113  0.0594 -0.0970
16393W        W29807   0.582  17.201   3.606  0.1611 -0.1485 -0.0089
16394W        W29808  14.346  15.960   2.109 -0.2574 -0.0932  0.2675
16395W        W29809  17.785  13.023   9.991 -0.1420 -0.0593  0.3275
16396W        W29810   6.284   6.944  11.884  0.1568  0.2035 -0.1242
16397W        W29811   9.006   8.579   6.084  0.0271 -0.2019 -0.2313
16398W        W29812   3.069  15.272   1.758  0.0635  0.1347 -0.1051
16399W        W29813   9.647  15.046  14.709 -0.2495  0.1056  0.3406
16400W        W29814  17.231   6.741  10.603 -0.2658 -0.0956  0.1965
16401W        W29815  15.332   5.630   5.328 -0.2247  0.0538 -0.1526
16402W        W29816   5.541   1.232  12.676 -0.0234  0.1093  0.0395
16403W        W29817   3.026   4.073   0.196 -0.1011  0.0158 -0.4159
16404W        W29818  16.078   5.069   5.483 -0.0559 -0.2554  0.1704
16405W        W29819   6.064  14.068   1.421  0.2972  0.1777  0.0842
16406W        W29820  15.215   7.660  12.736  0.0796  0.3513 -0.2166
16407W        W29821   5.259   4.298  10.323  0.1749  0.1416 -0.1889
16408W        W29822  13.953  13.530   2.780  0.1403 -0.0249  0.1032
16409W        W29823   6.533  10.826   1.796 -0.0302  0.3708 -0.1812
16410W        W29824  11.186  15.859   2.643 -0.2006 -0.1625  0.2080
16411W        W29825  13.237   7.754   2.648  0.0443 -0.2061 -0.2140
16412W        W29826   5.538   1.785   1.025 -0.1459 -0.3493  0.0793
16413W        W29827   3.596   7.191   2.338  0.0833  0.2454 -0.1872
16414W        W29828  16.278   4.513   4.865  0.0933 -0.3355  0.0786
16415W        W29829   7.434   1.944  12.797  0.2545  0.2161 -0.0132
16416W        W29830   9.507   3.048   0.999  0.1385  0.0295  0.0785
16417W        W29831   5.117  16.247  11.842  0.3286  0.0498 -0.0228
16418W        W29832  14.508   0.809   0.716  0.0480 -0.4013 -0.1345
16419W        W29833  15.176   9.080   4.546 -0.2160  0.0160 -0.1399
16420W        W29834   3.472  18.045   0.966 -0.0803 -0.0588  0.0286
16421W        W29835  18.278  13.884  13.316 -0.1051  0.1249 -0.2327
16422W        W29836   6.401   1.962   4.795 -0.0747 -0.4547  0.1879
16423W        W29837   4.755  15.887  11.003  0.2105 -0.1328  0.1978
16424W        W29838   3.051  14.163   2.725  0.1127  0.0116 -0.2044
16425W        W29839  13.626  10.918  10.252 -0.1643 -0.1686 -0.3322
16426W        W29840  14.412   3.219   4.501  0.1786  0.3582 -0.2131
16427W        W29841  17.211  16.952  12.977 -0.0998 -0.0602  0.2023
16428W        W29842  12.887  12.493  15.959  0.2425 -0.3089  0.1379
16429W        W29843  10.355  17.931  11.074  0.2554 -0.2210  0.0379
16430W        W29844   1.373   2.839  14.336  0.0320  0.3440 -0.3753
16431W        W29845  16.427   5.227  15.358 -0.0658  0.1123 -0.0988
16432W        W29846   7.642  15.798  12.962 -0.0257 -0.1159 -0.0348
16433W        W29847   8.108   1.029   6.100  0.0363  0.0788  0.0304
16434W        W29848   7.138   9.033   3.502 -0.3474  0.2169  0.1632
16435W        W29849  15.922  10.459   4.886  0.0945 -0.1319 -0.1180
16436W        W29850  12.056   9.106  15.311 -0.0122 -0.0455  0.0310
16437W        W29851   1.574  12.361   2.758 -0.0142  0.0631  0.1286
16438W        W29852  13.886   7.338   3.521  0.2254  0.1422  0.1289
16439W        W29853  10.190   7.924   4.672  0.0566 -0.0934  0.1402
16440W        W29854  15.717   0.697   1.625  0.0005  0.2992  0.0191
16441W        W29855  17.046   0.247   1.920  0.0243 -0.0896 -0.1323
16442W        W29856   0.840  13.763  12.628 -0.0274  0.0652 -0.4331
16443W        W29857  14.909  15.273   2.671 -0.1132 -0.1841  0.0698
16444W        W29858  12.683  17.575  11.656  0.0868  0.0161 -0.2086
16445W        W29859   7.791   6.054   5.791  0.0068  0.2447  0.1366
16446W        W29860  17.838  17.684   5.094  0.0083  0.1972  0.3134
16447W        W29861   5.944   5.088   0.547 -0.1757 -0.0275 -0.1491
16448W        W29862   0.780   5.827  14.670 -0.1860  0.0795 -0.2524
16449W        W29863  15.287   5.959   4.478  0.3780  0.0719  0.0127
16450W        W29864   5.365  10.116   0.857 -0.0610  0.1446  0.1865
16451W        W29865   1.965   0.147  11.052 -0.2382 -0.4400 -0.3972
16452W        W29866  12.178   0.086   5.337 -0.2252  0.0018  0.0828
16453W        W29867  16.908   3.036   3.424 -0.3037 -0.3137 -0.1050
16454W        W29868  14.959   3.041   5.703  0.0127 -0.0146  0.1544
16455W        W29869  13.377  18.245   4.144 -0.1628  0.0694  0.2206
16456W        W29870  10.433   0.424  10.922  0.0694 -0.1800 -0.3856
16457W        W29871  18.348   0.500   3.726 -0.2008 -0.3976 -0.1875
16458W        W29872  11.555  16.843  14.404 -0.0663 -0.0010 -0.0664
16459W        W29873  14.768   2.770   1.296  0.1357 -0.3144  0.1053
16460W        W29874  12.591  13.467  14.836  0.1819  0.0180  0.1808
16461W        W29875   8.146  13.824   1.424  0.2247 -0.3955 -0.1761
16462W        W29876  12.896  17.575  14.282  0.2780  0.2106 -0.2515
16463W        W29877   2.740   1.730  14.938  0.0448  0.3102 -0.1289
16464W        W29878  10.925   3.005  15.340 -0.0868 -0.0396  0.1885
16465W        W29879  13.542   7.086  13.490 -0.0646  0.1450 -0.2049
16466W        W29880  15.523   5.024   2.793 -0.3451  0.0158 -0.0560
16467W        W29881  11.861  10.222   5.053 -0.0182  0.1809 -0.0216
16468W        W29882   3.078  12.238  16.158 -0.1700 -0.0738 -0.3134
16469W        W29883   1.765  11.606   3.584 -0.1988 -0.2765  0.1590
16470W        W29884  11.135   1.908  11.875  0.0772  0.2705 -0.3142
16471W        W29885  12.681   8.502  13.069 -0.0008 -0.0986 -0.1955
16472W        W29886   0.006  10.322   4.517 -0.0720 -0.0328 -0.2206
16473W        W29887  10.247  15.212   0.146  0.0487  0.1479 -0.0311
16474W        W29888   4.404   2.662  10.172  0.0323  0.1740 -0.0639
16475W        W29889  10.084   3.660  10.920  0.3632  0.1342  0.2496
16476W        W29890  10.722   6.952  15.197 -0.1565  0.2226 -0.0565
16477W        W29891  15.027   2.080  12.400 -0.1668  0.2428 -0.3932
16478W        W29892  15.507   6.363   0.978  0.0720  0.0785 -0.2075
16479W        W29893   9.986  17.983  15.866 -0.4246  0.1113 -0.1369
16480W        W29894  17.029   1.142   2.371 -0.1987 -0.4357  0.1810
16481W        W29895   7.897  15.392   5.639 -0.0241 -0.1075  0.1492
16482W        W29896   7.769   0.808   1.413  0.0971  0.0388 -0.2317
16483W        W29897   5.483   2.165  12.264  0.0577 -0.1830 -0.0215
16484W        W29898   6.881   9.650   0.692  0.1736 -0.2438  0.2047
16485W        W29899   5.007  13.805  15.599  0.2385  0.1087  0.0270
16486W        W29900   6.320   2.525  15.820  0.1372  0.0330  0.1847
16487W        W29901   8.640   0.697   5.510  0.2034 -0.3129 -0.0177
16488W        W29902   0.483  12.881   3.854  0.0638  0.0262 -0.0962
16489W        W29903  12.404  17.623   0.512  0.0876  0.2096 -0.3687
16490W        W29904   5.313   8.874  13.600  0.0452 -0.1211  0.0283
16491W        W29905   8.865   7.871   1.449 -0.4608 -0.0498  0.0802
16492W        W29906  18.435   1.033   6.118  0.1709 -0.2315 -0.0042
16493W        W29907  11.895  10.556   5.750  0.1179 -0.3073  0.1001
16494W        W29908   7.292   8.048  11.686  0.0702 -0.3148  0.0773
16495W        W29909  18.048  11.852  14.825  0.0482 -0.0613  0.1218
16496W        W29910   8.696   2.956  13.692 -0.0788 -0.2364  0.0761
16497W        W29911   0.593  12.522   0.975 -0.1233  0.0613 -0.1760
16498W        W29912  13.229  11.850   2.416 -0.0821  0.1217  0.2949
16499W        W29913   7.759  17.792   2.747 -0.0647 -0.1325 -0.1950
16500W        W29914   2.928   7.175   5.666 -0.0151  0.3405 -0.0429
16501W        W29915   6.103  16.529   0.371 -0.0038  0.2798  0.1718
16502W        W29916  14.533  14.681   2.363  0.0491  0.1084 -0.2024
16503W        W29917  12.960  10.018   5.356 -0.1821 -0.1871  0.1341
16504W        W29918  14.884  15.692  14.137  0.1762  0.0995 -0.1407
16505W        W29919  12.247  17.936   4.190 -0.0044  0.0592  0.0693
16506W        W29920  14.665   3.648   5.366  0.1073 -0.0015 -0.5559
16507W        W29921   3.241   7.128  12.241 -0.1880  0.0331  0.1539
16508W        W29922   2.247  18.405   4.104  0.0143 -0.0949 -0.1927
16509W        W29923   5.473  17.887  13.064  0.1927  0.1428  0.0690
16510W        W29924   0.899  15.782  16.063 -0.0560 -0.0212 -0.1434
16511W        W29925   4.570   9.536   0.379 -0.1800 -0.0586  0.0466
16512W        W29926   0.975   8.210   4.427  0.3066 -0.0988  0.1456
16513W        W29927  16.484   3.062   1.386 -0.1812 -0.0808  0.4267
16514W        W29928  14.964  11.616   0.998  0.0236  0.1115  0.1068
16515W        W29929   1.423   3.839   4.848  0.2043 -0.1738  0.0579
16516W        W29930  11.294   0.635   0.690  0.0914  0.4901 -0.2867
16517W        W29931   2.642   7.465   2.030  0.0860 -0.2078 -0.1551
16518W        W29932   2.451   0.543  14.516  0.2921  0.1277  0.0426
16519W        W29933  11.584  13.846   3.433 -0.2717  0.0747  0.3710
16520W        W29934   7.843  13.257   4.373 -0.1561  0.1952  0.1431
16521W        W29935  13.397   4.279  15.136 -0.0571 -0.0149 -0.3092
16522W        W29936  16.538   7.084  12.679 -0.1029  0.2229 -0.1053
16523W        W29937  10.542   9.284  13.435 -0.1742 -0.2388 -0.5458
16524W        W29938  12.955  15.034   5.651  0.1805 -0.1566  0.1708
16525W        W29939   6.606  11.538   3.644 -0.2171  0.1558  0.0703
16526W        W29940   7.882   6.518   5.591  0.0935  0.0635 -0.1169
16527W        W29941  12.816  15.708   1.923 -0.2034 -0.0570  0.1637
16528W        W29942   8.874  18.092  10.306 -0.1141  0.1803 -0.0344
16529W        W29943   7.207  11.776  12.279  0.1531  0.0061  0.0197
16530W        W29944  12.152   7.316  13.954 -0.2624 -0.2335  0.3960
16531W        W29945   7.694  12.858   1.379  0.1507 -0.1157  0.0294
16532W        W29946  13.540   6.426   4.670  0.0170  0.0822 -0.3094
16533W        W29947   1.282  15.106  12.962 -0.1378  0.1037 -0.0363
16534W        W29948   2.509   4.018   0.801 -0.0720  0.0771 -0.1974
16535W        W29949   7.336  12.738  12.746 -0.2933  0.2873 -0.1729
16536W        W29950   9.764  12.975  10.625 -0.1891  0.1968 -0.0160
16537W        W29951  11.646   2.939   5.699 -0.1630  0.1917  0.0915
16538W        W29952   7.616   7.343  10.769  0.0384  0.0002  0.2335
16539W        W29953  13.125  16.964  12.388 -0.0035  0.1456 -0.1012
16540W        W29954   6.344  17.968  11.428 -0.1705 -0.0023  0.0865
16541W        W29955  11.744  15.071   3.080 -0.3624 -0.0286 -0.2451
16542W        W29956   1.344   7.871   2.386  0.2600 -0.1688  0.0004
16543W        W29957   5.320  11.134  11.614  0.0263 -0.1266 -0.2425
16544W        W29958   3.301   4.508   2.120 -0.0002 -0.1582 -0.2825
16545W        W29959   1.641   9.548   1.326  0.1000 -0.0653  0.0267
16546W        W29960   0.996  17.747  13.767 -0.1105  0.1650 -0.0467
16547W        W29961   1.027  12.670   1.760 -0.0902  0.1763  0.0392
16548W        W29962   5.713   0.920   2.675  0.1425 -0.3351 -0.3153
16549W        W29963  13.908  15.209  14.035  0.0171  0.0690 -0.1116
16550W        W29964   3.944   1.879  15.898 -0.0858  0.0139 -0.0988
16551W        W29965  11.331  14.914  13.435  0.0675  0.1878  0.0059
16552W        W29966  11.007  13.673   5.396 -0.0074 -0.1538 -0.1137
16553W        W29967  11.975  14.528   2.901 -0.3363 -0.0162 -0.0190
16554W        W29968   7.656   2.171  13.205  0.0603  0.1884 -0.0058
16555W        W29969   7.019   7.075   1.901 -0.2479  0.2127 -0.2217
16556W        W29970  14.609  13.910  10.824  0.2924 -0.1997  0.0485
16557W        W29971   9.057  13.800   1.967  0.0410  0.2504 -0.1545
16558W        W29972  16.490   1.783   1.168 -0.1096  0.0278 -0.2663
16559W        W29973  17.197   9.712   0.507  0.0939 -0.2565  0.1431
16560W        W29974  12.378  17.785  14.903  0.1611 -0.0345 -0.2131
16561W        W29975  10.889  12.721   3.987  0.0344 -0.2659  0.0400
16562W        W29976   7.044   2.086   1.551  0.1040  0.1838 -0.1255
16563W        W29977  15.829  13.915  15.190  0.0873  0.1962 -0.1766
16564W        W29978   9.572   5.370  12.133  0.1162 -0.2642  0.0325
16565W        W29979  17.510   3.259   3.906  0.2281 -0.2174  0.0556
16566W        W29980  18.342  15.606   5.404 -0.2359 -0.0787 -0.2114
16567W        W29981  15.586  12.825   0.996 -0.1312  0.1599  0.0954
16568W        W29982   4.616  14.427  14.964 -0.0867 -0.0429  0.5469
16569W        W29983   1.055   1.777  15.145  0.0343 -0.1685 -0.1509
16570W        W29984   8.213  12.697  12.105 -0.1193  0.2513  0.2109
16571W        W29985  14.249   4.139  11.330 -0.3075 -0.5033 -0.3329
16572W        W29986  16.994  17.546  15.232  0.0728 -0.0438 -0.1011
16573W        W29987  16.738  15.013   0.904  0.2347 -0.3441  0.1019
16574W        W29988  18.292   5.172   5.567  0.2296 -0.1385  0.0262
16575W        W29989  12.556   3.391  11.379 -0.0357  0.0033  0.0076
16576W        W29990  11.059   0.686  14.740 -0.0060 -0.1952  0.0573
16577W        W29991  11.274   3.316   5.064  0.0004  0.0138  0.0325
16578W        W29992   3.954   6.205   1.691  0.0879  0.2275  0.1847
16579W        W29993   2.882  18.129   6.165  0.4400 -0.1471  0.1604
16580W        W29994   6.170   4.644   4.071 -0.2810 -0.0749  0.0815
16581W        W29995  17.554   1.885   2.664 -0.3136  0.1837  0.0915
16582W        W29996   2.020   3.006  13.388 -0.0470 -0.1427  0.4392
16583W        W29997   7.794  13.437  12.641 -0.3153  0.0098  0.0599
16584W        W29998   4.903  17.943  13.354 -0.1094 -0.2601  0.0314
16585W        W29999   7.775   9.592  11.757  0.1876 -0.2516 -0.0598
16586W        W30000  17.995   9.142   0.288  0.0149  0.1340 -0.0059
16587W        W30001  12.981   7.283  15.614 -0.1743 -0.4320  0.0557
16588W        W30002  14.899  12.500   0.469 -0.1893 -0.2703 -0.0134
16589W        W30003   3.969  11.297  13.784  0.0036  0.0018 -0.1280
16590W        W30004  12.483   8.456   6.228 -0.0212 -0.1337  0.2629
16591W        W30005   5.363   7.375  14.188 -0.4416 -0.1472 -0.3266
16592W        W30006   6.536   5.212   4.247  0.3221  0.2261 -0.2115
16593W        W30007  13.977   4.505  10.581  0.0729 -0.4105  0.0241
16594W        W30008   6.305  13.873  10.410 -0.3406 -0.1824 -0.2033
16595W        W30009  15.680   9.461  13.608  0.2246  0.1398 -0.2817
16596W        W30010  17.396  15.829   1.420 -0.0925 -0.0385  0.0709
16597W        W30011   5.091   7.888   2.196 -0.2303 -0.0331 -0.3058
16598W        W30012   8.754   3.686  10.251  0.4407  0.0918 -0.1733
16599W        W30013   3.500  17.454  14.860  0.0504 -0.1145 -0.1181
16600W        W30014   5.254   1.972  15.126 -0.0851  0.3229 -0.3056
16601W        W30015   0.330  16.371   0.869 -0.2418  0.2821  0.1991
16602W        W30016  12.733  15.491  14.204 -0.0097  0.0348  0.0064
16603W        W30017  14.771   1.980  15.236  0.2477  0.3836  0.0325
16604W        W30018  17.383   9.865   2.820  0.0185  0.4694  0.1206
16605W        W30019  13.851  15.975  12.568  0.0639  0.1468  0.1196
16606W        W30020  15.057   9.420   0.775 -0.1163 -0.2593 -0.3418
16607W        W30021  17.850   1.919   0.706  0.2718 -0.0801 -0.5535
16608W        W30022   7.414   7.082  13.254 -0.0569 -0.1432 -0.0947
16609W        W30023  11.656  11.284  14.306  0.2584 -0.0282 -0.1825
16610W        W30024  18.185   0.984  14.446  0.1622  0.3152 -0.1220
16611W        W30025  14.279  13.129  14.166  0.0674  0.1525 -0.1673
16612W        W30026  17.758  15.355   1.209  0.1459  0.4433  0.0625
16613W        W30027   7.690   5.430  11.128  0.2568  0.2024  0.0286
16614W        W30028   6.987   4.673   5.111 -0.0251  0.1500  0.0122
16615W        W30029   8.632  13.712  13.829 -0.2198 -0.2119 -0.0732
16616W        W30030   5.303   7.346  12.143 -0.1949 -0.2631 -0.4007
16617W        W30031  15.282   0.280   0.549 -0.4228  0.0659 -0.0210
16618W        W30032   1.400   4.622   4.670  0.1084  0.0720  0.0883
16619W        W30033   8.441   6.126   2.293 -0.1034  0.4472  0.0795
16620W        W30034  14.913   3.026   6.198 -0.0980 -0.3284  0.0835
16621W        W30035  16.109   3.671  14.501  0.1942  0.0489  0.0324
16622W        W30036   5.096   3.683   3.152  0.3035 -0.1458  0.0928
16623W        W30037   8.503   0.765  14.665 -0.0420  0.0270 -0.2770
16624W        W30038  16.373  18.395   6.165 -0.0435  0.3498  0.2897
16625W        W30039   2.152   3.988   3.566 -0.0890 -0.1295 -0.0176
16626W        W30040   3.189  18.106   3.959 -0.1551 -0.1310  0.0313
16627W        W30041  11.099  14.636   1.347 -0.1612 -0.1528  0.0482
16628W        W30042  17.280   4.389   5.899  0.2032  0.2599 -0.0006
16629W        W30043   0.492   8.595   3.629 -0.4706 -0.2202 -0.2224
16630W        W30044  16.391  11.724  14.590  0.0521  0.1672  0.3701
16631W        W30045   6.634  16.173   2.930 -0.3763 -0.0530  0.1604
16632W        W30046  15.704   0.942  10.896  0.1174 -0.1596  0.2221
16633W        W30047   3.378  13.747  10.290 -0.1407  0.0550  0.0213
16634W        W30048   1.200  13.790  10.972 -0.0080  0.0886 -0.0096
16635W        W30049   8.528   1.257  12.336 -0.2799 -0.0601  0.0156
16636W        W30050   6.491   1.078   3.809  0.1387 -0.2114  0.0495
16637W        W30051  12.044  10.514  13.746  0.2016 -0.1960  0.2935
16638W        W30052  18.421   0.329  13.705 -0.1491  0.4612  0.2030
16639W        W30053   1.298   5.707  13.286 -0.2199  0.0477 -0.0706
16640W        W30054  11.237   5.070   0.905  0.0268 -0.1728 -0.1591
16641W        W30055  16.577   9.164   0.414  0.0415 -0.2328  0.2049
16642W        W30056  13.211  10.331  12.524  0.1545  0.1617 -0.4727
16643W        W30057  12.382  14.198  12.105  0.1904 -0.0008 -0.3873
16644W        W30058  18.325  11.462   2.412 -0.0638 -0.0663  0.0294
16645W        W30059   1.529   8.565   3.258 -0.1435 -0.5353  0.2077
16646W        W30060  16.947   1.201  13.913  0.2147  0.4226 -0.0246
16647W        W30061  18.274  17.155   5.820  0.1458 -0.1240 -0.1122
16648W        W30062  15.264  10.454  10.199 -0.1737 -0.0421  0.0813
16649W        W30063  12.588   1.598   1.226  0.3203 -0.3671 -0.0205
16650W        W30064  15.294  13.718   1.533  0.2208  0.1824 -0.1247
16651W        W30065  14.734  10.246   3.414  0.0635 -0.1712  0.2403
16652W        W30066   5.583  18.430   0.483  0.3117  0.3998  0.0598
16653W        W30067  10.471  17.757   1.211 -0.1463  0.2669  0.1911
16654W        W30068  18.013   2.296   5.307  0.1184  0.0062  0.0820
16655W        W30069   4.696   0.920   1.997  0.2061 -0.0131  0.0715
16656W        W30070   2.173  14.955   4.523  0.2123  0.0018  0.0663
16657W        W30071  17.025  16.797   5.537  0.1471  0.1973  0.1433
16658W        W30072  14.367   6.210   0.396 -0.1705 -0.3050  0.0941
16659W        W30073  10.442   1.673   1.668  0.3040  0.1734  0.1049
16660W        W30074  10.991  11.992  14.726 -0.1354  0.0823 -0.2250
16661W        W30075   7.459   4.962   5.236 -0.3198  0.0598  0.1293
16662W        W30076  11.557  11.947   5.412  0.3869  0.0698 -0.1721
16663W        W30077  12.938   6.055  10.865 -0.1945  0.3379 -0.0789
16664W        W30078  15.472   4.885  11.860 -0.0417  0.1422  0.0019
16665W        W30079  13.776   4.200   3.950  0.0326 -0.1364 -0.0169
16666W        W30080   0.223   9.042  11.856 -0.0454 -0.0010 -0.2908
16667W        W30081   8.325   4.286   2.578 -0.1049 -0.1959  0.2150
16668W        W30082  17.955  14.371   4.739  0.0788  0.0780 -0.1297
16669W        W30083   8.807  13.224  16.044  0.2854  0.1571  0.1456
16670W        W30084   0.126   2.152   3.156 -0.1335 -0.3345  0.2193
16671W        W30085   2.419   3.787   4.908  0.0060  0.0555 -0.0745
16672W        W30086  11.427   8.845   5.342 -0.0705  0.0770  0.0544
16673W        W30087  12.895  15.043   0.580  0.1187  0.2140 -0.1925
16674W        W30088   4.436   5.189  12.913  0.2202 -0.1380  0.1109
16675W        W30089   4.999   3.970   3.831  0.0348  0.0381  0.0136
16676W        W30090   5.207  10.554  13.803 -0.1367 -0.0958 -0.0824
16677W        W30091   4.895   1.491  14.582  0.0725  0.2537  0.1180
16678W        W30092   6.761  16.576  16.221  0.0784  0.0011 -0.3784
16679W        W30093   7.885   8.857   5.332 -0.0012 -0.1461  0.2360
16680W        W30094   5.370  18.313   0.922  0.1327  0.2483 -0.1261
16681W        W30095   2.418   9.756  14.698  0.3606 -0.1861 -0.2384
16682W        W30096  14.451   2.120   4.478 -0.0755  0.2229 -0.1661
16683W        W30097  16.558   2.204   0.845 -0.0284  0.2444 -0.1369
16684W        W30098  10.989  15.491   2.959 -0.1546 -0.1401  0.2591
16685W        W30099  12.689  15.544  14.700  0.1637 -0.1950  0.0740
16686W        W30100   0.103   1.557  14.947 -0.2213  0.0702 -0.1004
16687W        W30101  13.332  10.756   3.143 -0.0941  0.2823 -0.2709
16688W        W30102   5.691   2.598  11.160  0.0308 -0.1166  0.1137
16689W        W30103   4.794  18.303   0.914 -0.1530 -0.1654 -0.0060
16690W        W30104   2.253  12.796  15.615  0.0253  0.2165  0.0313
16691W        W30105  15.803   4.166  12.324  0.6241 -0.0525 -0.1954
16692W        W30106   3.528  10.100  12.683 -0.1054  0.1532 -0.4249
16693W        W30107  14.694   9.325   6.213  0.1593  0.2834 -0.1422
16694W        W30108  12.785  16.364  11.757  0.1052  0.2123  0.0042
16695W        W30109  10.781   8.813   3.961  0.0323 -0.2565  0.1476
16696W        W30110  16.681   9.293  16.117  0.0534 -0.2520 -0.3442
16697W        W30111  12.789   7.643   0.872  0.4516  0.0326 -0.0010
16698W        W30112  14.890  10.118   1.689 -0.0196  0.3293  0.0788
16699W        W30113   6.844  16.914  14.649 -0.2607 -0.2762 -0.0134
16700W        W30114   2.961   3.989   5.138  0.0105 -0.1949 -0.2350
16701W        W30115  13.186   8.445   2.024 -0.0341 -0.1039 -0.0335
16702W        W30116   4.023  11.586   1.356 -0.1058 -0.0796 -0.0095
16703W        W30117  13.913   1.113   2.179 -0.0224  0.1212  0.0717
16704W        W30118  10.282   2.669   5.412 -0.0692 -0.1937 -0.1462
16705W        W30119  17.257  17.286  12.400 -0.0699 -0.0897 -0.3384
16706W        W30120   5.971   9.350   2.382  0.2681 -0.0484 -0.0416
16707W        W30121   1.388   2.374   2.998 -0.1906  0.0472  0.1292
16708W        W30122  14.277   1.074  14.031  0.0052 -0.1459  0.0867
16709W        W30123  15.233  12.778   3.813  0.3106 -0.3270  0.1617
16710W        W30124  11.585  13.312  11.331 -0.0824  0.2101 -0.0587
16711W        W30125   7.127  17.424  15.837 -0.0418 -0.1679  0.0817
16712W        W30126   7.686   3.011   5.049 -0.1277 -0.2078  0.0334
16713W        W30127  11.626   9.345   0.735  0.3035 -0.0084  0.2229
16714W        W30128  12.122  11.004   5.361  0.0606 -0.2186  0.1439
16715W        W30129  16.967   3.554   3.653  0.3348 -0.2725  0.1917
16716W        W30130   6.052  11.732  14.172 -0.1114 -0.4029 -0.1397
16717W        W30131  10.715   2.650   1.681 -0.0580 -0.2388  0.0560
16718W        W30132  16.868  12.741  15.179  0.0215 -0.2300 -0.0512
16719W        W30133  13.752  17.962   1.395  0.1366 -0.1667 -0.2867
16720W        W30134   3.437  15.714   1.353  0.0678 -0.0027  0.2281
16721W        W30135   5.912   1.601   2.687 -0.1743  0.0197 -0.3578
16722W        W30136   8.208   9.842   1.730 -0.1013  0.1594 -0.1396
16723W        W30137   2.680   7.036   1.857  0.0551  0.1575 -0.1686
16724W        W30138   1.941  10.038   0.117 -0.2845 -0.4088 -0.1383
16725W        W30139  13.302   3.573   4.695 -0.2343 -0.1347 -0.0768
16726W        W30140  18.031   6.352  15.246 -0.3033  0.1031  0.0075
16727W        W30141  11.907   3.194   1.805 -0.3893  0.1980  0.1419
16728W        W30142   1.700  10.655  13.765  0.1962 -0.1868  0.1419
16729W        W30143  10.725   5.151  13.010 -0.0506  0.0628  0.4901
16730W        W30144   0.272   9.155   3.585 -0.0882 -0.0397 -0.1329
16731W        W30145   8.319   5.223  15.733  0.0286 -0.1936 -0.0353
16732W        W30146   5.684  10.100  15.670  0.2501 -0.0933 -0.0531
16733W        W30147   0.983  16.849  12.910 -0.1502 -0.0496 -0.0963
16734W        W30148  15.317   6.783   2.344  0.1319 -0.2160 -0.2403
16735W        W30149  15.490   2.448  10.992 -0.0920 -0.1985 -0.0225
16736W        W30150  11.897  17.486  12.697 -0.4302  0.1826  0.0387
16737W        W30151   9.487  15.767  11.834  0.0539  0.1462  0.0995
16738W        W30152   5.639  13.285   2.565  0.0008 -0.2971  0.0657
16739W        W30153  12.479  10.688   6.383 -0.2826 -0.1439 -0.1049
16740W        W30154  15.012   8.224   0.618  0.0785 -0.2850 -0.0746
16741W        W30155  18.201  12.001   5.305  0.1408 -0.2495 -0.0273
16742W        W30156   7.341  18.203   2.110  0.0011  0.0820  0.0409
16743W        W30157  12.436  15.501  12.014  0.2603 -0.0480 -0.0978
16744W        W30158   7.059  14.139   4.532  0.4381  0.1184 -0.0025
16745W        W30159   9.707  13.061   0.971  0.1305 -0.1488 -0.4837
16746W        W30160  11.241   2.029  10.461 -0.3324  0.3042  0.0708
16747W        W30161  13.877   0.448  12.338  0.0042  0.1045  0.2121
16748W        W30162   8.768  15.760  13.897  0.0495  0.0621 -0.2119
16749W        W30163  13.874  16.193  14.935  0.2485 -0.0008 -0.1399
16750W        W30164   5.921   3.703   1.140  0.1308  0.2325 -0.0494
16751W        W30165  17.260   1.118  11.967  0.3246 -0.0270 -0.2342
16752W        W30166  12.170   4.382  13.861  0.2382  0.3948  0.1008
16753W        W30167   2.787   5.426  16.264  0.1946 -0.1361  0.1796
16754W        W30168   0.043   8.426  14.175  0.0665  0.0599  0.2747
16755W        W30169  12.944  17.342  12.057  0.2417 -0.4549  0.1676
16756W        W30170   6.980  12.170  11.443  0.0032 -0.5331 -0.1553
16757W        W30171  12.232   5.174   0.697 -0.0556 -0.2564 -0.0686
16758W        W30172  10.646  13.027   4.881  0.5202  0.2183  0.1487
16759W        W30173   8.747  12.375   3.536 -0.0447 -0.1380 -0.2826
16760W        W30174   5.392  16.789  12.719 -0.2485  0.4169  0.1287
16761W        W30175   3.089  11.660   1.727  0.2789 -0.0388 -0.1103
16762W        W30176  14.204  16.875   1.119 -0.2609 -0.1841  0.2450
16763W        W30177   2.409  15.658  13.704 -0.1935  0.1644 -0.2801
16764W        W30178  15.459   8.192  10.990 -0.2769  0.1400  0.0870
16765W        W30179   9.245  13.065  13.582 -0.1000 -0.1631 -0.0919
16766W        W30180   5.945  13.314   0.728 -0.0328  0.1315 -0.1494
16767W        W30181   7.469   9.847   3.944  0.6017  0.1942  0.1652
16768W        W30182  10.592   2.595   3.651  0.2699  0.0077  0.0775
16769W        W30183   6.680  18.023  11.054 -0.0788  0.1210 -0.4018
16770W        W30184   6.295  10.900   1.274  0.2946 -0.1395 -0.1094
16771W        W30185   0.468  10.190  12.892 -0.2375 -0.1715  0.0184
16772W        W30186  17.860   4.331   3.234 -0.2129 -0.0619  0.2225
16773W        W30187   3.220   0.637   4.959  0.2545  0.1370 -0.0594
16774W        W30188   4.348   0.698  15.742 -0.1211 -0.0520  0.0790
16775W        W30189   6.129   3.848   4.462 -0.2633 -0.0365 -0.3871
16776W        W30190   3.837   8.606  11.009 -0.2076  0.2723  0.1062
16777W        W30191   0.240   5.700  14.622  0.1768  0.2669 -0.0065
16778W        W30192  12.670   7.432   5.144  0.1264  0.2992 -0.1686
16779W        W30193   0.473  14.372  15.402 -0.1799 -0.1157  0.0547
16780W        W30194  14.980   4.789  11.202 -0.1276  0.4580  0.0801
16781W        W30195   8.673  17.592  12.287  0.0514 -0.1979 -0.2191
16782W        W30196  13.581   3.315   5.259  0.0645 -0.3943  0.0454
16783W        W30197  16.391  11.722  11.550 -0.1341 -0.2169  0.1141
16784W        W30198  10.073   9.774   5.157 -0.0085 -0.0719 -0.0226
16785W        W30199  14.387  16.461   4.792 -0.0031  0.1043 -0.3934
16786W        W30200  10.529  12.152   4.251  0.0572  0.3494 -0.0496
16787W        W30201   8.247  16.200  14.384 -0.3342 -0.0113  0.0712
16788W        W30202  17.738   6.919  13.249 -0.0639 -0.6011 -0.1352
16789W        W30203  12.992  10.401  16.127 -0.0440  0.0652 -0.0075
16790W        W30204  16.357   4.691   2.263  0.2312  0.0311 -0.0144
16791W        W30205   9.939   4.578  10.679  0.0999  0.0369  0.2021
16792W        W30206   5.841   5.644  15.575 -0.0851 -0.1183 -0.0306
16793W        W30207  14.319  15.851   3.958 -0.0666 -0.3234  0.3607
16794W        W30208   5.294   6.323  15.303 -0.1003 -0.0087  0.0017
16795W        W30209  13.694   9.783  11.872 -0.0280 -0.1986  0.0263
16796W        W30210   8.737   7.992   0.263  0.1667 -0.4067 -0.0307
16797W        W30211  14.167  16.778   5.080 -0.1067 -0.2694  0.1629
16798W        W30212  14.773  15.350   1.867 -0.2134 -0.1525 -0.1442
16799W        W30213  17.004   3.095   3.929 -0.0960 -0.0489 -0.0632
16800W        W30214  16.329  15.255   1.180  0.0560  0.3272  0.2989
16801W        W30215  12.411   5.309  12.642 -0.0694  0.2638 -0.1545
16802W        W30216   6.577   8.819   4.142  0.1987 -0.1757  0.1555
16803W        W30217   7.303  12.531   6.265  0.0723  0.3625  0.1143
16804W        W30218  10.836  15.787   3.374  0.0447  0.1587  0.2161
16805W        W30219   1.402   5.363  14.222 -0.2809  0.0079  0.2105
16806W        W30220   0.442   0.806  12.078 -0.0340  0.0166  0.3723
16807W        W30221  10.265   9.983  12.237  0.2645  0.0872  0.0900
16808W        W30222  14.002   5.678  14.449  0.1839 -0.0283  0.1019
16809W        W30223   9.013   5.005   0.186  0.2854  0.0101 -0.0897
16810W        W30224  10.010   3.284   4.563 -0.2570 -0.3158  0.0941
16811W        W30225  18.433  12.767   0.374  0.0912 -0.0205 -0.3117
16812W        W30226  10.278  13.613  12.154  0.0694 -0.2800  0.3536
16813W        W30227   9.355   6.067  15.064 -0.3496  0.0573  0.2055
16814W        W30228   0.116   5.403  10.630 -0.2735  0.1191 -0.2298
16815W        W30229   3.837  14.050  10.356  0.3071  0.1549 -0.2925
16816W        W30230   9.515  11.585  12.915  0.0421  0.0007 -0.2318
16817W        W30231   8.980  17.380  10.518 -0.0547  0.0977 -0.0423
16818W        W30232   7.195  16.867  11.740 -0.2389  0.1807 -0.1866
16819W        W30233   4.458   8.806  14.633  0.0062 -0.0493  0.0498
16820W        W30234   8.137  10.890  13.484  0.0755  0.2094 -0.1646
16821W        W30235   8.177   3.232   0.540 -0.1129  0.0530 -0.0176
16822W        W30236   7.251  17.776   5.772 -0.3055 -0.2046 -0.0636
16823W        W30237  15.323   2.362   0.766 -0.3229 -0.2994 -0.2250
16824W        W30238  18.102   1.951   2.527  0.1500  0.1519  0.4753
16825W        W30239  10.749   9.529  14.773 -0.1005  0.2075 -0.3476
16826W        W30240  14.826  17.350   0.434 -0.1726 -0.3729 -0.0169
16827W        W30241   4.363  11.036  11.079  0.0169 -0.1940 -0.1392
16828W        W30242   9.860   2.047  14.142 -0.0949  0.0270 -0.2619
16829W        W30243   3.534  15.066  12.017  0.0425  0.1147  0.1882
16830W        W30244   7.881  11.812  15.625  0.1471  0.2329  0.1065
16831W        W30245   2.146  11.379  10.773  0.0896 -0.1810  0.0971
16832W        W30246  18.043  13.486   9.921 -0.1192 -0.0389 -0.0208
16833W        W30247  15.867   0.222   2.450  0.2225  0.0903 -0.0757
16834W        W30248   2.423  10.906  12.024 -0.1985 -0.2167  0.1888
16835W        W30249   1.200  17.036   0.223 -0.0617 -0.0779  0.5613
16836W        W30250   1.264  13.168  11.832 -0.0904 -0.0941  0.2067
16837W        W30251   9.273   5.277   0.632  0.0464 -0.0166  0.0758
16838W        W30252   1.184  13.825  13.874 -0.1627 -0.1239  0.1592
16839W        W30253   2.391   0.494   0.517  0.0854  0.1481 -0.0194
16840W        W30254   0.497   3.447  15.534  0.0530  0.2584 -0.2116
16841W        W30255  17.373  12.362   0.353  0.1257 -0.1033 -0.1478
16842W        W30256   6.842   7.130   3.644 -0.1069  0.0921  0.0550
16843W        W30257   3.069  14.544   3.212  0.1852  0.0480  0.2751
16844W        W30258  16.760   4.722  15.529  0.0786 -0.4014  0.1314
16845W        W30259  11.452   0.729   3.941 -0.0065  0.0444  0.1368
16846W        W30260  16.740  13.840   3.829  0.1341  0.0362  0.1171
16847W        W30261   5.794  10.623  15.521 -0.0510  0.1180  0.2347
16848W        W30262   7.475  13.164  12.978  0.0363  0.2367 -0.3979
16849W        W30263   4.039  17.541   1.843  0.0904  0.2264  0.2232
16850W        W30264   1.487   8.058  12.363 -0.1427  0.2070 -0.0041
16851W        W30265  12.167   4.509   3.190 -0.2808 -0.0104  0.2541
16852W        W30266  11.654   9.481   6.060  0.1106  0.0675 -0.0166
16853W        W30267  18.202   2.405   4.131  0.0922 -0.1405 -0.0800
16854W        W30268   1.481  14.757   0.199 -0.3104 -0.3099  0.0341
16855W        W30269   1.638  16.386  15.399  0.0549 -0.1004  0.1205
16856W        W30270   2.609   5.096   4.266  0.0099  0.2821  0.0251
16857W        W30271  10.622   1.697  10.526  0.2239 -0.3447  0.0156
16858W        W30272   6.819   3.332   0.028 -0.1240  0.2343 -0.1706
16859W        W30273   7.073   5.805  12.615 -0.2025 -0.0907  0.1019
16860W        W30274   7.436   7.663   3.219  0.2677  0.0024 -0.0156
16861W        W30275   3.602   2.482  14.611  0.2862 -0.1033  0.3713
16862W        W30276   0.908   8.402   2.641 -0.1360 -0.2097 -0.1807
16863W        W30277   0.083   0.589  15.700  0.0751 -0.0252  0.1474
16864W        W30278  10.712  17.868  14.368  0.3708 -0.1434 -0.0698
16865W        W30279  12.477   1.555   3.501  0.1820 -0.0679  0.0488
16866W        W30280   2.294   1.897  13.622 -0.3093  0.2415 -0.1030
16867W        W30281   0.722  11.688  14.343  0.1456 -0.0374  0.0261
16868W        W30282   1.562   8.047   3.342  0.0423  0.1371  0.0872
16869W        W30283   9.863   0.359   3.377 -0.1658 -0.1088  0.0050
16870W        W30284   0.022  17.118  11.490 -0.0023  0.2976  0.0729
16871W        W30285   4.882  14.396   3.037 -0.2660 -0.1539  0.0282
16872W        W30286   9.529   3.738  14.395  0.0034  0.0592 -0.1386
16873W        W30287  11.565  18.092   3.644 -0.0452  0.1123 -0.0474
16874W        W30288   2.474   5.783  11.200  0.0252 -0.0749  0.2411
16875W        W30289   2.208  11.668  14.336 -0.1441 -0.0692 -0.1395
16876W        W30290   6.376  13.961   2.240 -0.1663 -0.0707 -0.0840
16877W        W30291   9.483  11.377  12.325  0.1548  0.3340 -0.0420
16878W        W30292  17.007   3.772   1.410  0.3760  0.2043  0.0278
16879W        W30293  10.797   8.104   2.394  0.1341 -0.0073 -0.0218
16880W        W30294   1.048   7.165   1.307  0.3768  0.0880 -0.1821
16881W        W30295  11.866   0.356  12.179  0.1478 -0.1062 -0.0342
16882W        W30296   8.726   5.181  16.041 -0.0651 -0.3328 -0.0876
16883W        W30297  11.487   6.631  11.296 -0.1270  0.0605  0.2427
16884W        W30298   2.082  11.207   1.604  0.0831  0.0353 -0.5069
16885W        W30299  12.073  15.319   5.655 -0.2130  0.1048 -0.2017
16886W        W30300  11.012   4.381   4.088  0.1974  0.2566 -0.1156
16887W        W30301  14.615   1.509   2.530  0.2589  0.2614  0.0309
16888W        W30302   6.825   0.937   1.365 -0.1073 -0.1363  0.0653
16889W        W30303   5.192   1.079  14.901 -0.1787  0.0284  0.2670
16890W        W30304   0.222   9.101   2.386  0.0785  0.1590 -0.1393
16891W        W30305   9.758   7.364  12.387 -0.1920 -0.0233 -0.1018
16892W        W30306   5.233   2.473   0.759  0.1375 -0.0567 -0.2090
16893W        W30307   4.935   3.748  12.262 -0.2452 -0.2439  0.3299
16894W        W30308  11.720   5.248   2.647 -0.1134  0.3027  0.1699
16895W        W30309   4.916   4.904  12.675  0.1526 -0.0010 -0.0552
16896W        W30310  13.197  14.135   4.133 -0.1310  0.1072  0.0528
16897W        W30311  13.246   3.592  13.203  0.1384  0.0441 -0.0112
16898W        W30312   7.573   6.717   4.710  0.0741  0.0354  0.3238
16899W        W30313   0.138  14.383   0.866 -0.1421 -0.1180  0.1454
16900W        W30314  14.325  15.230  14.858  0.2155 -0.0143  0.2451
16901W        W30315   9.758  17.076   9.649  0.0698 -0.1160  0.3110
16902W        W30316   9.833   8.374   4.944  0.1015 -0.0062  0.1589
16903W        W30317   3.970  12.024   2.451  0.0115 -0.0700 -0.1533
16904W        W30318   1.670  16.387   6.678 -0.1540 -0.0760  0.1616
16905W        W30319   0.557  16.198   3.919  0.1482 -0.1618  0.2039
16906W        W30320   4.448   5.886  12.033  0.0709  0.4266 -0.1405
16907W        W30321  12.831   1.908  10.519  0.2203 -0.2381  0.0658
16908W        W30322  17.623   7.721   1.328 -0.0194 -0.0950 -0.1212
16909W        W30323   9.456   9.214   4.612 -0.4734 -0.1890  0.4442
16910W        W30324   5.970   5.411  12.152 -0.2701  0.1979  0.1641
16911W        W30325  12.613  16.980   4.146  0.0129 -0.1975 -0.0348
16912W        W30326   5.079   9.475   4.601 -0.3830 -0.0948  0.1228
16913W        W30327  15.683   5.284  12.694 -0.0775 -0.2098  0.1327
16914W        W30328   1.008   4.406  11.172  0.0686  0.0472 -0.1748
16915W        W30329   6.419  12.455  13.512 -0.1316 -0.2354 -0.5825
16916W        W30330  13.856  10.343   0.241  0.1015  0.2278 -0.1927
16917W        W30331  17.172  10.213  11.808  0.0240  0.3648 -0.0669
16918W        W30332  16.376   0.909  15.009  0.3447  0.0781  0.1440
16919W        W30333  10.180   6.432  11.279  0.1087  0.0466  0.1249
16920W        W30334   0.261   3.828   4.163 -0.4456  0.1677 -0.0482
16921W        W30335   0.339   1.985  10.135  0.2540 -0.0499 -0.0964
16922W        W30336  15.075   3.930   6.264 -0.1665  0.0032  0.2349
16923W        W30337   7.201  14.663   0.650 -0.0981  0.1471  0.0896
16924W        W30338  16.798   6.664   0.855 -0.0242  0.2596  0.0913
16925W        W30339   7.892   2.990  14.351  0.0221 -0.2884  0.2016
16926W        W30340   2.811  15.635  11.392 -0.1516 -0.0878  0.3434
16927W        W30341   8.258   6.997  14.247  0.1533 -0.2127 -0.2259
16928W        W30342   2.916  12.932   3.343 -0.2721 -0.1009 -0.1421
16929W        W30343   1.137   2.970  12.618 -0.0309  0.1373  0.0908
16930W        W30344   9.628   1.820   2.487  0.0013  0.2149  0.1443
16931W        W30345   9.066   3.086  12.637  0.1203  0.3702 -0.4022
16932W        W30346  17.931  15.594   3.966 -0.1246  0.1043  0.2161
16933W        W30347  17.014  15.944   0.735 -0.1462  0.1859 -0.0110
16934W        W30348  10.841   4.043  15.376  0.3881  0.2491  0.1399
16935W        W30349  17.918  17.747   0.877  0.0187 -0.0029  0.2339
16936W        W30350  13.111   0.867  13.949 -0.0504 -0.1005 -0.4284
16937W        W30351  13.762  10.537   3.065 -0.1137 -0.0465 -0.2688
16938W        W30352   2.476   3.242  11.564  0.0562  0.1170 -0.0429
16939W        W30353  10.401   1.404  11.374 -0.2201  0.1978  0.1063
16940W        W30354  16.366  10.708  16.183  0.0368  0.0292 -0.0160
16941W        W30355   0.905  11.708  12.964  0.1701 -0.2014 -0.0767
16942W        W30356   5.456   7.592  14.688 -0.0619 -0.0867 -0.0722
16943W        W30357   6.006  13.213   3.458  0.0864  0.1898  0.1229
16944W        W30358  15.688  10.012  15.898  0.0944 -0.0246  0.2111
16945W        W30359  11.173   7.668  14.235  0.1419 -0.0951  0.1460
16946W        W30360   4.686   7.929  16.160  0.1317 -0.2695 -0.2888
16947W        W30361   2.936  14.460   5.616  0.3853  0.1040  0.0006
16948W        W30362  16.016   5.518  11.803 -0.0504 -0.0248  0.0814
16949W        W30363   7.491   6.466  16.126 -0.4442 -0.2179 -0.0329
16950W        W30364   7.428   2.575   3.025  0.0883  0.1646 -0.1145
16951W        W30365  17.857   4.870  13.154 -0.2350  0.1476 -0.0569
16952W        W30366  12.420   4.909  15.712  0.0767  0.1900 -0.0138
16953W        W30367   4.735  17.909  12.806  0.1442 -0.0320  0.0224
16954W        W30368   1.784   9.432  12.645 -0.0970 -0.2044 -0.3517
16955W        W30369   0.701  14.335   1.553  0.1136 -0.0108  0.0474
16956W        W30370  10.631   1.021   4.157  0.1438 -0.1932 -0.1450
16957W        W30371  15.001   2.617   1.733  0.0395  0.0185  0.1440
16958W        W30372   1.458   8.037   5.112 -0.1518  0.1512 -0.0430
16959W        W30373   9.655   6.809  12.562  0.0732  0.1009  0.1397
16960W        W30374   1.728   6.018  10.032  0.2422 -0.1410 -0.0716
16961W        W30375   2.432  10.636  14.254  0.3271  0.0591  0.1060
16962W        W30376  15.023  11.669  10.687  0.1777 -0.0489  0.0191
16963W        W30377  14.397   3.497  14.849  0.1448 -0.1932  0.0685
16964W        W30378   3.314   4.038  12.098 -0.2523 -0.3510  0.0641
16965W        W30379  13.831  14.664  10.860 -0.0127  0.1038  0.0353
16966W        W30380   6.623  17.263   5.254 -0.1373  0.0556 -0.1748
16967W        W30381   4.394   5.573  11.208  0.1236 -0.1333  0.0977
16968W        W30382   0.384   0.137   3.273  0.1014 -0.2099 -0.2034
16969W        W30383   0.375   5.880  12.254  0.3641 -0.3224 -0.1784
16970W        W30384  11.232  11.557   5.308 -0.1191  0.0748  0.3221
16971W        W30385   8.628  13.659   2.115 -0.0238 -0.2393  0.4003
16972W        W30386   0.493  18.238  13.054 -0.1108  0.1163 -0.0765
16973W        W30387  13.645  15.314  13.078 -0.4041  0.1369  0.2414
16974W        W30388   0.494  18.168  14.391 -0.1123  0.0224  0.0425
16975W        W30389   6.713   2.208   2.100  0.3286  0.2616 -0.2909
16976W        W30390   1.924  18.273   1.015 -0.5567 -0.0030  0.3449
16977W        W30391   3.442  13.673  11.481  0.2083  0.0539 -0.0787
16978W        W30392   0.513   3.104  14.304 -0.2659  0.3004 -0.1501
16979W        W30393  10.862  15.129   4.688  0.0460  0.0412  0.0720
16980W        W30394  14.492   8.652   1.726  0.0435 -0.0832 -0.0248
16981W        W30395   7.144  11.978   0.064 -0.0986 -0.1367 -0.3365
16982W        W30396  10.789  15.169  15.334 -0.0321  0.0302  0.3594
16983W        W30397  10.392   2.235   4.532 -0.3581  0.0309  0.2907
16984W        W30398  10.694  17.540   5.356 -0.0889 -0.2328 -0.2073
16985W        W30399   2.274   9.444   6.159 -0.2776  0.0774  0.1089
16986W        W30400  16.230   9.205   5.711 -0.0875 -0.0162 -0.2850
16987W        W30401   6.919  11.345  13.893  0.1721 -0.1076 -0.0247
16988W        W30402   5.776  12.763  11.370  0.4792 -0.0818 -0.0378
16989W        W30403  17.322   5.160  10.837 -0.0232 -0.0438  0.0811
16990W        W30404   1.565  14.183  13.943  0.0480 -0.1193 -0.0069
16991W        W30405  15.675  12.682  10.978 -0.0205  0.1116  0.2596
16992W        W30406   0.524   4.975  12.163 -0.1973 -0.0940  0.1060
16993W        W30407  10.928   6.558   2.323  0.0157 -0.2206 -0.1492
16994W        W30408  13.188   4.902  13.117 -0.1368  0.1438  0.0214
16995W        W30409  17.294   3.347   1.652  0.1544 -0.1440 -0.4378
16996W        W30410  10.898   4.166  10.263  0.2004  0.0391  0.2855
16997W        W30411   4.077   4.809  15.851 -0.0065  0.2870  0.1227
16998W        W30412   5.220   7.280   5.342  0.0701  0.0845 -0.2345
16999W        W30413   6.820   5.274   3.739  0.0186 -0.1032  0.0457
17000W        W30414   9.939   4.067   3.746 -0.3717 -0.0753  0.0186
17001W        W30415   5.762   5.553  15.095  0.2987  0.1002 -0.0301
17002W        W30416  17.105   3.008   1.321  0.1364 -0.0448  0.0077
17003W        W30417  17.069   3.067  11.628  0.0559 -0.0403  0.1877
17004W        W30418  18.260  12.949   3.434  0.0765  0.2612  0.0442
17005W        W30419   4.199   8.353  12.418 -0.4610 -0.2157 -0.1728
17006W        W30420   4.063   9.680  10.842 -0.0575  0.2714 -0.1381
17007W        W30421   6.670   5.624   4.572 -0.0177  0.0577 -0.0093
17008W        W30422   7.701   4.786   0.283 -0.2999 -0.0923  0.2268
17009W        W30423  17.646   9.131   4.085  0.0060 -0.0215 -0.1621
17010W        W30424   5.718   4.483  15.309  0.1061 -0.0125 -0.0987
17011W        W30425  10.932  13.492  14.843 -0.1510  0.0497  0.1489
17012W        W30426  10.814   2.237   3.331  0.0996 -0.0835  0.0363
17013W        W30427   4.392   8.549   2.628  0.0909  0.1848  0.1201
17014W        W30428   9.892  10.668  14.817  0.1981 -0.0208 -0.1282
17015W        W30429   1.326  15.014  11.611  0.1049 -0.0308 -0.1557
17016W        W30430   7.432   6.890  15.094  0.1435  0.0324 -0.0802
17017W        W30431   2.799  16.926  11.529  0.0319  0.2106 -0.1583
17018W        W30432   1.986  13.370  14.194  0.1059 -0.1723  0.1516
17019W        W30433  12.301  13.278  15.928 -0.0769 -0.0116  0.1690
17020W        W30434  17.900   6.761  10.668 -0.2280  0.2275 -0.1903
17021W        W30435  16.491  14.715   2.871 -0.0710  0.1626  0.2256
17022W        W30436   6.388  14.003  16.242 -0.0359 -0.1379 -0.1728
17023W        W30437   3.100   9.636  10.625 -0.0796  0.0131  0.0766
17024W        W30438   9.809  15.574  12.156  0.3310 -0.1113 -0.0382
17025W        W30439  16.147  17.439   3.525  0.3038  0.0879 -0.2255
17026W        W30440   1.212   2.120   5.899  0.2172 -0.3462  0.2533
17027W        W30441   7.853   0.631  13.928  0.1758  0.1047 -0.0154
17028W        W30442  15.149   0.574   2.938  0.3012  0.0461  0.1991
17029W        W30443   6.993   6.299  14.380  0.0881  0.2487  0.0751
17030W        W30444   4.943   3.151   2.470  0.0138 -0.1792 -0.2895
17031W        W30445   8.626  13.862   6.152  0.5496 -0.2748  0.2885
17032W        W30446  10.571   2.253  10.815 -0.0430 -0.3357 -0.3436
17033W        W30447  10.943  15.560   1.414  0.2256 -0.2350  0.0714
17034W        W30448  16.524  12.957  13.283 -0.0920 -0.2186  0.1673
17035W        W30449  13.085  16.344   5.635  0.0428 -0.4420 -0.1203
17036W        W30450   3.287   6.487   5.411 -0.4250 -0.0380 -0.3459
17037W        W30451  14.460  15.234   2.274  0.0038  0.1494  0.2086
17038W        W30452   4.975  15.022  15.100 -0.2501 -0.0600 -0.0157
17039W        W30453  13.090   0.972  11.884  0.0698 -0.3108 -0.1653
17040W        W30454   6.914   2.875   4.207  0.2538 -0.0396 -0.0215
17041W        W30455   8.261  14.139  12.222 -0.3223  0.3481  0.5275
17042W        W30456  14.368  16.893  10.915 -0.2887 -0.2432 -0.0240
17043W        W30457   7.627  12.283   3.069  0.2052 -0.0131  0.0262
17044W        W30458  13.370   2.307   1.561 -0.2689  0.1363 -0.1501
17045W        W30459  12.224   6.267   3.534 -0.1555  0.0961  0.1357
17046W        W30460   4.197   9.865  16.191  0.1584 -0.1420 -0.1371
17047W        W30461  13.135  11.344  13.863 -0.0468 -0.1085  0.1347
17048W        W30462  12.237   8.360   5.755  0.0270 -0.0279  0.1939
17049W        W30463   1.299   9.294   1.719  0.2709  0.3753 -0.0284
17050W        W30464   1.760   4.149   5.722  0.0948 -0.1814  0.1270
17051W        W30465  16.972  14.304  14.348 -0.1670 -0.3090  0.1168
17052W        W30466  11.662  11.626   6.171  0.0012  0.1942 -0.0473
17053W        W30467   4.364  16.530  16.089  0.0608 -0.0527  0.1740
17054W        W30468  15.641  15.505  11.637  0.2493 -0.2220  0.1547
17055W        W30469  10.257  18.243  15.066  0.1506 -0.0020 -0.1572
17056W        W30470  15.681   5.735   1.567 -0.0597 -0.0140 -0.0889
17057W        W30471   1.763  14.100   1.810 -0.0787 -0.1753  0.3142
17058W        W30472   8.734   1.454  13.610  0.0521 -0.0930  0.0527
17059W        W30473   8.929   4.335  11.850 -0.0540  0.2545  0.0179
17060W        W30474  18.260  12.993   4.997  0.5629 -0.2131 -0.1914
17061W        W30475  10.637   2.214   0.129  0.1119  0.1271  0.1176
17062W        W30476   8.605   7.427  15.259  0.0751  0.1925 -0.4547
17063W        W30477  12.134  14.192   4.471 -0.4244 -0.0747 -0.1395
17064W        W30478   0.240   1.593   2.887 -0.2375 -0.1113 -0.0648
17065W        W30479   6.868   9.672  11.453 -0.1243 -0.0484 -0.0733
17066W        W30480  10.993   3.329   5.472 -0.1347  0.0757 -0.1080
17067W        W30481  13.359   2.394   5.082  0.0380 -0.1391  0.1337
17068W        W30482   1.468  10.042  16.147  0.2767 -0.0382 -0.0129
17069W        W30483   9.106  13.758   0.519 -0.1863 -0.1509  0.3375
17070W        W30484   1.884   7.722   3.552  0.1532  0.1243  0.0195
17071W        W30485  16.123  12.020   4.233 -0.0229 -0.0621  0.2616
17072W        W30486   7.963   3.925   2.876 -0.0328  0.3249 -0.0261
17073W        W30487  17.036  17.453  13.958  0.0839  0.2310  0.0133
17074W        W30488   5.372   0.227   4.764 -0.1599 -0.1451  0.0260
17075W        W30489   6.502   3.007  13.088 -0.1898 -0.0439  0.1889
17076W        W30490  17.943   8.112  15.622  0.3367  0.1510  0.0158
17077W        W30491  10.518   4.436   4.950  0.1248 -0.0631  0.1829
17078W        W30492   7.556  14.135  15.971  0.2647 -0.1864  0.0642
17079W        W30493   4.953  12.577  15.415  0.1564  0.2273 -0.0008
17080W        W30494   1.431   7.397  12.210  0.0045 -0.1411 -0.0158
17081W        W30495  17.620   3.254  11.039  0.0440  0.0993 -0.1041
17082W        W30496  16.885  10.112   3.394 -0.0469  0.1587  0.2784
17083W        W30497   8.458   9.934  12.168 -0.0996 -0.0258  0.3143
17084W        W30498  11.671   2.346   4.658 -0.5875 -0.2689  0.1584
17085W        W30499  12.772   5.708  16.149  0.1867  0.0840  0.1157
17086W        W30500   0.005   9.149   1.582 -0.4318  0.0184 -0.0223
17087W        W30501   2.298  15.209  13.373 -0.0410  0.0678 -0.0083
17088W        W30502   0.535  12.218   6.240  0.1722  0.4147  0.0880
17089W        W30503  16.554   5.169   0.360  0.2695  0.0643  0.0274
17090W        W30504  10.801   6.176  11.837  0.1472 -0.1865 -0.2807
17091W        W30505   5.938   4.478   0.010  0.1240  0.3158  0.1565
17092W        W30506  11.385   4.242  12.895 -0.0319  0.0893  0.1404
17093W        W30507   4.064   6.945  11.967  0.2954 -0.1114 -0.0525
17094W        W30508   0.786   7.262   6.057  0.0850 -0.0936  0.0604
17095W        W30509   1.913   3.940   5.243  0.2992 -0.3715  0.0003
17096W        W30510   2.449   8.257  10.719  0.0788  0.1814  0.1680
17097W        W30511   3.393   7.259   5.866 -0.0721 -0.3776 -0.1117
17098W        W30512   2.399  16.663  12.374 -0.0848  0.0407 -0.1397
17099W        W30513   1.360  11.532   0.262 -0.0287 -0.0876  0.0792
17100W        W30514  14.662   1.412  11.735 -0.2175 -0.2538 -0.5154
17101W        W30515   5.753   4.123   1.412  0.1203  0.1721  0.0180
17102W        W30516   4.582  14.478  12.266  0.1369 -0.3970 -0.0175
17103W        W30517   7.345   3.765  11.507  0.0177 -0.0008  0.1913
17104W        W30518   6.040  15.681   4.683  0.2147 -0.3261  0.1723
17105W        W30519   9.888   9.095   5.454 -0.0621  0.0550 -0.4573
17106W        W30520   0.301  10.794   5.944  0.2063  0.4023  0.1139
17107W        W30521   3.086   9.389   4.641 -0.0143 -0.0408  0.0033
17108W        W30522   6.938  15.261  13.964 -0.2114  0.1913  0.0359
17109W        W30523   4.871   7.245  14.217  0.1931 -0.3584  0.1179
17110W        W30524  11.365   4.285   1.472  0.0109 -0.0100 -0.0570
17111W        W30525  11.786  17.822   1.492  0.3216 -0.0095  0.3045
17112W        W30526   1.463  13.244  14.349  0.2783 -0.3435 -0.0486
17113W        W30527  12.750  16.910  10.021  0.0247  0.1203  0.2353
17114W        W30528   3.360  17.282   4.600 -0.0017 -0.2139 -0.2795
17115W        W30529  15.899   1.189   5.215 -0.0100 -0.3821 -0.0874
17116W        W30530  15.761   6.118   3.620  0.0271  0.2822 -0.2078
17117W        W30531  17.905  15.102   2.981  0.2431  0.1764 -0.1871
17118W        W30532  17.035   3.057   6.056  0.0058 -0.1051  0.2870
17119W        W30533  13.045  14.789   2.863  0.1601  0.2825 -0.0212
17120W        W30534   8.148  14.755   2.461  0.1609  0.0680  0.4246
17121W        W30535   3.458   6.136   3.597  0.0478 -0.2254  0.0710
17122W        W30536   3.572   4.554  14.036 -0.0328  0.1693 -0.0668
17123W        W30537  15.247   0.419  14.427  0.1478  0.1247  0.0086
17124W        W30538  10.574  13.461   0.069  0.0835  0.0666 -0.1369
17125W        W30539   8.722   9.669   1.534 -0.2673 -0.0804 -0.1014
17126W        W30540   6.877  10.328   1.283  0.2386  0.2560 -0.2827
17127W        W30541   3.410  12.037  11.678  0.1287 -0.1613 -0.0519
17128W        W30542   7.513  10.399   0.700 -0.2574  0.2701 -0.4297
17129W        W30543   4.476  15.873   3.228 -0.0969  0.0211 -0.1042
17130W        W30544  13.620  14.860   2.142  0.0800  0.2063 -0.1416
17131W        W30545  13.964  17.136  10.769 -0.2454  0.1048  0.1232
17132W        W30546  11.809  14.364  10.755 -0.1062  0.1186 -0.1967
17133W        W30547   4.486   0.828  10.825  0.0219  0.0923 -0.1303
17134W        W30548  13.826  17.015   3.465  0.1768  0.2241 -0.5490
17135W        W30549   8.930   1.946  15.013 -0.0071 -0.2767 -0.0230
17136W        W30550   8.241   4.984   1.528 -0.0731  0.2704  0.2558
17137W        W30551  11.867  15.764  10.857  0.1748  0.0566  0.2791
17138W        W30552  12.749  14.920  14.253  0.0475  0.0538 -0.0468
17139W        W30553  10.397  13.645  14.425 -0.1182  0.1583 -0.0561
17140W        W30554   1.082  16.884   0.658  0.0644 -0.2595 -0.0208
17141W        W30555  15.290  15.074  11.792  0.1427  0.0207 -0.0653
17142W        W30556   0.761  15.676  13.033  0.3258 -0.1005  0.0642
17143W        W30557  16.220   0.033  13.888  0.1920 -0.0499  0.0830
17144W        W30558   9.291   5.842  14.147  0.0153  0.5362  0.0917
17145W        W30559  16.354   2.552   3.154  0.0203 -0.2549 -0.1452
17146W        W30560   0.247  13.278  11.303 -0.0932  0.1380  0.2569
17147W        W30561  10.394  16.562   4.827 -0.1942  0.1830 -0.1496
17148W        W30562   6.012   6.720   1.199 -0.0046  0.6056 -0.2126
17149W        W30563   9.769   3.623   3.863 -0.1714  0.1625 -0.0003
17150W        W30564  17.265  14.696   4.796 -0.0583 -0.0382 -0.0813
17151W        W30565  16.258   1.697   5.086  0.0429 -0.0066  0.0187
17152W        W30566  12.290   4.964  11.111  0.0539 -0.0452 -0.3173
17153W        W30567  13.682   5.259   2.588 -0.1683  0.3518  0.3628
17154W        W30568   1.323   2.571   5.695  0.3469  0.2216  0.0230
17155W        W30569  14.936   4.114  11.830  0.1206 -0.0080  0.2234
17156W        W30570  12.367  15.637  10.972 -0.6133  0.4398  0.0774
17157W        W30571  11.015  11.821   2.242 -0.2478  0.2013  0.1965
17158W        W30572   0.703  16.266  13.141  0.2299 -0.0285 -0.0088
17159W        W30573   2.807   8.485  11.465  0.2105 -0.2728 -0.0338
17160W        W30574   2.791  10.789  11.340 -0.1123  0.0118 -0.0836
17161W        W30575   7.371   6.698  12.445 -0.0130 -0.0544  0.3560
17162W        W30576  10.234  17.670  12.466  0.1769  0.3291  0.2445
17163W        W30577   5.855  15.600   0.524  0.1393  0.3139  0.0844
17164W        W30578   1.079   5.835  12.493 -0.1951 -0.2233 -0.2822
17165W        W30579   5.951   3.455   3.497 -0.0448 -0.0997 -0.0223
17166W        W30580  15.554   7.140  15.717  0.0535  0.1873  0.1004
17167W        W30581  14.239   8.739  15.269 -0.1208  0.0554  0.0067
17168W        W30582   9.083  17.965   5.779 -0.3238 -0.3527 -0.2823
17169W        W30583   0.604   1.549   1.487  0.0128 -0.1249 -0.0253
17170W        W30584   9.324   9.617   3.649 -0.1387 -0.2190 -0.1834
17171W        W30585   9.547   6.315  15.958 -0.2455  0.1203  0.0386
17172W        W30586   6.512  14.120   0.705 -0.1568 -0.2073 -0.1556
17173W        W30587  12.163  13.414   1.050  0.1330  0.2872 -0.0642
17174W        W30588   9.401  16.325  11.211  0.1160 -0.0428  0.1879
17175W        W30589   3.002  10.400   6.631  0.0911  0.1549  0.1246
17176W        W30590  17.990   8.762   2.742 -0.0822 -0.0385  0.3116
17177W        W30591  13.273   2.848   2.150 -0.0232  0.0538  0.3333
17178W        W30592  10.458   0.270   3.482  0.3692  0.2386  0.0028
17179W        W30593   8.003   2.530   3.923 -0.3181  0.1259 -0.0918
17180W        W30594   5.593  11.376   2.313  0.0780 -0.0903 -0.0068
17181W        W30595  14.490   2.783   5.780  0.2061  0.0029 -0.0160
17182W        W30596   9.319   0.216  10.880  0.0711 -0.4977  0.0178
17183W        W30597   3.533   2.341   2.618  0.1137 -0.0122  0.1440
17184W        W30598   3.467   3.127  15.353 -0.0826 -0.3552  0.1353
17185W        W30599   7.848   2.229  10.834 -0.0081  0.1135  0.0239
17186W        W30600  17.163   1.919   1.333 -0.1931  0.1422 -0.0837
17187W        W30601   9.943   7.616   2.495  0.0778  0.2805  0.0579
17188W        W30602  14.216   4.602   4.131  0.0338 -0.0376  0.4215
17189W        W30603   5.982   4.485   3.626  0.1350 -0.0793  0.0109
17190W        W30604   6.638   6.321   2.678 -0.2563 -0.1234 -0.1386
17191W        W30605   9.963  12.046   1.238 -0.3565  0.1532 -0.2794
17192W        W30606  15.853   3.704  15.849  0.1810  0.0854  0.0117
17193W        W30607  11.126  17.223   5.402  0.0171  0.3718  0.0865
17194W        W30608  15.840   3.178   4.864 -0.1385 -0.2103 -0.3410
17195W        W30609  13.058   0.947  10.874 -0.2433  0.0727  0.1086
17196W        W30610  16.835  13.258  15.942 -0.1671  0.3139  0.3316
17197W        W30611  14.784  15.888   3.551 -0.3031 -0.2494 -0.0102
17198W        W30612  11.516  14.895   0.640  0.2609 -0.3501 -0.0426
17199W        W30613  13.348   6.711  15.936  0.1840  0.1717  0.0291
17200W        W30614  13.477   7.067  11.540 -0.0662  0.1630  0.1028
17201W        W30615   4.726   0.055   0.458 -0.0375 -0.1933  0.0402
17202W        W30616  15.969   7.120  16.135  0.1230 -0.0887  0.1126
17203W        W30617   9.394  15.825   5.571 -0.1866  0.0077 -0.2934
17204W        W30618   3.867  17.436   4.339 -0.0968  0.2113 -0.2024
17205W        W30619   7.322   3.732  10.137 -0.2273  0.2173  0.0071
17206W        W30620   8.545  17.631  10.534 -0.3791 -0.2815 -0.0751
17207W        W30621  13.522  16.577  12.457  0.0097 -0.2463  0.3601
17208W        W30622   6.912   8.999  13.488 -0.0229  0.2136  0.3042
17209W        W30623  13.588   6.017  14.427 -0.0126 -0.0486  0.1560
17210W        W30624  17.591   0.781  12.664  0.0178  0.2050 -0.1036
17211W        W30625   7.750  18.254   3.818  0.2015  0.2156  0.4272
17212W        W30626   5.462   9.009  14.461  0.1812  0.2745  0.2158
17213W        W30627   9.062   7.140  15.129  0.0257 -0.1684  0.0795
17214W        W30628   3.217   1.881  15.219 -0.3095 -0.0061  0.3420
17215W        W30629  12.007  13.865  16.154 -0.2946  0.0841  0.1416
17216W        W30630  10.917   7.113   5.327 -0.3299 -0.3441 -0.3269
17217W        W30631  14.588   7.386   3.010 -0.1939 -0.3251 -0.2595
17218W        W30632  11.424   2.082   5.043  0.1549 -0.1772  0.0651
17219W        W30633  17.459  18.307  15.984 -0.1843  0.2513 -0.1621
17220W        W30634   2.505  14.019  10.632  0.0412  0.1633  0.2778
17221W        W30635   0.842  15.278  12.031 -0.0716  0.1020 -0.2195
17222W        W30636   9.698   3.618   4.816 -0.2334  0.2343  0.4126
17223W        W30637  10.861  11.739  14.260  0.0871 -0.0363  0.1512
17224W        W30638   2.075   0.444   4.068  0.2814  0.0750 -0.3744
17225W        W30639  14.621   8.025  11.316 -0.0551  0.2560 -0.0191
17226W        W30640  13.298   9.388   2.403 -0.0078  0.2259 -0.0471
17227W        W30641   4.455   2.173   2.343 -0.3709  0.1567 -0.3310
17228W        W30642  18.243   0.177  13.199  0.1672 -0.0205 -0.1256
17229W        W30643   3.361  17.761  11.278  0.1627 -0.3089 -0.1180
17230W        W30644  13.367   9.096  11.804 -0.0570  0.0646 -0.0417
17231W        W30645  16.927   2.895   1.817 -0.3143  0.2444 -0.0999
17232W        W30646   9.101  12.444   1.551  0.5502 -0.0664  0.1036
17233W        W30647   9.923   6.012  12.714 -0.3170 -0.0744  0.0526
17234W        W30648   1.387  16.541  12.772 -0.1525 -0.0531  0.3844
17235W        W30649  13.615   3.208   3.850 -0.0425 -0.0269  0.0163
17236W        W30650   5.317   1.915  12.670 -0.0999 -0.0371  0.1036
17237W        W30651  11.307   8.278   3.217  0.3581 -0.0391 -0.3464
17238W        W30652  18.048  14.789   5.382  0.2299 -0.0915  0.1272
17239W        W30653   6.355   7.156  11.171 -0.2232 -0.1058 -0.0335
17240W        W30654   1.866   0.680   2.264 -0.0596  0.3269  0.2076
17241W        W30655   5.776  12.680  14.276  0.1991  0.0184  0.0950
17242W        W30656   6.248   4.131   1.101 -0.1555  0.1972 -0.1028
17243W        W30657   4.035  18.326   6.091  0.2014  0.1179  0.1483
17244W        W30658  15.243  11.822  14.657  0.2077 -0.0669  0.0807
17245W        W30659   2.656   1.894  13.961  0.1746  0.0157  0.0505
17246W        W30660   2.855  16.174   5.269 -0.2984 -0.0591 -0.1365
17247W        W30661  15.047  13.443  13.254 -0.2235 -0.3389 -0.2263
17248W        W30662   2.473   1.874   4.551  0.1113  0.4901  0.3447
17249W        W30663  10.466  12.588  10.769 -0.1917  0.2269 -0.0994
17250W        W30664  14.795   7.753   4.333  0.2532  0.1048 -0.1565
17251W        W30665  16.496  17.623  13.895 -0.2920 -0.3897 -0.3451
17252W        W30666   8.907  15.098  13.616 -0.1022 -0.1497  0.1496
17253W        W30667   7.945  11.347   5.590  0.1426  0.3127 -0.3191
17254W        W30668   7.795  13.973   5.148  0.1038 -0.1346  0.0549
17255W        W30669  11.739   6.792  10.888  0.1333 -0.1782  0.4081
17256W        W30670  12.532   6.494   4.920 -0.1680  0.1842  0.2276
17257W        W30671   2.902   2.240   5.157  0.0495 -0.0547 -0.2343
17258W        W30672   8.142  14.062  13.861 -0.2031  0.1083 -0.2045
17259W        W30673  17.543   9.296   6.332 -0.3418 -0.2116 -0.2688
17260W        W30674  14.733  15.868   1.623  0.1342 -0.0738  0.1286
17261W        W30675  16.381  16.705  15.403 -0.0309  0.0078 -0.1935
17262W        W30676  14.930  18.118  13.018  0.1042  0.1210 -0.1583
17263W        W30677   6.152  16.658  13.072  0.1307 -0.2257 -0.3555
17264W        W30678   4.265   1.792   5.642 -0.1222  0.1978 -0.0697
17265W        W30679  17.544  18.113  13.376  0.0037 -0.1931 -0.1086
17266W        W30680  12.215  10.351   4.603  0.4552 -0.1144 -0.2700
17267W        W30681  11.623  17.933  15.522 -0.1771  0.1674  0.1073
17268W        W30682   3.776  15.558  13.504 -0.1218  0.1321  0.2846
17269W        W30683   0.946  13.991   5.461  0.2443  0.3198 -0.4259
17270W        W30684  12.374   0.486  13.038  0.0655 -0.0662  0.0440
17271W        W30685   9.127   3.709   5.995  0.0594 -0.1882 -0.0998
17272W        W30686   6.713  11.769   1.888 -0.0199 -0.0073  0.1803
17273W        W30687  14.888  15.496  13.636 -0.0697 -0.2328 -0.2673
17274W        W30688   1.591  14.553  14.401 -0.1373 -0.4106 -0.0291
17275W        W30689  11.914  16.163   3.343 -0.3317  0.0212  0.1892
17276W        W30690   7.851   4.811   4.408  0.3061  0.1180 -0.0405
17277W        W30691   6.448  13.924  11.238 -0.1553 -0.1145  0.2700
17278W        W30692  14.923   9.333   0.046 -0.1520  0.2818  0.0327
17279W        W30693  15.641   4.087  15.528 -0.0168  0.2121  0.2493
17280W        W30694  16.225   3.003   4.496  0.0132 -0.0509  0.1183
17281W        W30695   6.631   3.513  13.102 -0.2217 -0.1071  0.1493
17282W        W30696   3.152  12.815  11.681 -0.0672 -0.0135  0.1608
17283W        W30697  13.677  17.408  15.962  0.0719 -0.0473  0.1145
17284W        W30698  12.527  10.827   4.281 -0.0548  0.2218 -0.0097
17285W        W30699   7.568  16.316   4.395  0.0634  0.4215  0.0401
17286W        W30700   8.745  16.951  11.240  0.2260 -0.1357  0.2009
17287W        W30701  11.475   9.351  14.432 -0.1899 -0.1522 -0.0523
17288W        W30702  12.266   0.795   1.176 -0.0426 -0.2116  0.6173
17289W        W30703   0.035  15.719  11.109  0.1771 -0.2607  0.2012
17290W        W30704   3.693   2.962   3.644 -0.0806  0.1000  0.1940
17291W        W30705  15.035  10.127  12.296 -0.1312 -0.1836 -0.0176
17292W        W30706  11.900   7.938  13.953  0.2289 -0.0761  0.1131
17293W        W30707  11.724  17.697   5.050 -0.0352 -0.1742  0.1441
17294W        W30708   3.806   9.883   3.612  0.3869 -0.0710 -0.1009
17295W        W30709   9.059   6.461  12.855 -0.1509 -0.0977  0.2900
17296W        W30710  15.414   8.881   1.294 -0.3142 -0.1181 -0.0033
17297W        W30711  15.475  17.157   1.154  0.1107  0.1969  0.1598
17298W        W30712   7.028  11.629  11.368  0.2424 -0.1596 -0.0231
17299W        W30713   4.303   2.171  14.451 -0.2048 -0.0217  0.3086
17300W        W30714  17.600   1.780   3.174 -0.1672  0.1094  0.0829
17301W        W30715  16.996   1.715   4.462 -0.0016  0.1600 -0.1516
17302W        W30716   2.565  17.344   4.238 -0.1593  0.3117 -0.0258
17303W        W30717  14.321   0.512  14.497  0.0265 -0.1468 -0.3295
17304W        W30718   5.512   3.585   4.930  0.1640 -0.2381 -0.1825
17305W        W30719  10.732  16.515  10.612 -0.0952 -0.1242  0.0876
17306W        W30720  11.476   0.176   5.225  0.0049  0.0321  0.2051
17307W        W30721   5.344  16.371   9.969 -0.1463 -0.2798  0.3861
17308W        W30722   6.260  12.649  15.005 -0.1341  0.3266 -0.2851
17309W        W30723  14.436  15.231  10.616  0.1517 -0.2233  0.3180
17310W        W30724  13.189   0.245   5.436 -0.1970 -0.2217 -0.1907
17311W        W30725   4.125  13.139  13.217 -0.1321 -0.1389  0.1005
17312W        W30726   4.106  14.327   4.309 -0.2165 -0.0026  0.0173
17313W        W30727  14.518   6.773   3.383  0.0767 -0.2312 -0.0918
17314W        W30728   6.150   0.782  13.257 -0.2288 -0.1521  0.0112
17315W        W30729  10.400   2.421  13.822 -0.1213  0.4524 -0.2512
17316W        W30730   0.533   0.848  15.720  0.3115 -0.1946  0.3601
17317W        W30731  10.405  17.020  12.887 -0.0489 -0.0588 -0.3200
17318W        W30732  18.268   9.819   5.902  0.0044  0.0304 -0.3508
17319W        W30733  13.563  10.881   6.077 -0.1216 -0.3061  0.0234
17320W        W30734   6.701  13.096   4.602 -0.1542  0.1630 -0.2004
17321W        W30735   7.957   8.021   4.320 -0.0011 -0.0316  0.1095
17322W        W30736  16.061   0.352   1.817 -0.0144  0.1505  0.0569
17323W        W30737   8.421   9.608   0.499 -0.1734  0.1471  0.0377
17324W        W30738   0.772   2.522   3.603  0.1926  0.1251  0.3092
17325W        W30739  10.534   3.129  13.318  0.0396 -0.0820  0.0220
17326W        W30740  15.699   7.826  12.587  0.0127  0.2831 -0.4800
17327W        W30741   1.334  10.619  14.753  0.0369 -0.0717 -0.1098
17328W        W30742  16.990  10.131   0.290 -0.2819 -0.0696 -0.1011
17329W        W30743   2.093   0.736   3.274  0.1310  0.2528 -0.1660
17330W        W30744  12.660   0.603   1.468  0.0940  0.0814 -0.0964
17331W        W30745   9.993  18.355   1.423 -0.0329 -0.0589 -0.0034
17332W        W30746  10.991  12.994   2.529  0.0638 -0.0116  0.0719
17333W        W30747  11.189   3.665   3.000 -0.0544 -0.0950  0.0104
17334W        W30748   8.730   8.269  15.376  0.3374 -0.0808  0.0031
17335W        W30749   0.762   4.003   0.089 -0.1179  0.3899 -0.2031
17336W        W30750  14.377  16.990  12.866 -0.0428  0.1199 -0.2590
17337W        W30751   8.381   6.833  13.273 -0.1662 -0.2802 -0.3848
17338W        W30752   3.081  13.964  14.647  0.0057 -0.0756 -0.0598
17339W        W30753  15.054   3.698   1.475 -0.0822  0.0148 -0.1279
17340W        W30754   1.644   4.747  13.460  0.1313  0.3503  0.0404
17341W        W30755   5.076  14.563  13.578 -0.1412 -0.2588 -0.0371
17342W        W30756  16.300  14.809  14.579  0.2306  0.1006 -0.3033
17343W        W30757   6.696   6.123  10.422  0.1099  0.0877  0.0139
17344W        W30758   4.216  15.321   1.458  0.1594  0.0591 -0.0194
17345W        W30759   6.591   4.349   1.583 -0.0218  0.3816  0.0822
17346W        W30760  14.774   9.782   6.095  0.1337 -0.0368 -0.3174
17347W        W30761   0.151  11.088   1.067  0.3097  0.4236 -0.0137
17348W        W30762   5.874  10.641   5.711 -0.0808 -0.1029  0.0252
17349W        W30763   2.477   8.787   3.539 -0.0748  0.1796  0.1817
17350W        W30764  14.825  12.809  11.399  0.2365 -0.0442  0.0154
17351W        W30765  10.379   9.183  14.137  0.0877  0.0524 -0.1506
17352W        W30766  18.336  17.729   5.074 -0.1612 -0.0645  0.1008
17353W        W30767   8.310  17.457   2.946 -0.0525 -0.2158  0.3301
17354W        W30768   8.077  11.352  14.902  0.0279 -0.3504 -0.0293
17355W        W30769  13.759   3.892   2.207 -0.2101 -0.3799  0.0184
17356W        W30770  12.148  17.057  15.582 -0.2542  0.0230 -0.1161
17357W        W30771  16.573   3.232   3.768  0.2871 -0.0181  0.2277
17358W        W30772   1.156  14.726  14.397 -0.1211 -0.1758  0.0521
17359W        W30773   7.393  11.471   1.182 -0.2913 -0.0802 -0.0611
17360W        W30774  12.251  15.514   4.056  0.0037  0.0429 -0.0839
17361W        W30775  15.157   3.190   1.620  0.1367 -0.2168  0.0591
17362W        W30776  16.246   7.352   3.611 -0.0758  0.1832  0.0990
17363W        W30777   0.807   6.657  10.880 -0.0252  0.0604  0.0101
17364W        W30778  15.005   3.749  14.639  0.0390  0.0294 -0.1811
17365W        W30779   7.415  15.746   0.607 -0.0953  0.0214 -0.2915
17366W        W30780  14.732   0.226  12.240  0.0887  0.4082  0.2231
17367W        W30781  13.289  15.974   5.357  0.0639  0.0470 -0.2441
17368W        W30782   6.825   5.660   0.682  0.1003  0.0989 -0.0663
17369W        W30783  11.343  11.439   0.028 -0.1324 -0.2558 -0.0072
17370W        W30784  17.842  10.581  13.629  0.2268  0.0364 -0.0929
17371W        W30785  17.312   7.159  14.196 -0.2847  0.1655  0.0791
17372W        W30786  14.940   8.524   1.987  0.0000  0.0523  0.2963
17373W        W30787   1.085  18.138  15.712 -0.0371  0.3345  0.1505
17374W        W30788   1.328   5.013   3.542  0.0075  0.2297  0.4154
17375W        W30789   5.437   1.338   1.355  0.0831  0.0829 -0.1543
17376W        W30790   8.455   2.780  11.260  0.0022  0.0726 -0.2742
17377W        W30791  16.189   8.263   1.221 -0.0637 -0.0182  0.2647
17378W        W30792   7.754   4.329   1.225 -0.1973 -0.1109 -0.2893
17379W        W30793   0.272   1.429   4.060 -0.0836 -0.0956  0.1383
17380W        W30794   4.999   5.565  13.687  0.3992 -0.3769  0.1159
17381W        W30795   0.791  10.251  13.741 -0.2425  0.0912  0.2508
17382W        W30796   8.577   9.761   5.287  0.1776  0.1881 -0.1211
17383W        W30797  15.459  14.511  11.118  0.2457 -0.0759  0.3637
17384W        W30798   9.680  12.407   5.029  0.2314  0.1077  0.1344
17385W        W30799   4.918   0.877   5.339  0.0470  0.1252 -0.1847
17386W        W30800  11.656  15.050  13.881  0.0088  0.1340 -0.1755
17387W        W30801   4.299  13.455  12.322  0.0633 -0.0769 -0.1617
17388W        W30802  12.620  14.506  11.702 -0.1381 -0.1110  0.0634
17389W        W30803  17.684  15.015   0.220  0.2369  0.1786 -0.1368
17390W        W30804   3.645  13.503   1.266  0.2150  0.2968 -0.3328
17391W        W30805  15.309  10.343   4.021  0.1533  0.0320 -0.1563
17392W        W30806   1.288  13.116  12.899  0.1585  0.0819 -0.1660
17393W        W30807   2.550   0.735   1.321 -0.2436  0.0229  0.1565
17394W        W30808   4.979   2.720   4.991  0.3469  0.1175  0.0250
17395W        W30809  14.696   9.069   4.746  0.0082 -0.2294  0.0750
17396W        W30810  14.909   4.495   3.674 -0.2171  0.1269 -0.1429
17397W        W30811   5.922  15.300  14.358  0.0820  0.2402 -0.0286
17398W        W30812  13.926  18.256  14.080  0.0927 -0.0066  0.2455
17399W        W30813   8.599  12.209  16.116 -0.0280 -0.0763  0.0514
17400W        W30814   6.808  15.076   5.063  0.1573 -0.0141 -0.2023
17401W        W30815   9.094  15.619  12.903  0.0410 -0.1363  0.2332
17402W        W30816  12.460  12.722   2.153 -0.2361 -0.2591 -0.2270
17403W        W30817  14.450   4.427   5.064  0.1674 -0.3479  0.0589
17404W        W30818  13.993   8.698  12.511  0.1341  0.0352  0.1435
17405W        W30819   2.907   7.277   1.491  0.0994 -0.0707  0.0339
17406W        W30820   6.022  10.908   6.341  0.3499  0.1219 -0.0677
17407W        W30821   0.942  17.667   6.584 -0.1961  0.0751  0.0364
17408W        W30822   9.654   7.581   4.656  0.0339 -0.0874 -0.0514
17409W        W30823   3.587   1.190   1.256  0.1109  0.5554  0.0641
17410W        W30824  12.270   9.906   0.246 -0.2067 -0.0438 -0.0207
17411W        W30825  11.315  13.042  12.449  0.0438  0.0641  0.1434
17412W        W30826  16.204   0.400  11.112 -0.1062  0.0864  0.1741
17413W        W30827   2.273   8.439  13.640 -0.0755 -0.1662  0.1743
17414W        W30828  15.760   8.515  16.039  0.1110 -0.4192 -0.1967
17415W        W30829   1.521   6.170   0.942  0.0694  0.0775 -0.0047
17416W        W30830  14.760  13.815  15.972 -0.1552  0.4389  0.2403
17417W        W30831   3.357   6.692   5.862  0.1050 -0.1499  0.0104
17418W        W30832   8.505   5.754   0.333 -0.0592  0.0844 -0.2527
17419W        W30833   7.340   9.952   0.933  0.1009 -0.0836 -0.0172
17420W        W30834  17.002   6.215   1.959 -0.1730 -0.1339  0.0385
17421W        W30835   5.697   9.535  10.975  0.0194 -0.0507  0.4920
17422W        W30836   4.670  16.924   1.774 -0.0900 -0.1587  0.1027
17423W        W30837  14.175  17.868   5.675  0.0770  0.0158 -0.0906
17424W        W30838  12.620   6.468   3.119 -0.1309 -0.1928  0.2649
17425W        W30839  17.443  12.336   0.886  0.2439 -0.2569 -0.0634
17426W        W30840   6.026   3.969  12.562 -0.2555  0.0950  0.0794
17427W        W30841  17.334  12.976   5.411 -0.3801  0.1664 -0.2294
17428W        W30842  12.623  16.055  11.200 -0.4484 -0.0740 -0.1689
17429W        W30843  17.206   0.300   4.561 -0.0067 -0.0726 -0.0373
17430W        W30844   4.478   5.657   4.870  0.3977  0.2488  0.2585
17431W        W30845   8.064   2.977   2.985  0.1592  0.0021 -0.4367
17432W        W30846  13.693   1.068   4.870 -0.0611 -0.0696 -0.2383
17433W        W30847   1.646  16.309  12.243 -0.1123 -0.0750  0.0677
17434W        W30848  14.246   2.333  10.810  0.3692  0.1675  0.0730
17435W        W30849  10.096   2.149  10.889  0.0687 -0.1700 -0.1053
17436W        W30850   1.657   3.809   1.158  0.1109  0.0059 -0.0602
17437W        W30851   3.423   7.061   3.566  0.0591  0.2271  0.1050
17438W        W30852   0.305   3.633   3.715  0.2035 -0.0447  0.0754
17439W        W30853  13.152  12.488  14.417 -0.1646 -0.1930 -0.1419
17440W        W30854  14.887  14.386   3.317 -0.2513  0.0112  0.2785
17441W        W30855   6.801   7.417  16.260  0.0314  0.0988 -0.2536
17442W        W30856   0.902  17.592   2.097  0.3337  0.0223  0.3731
17443W        W30857  18.446   5.766   3.625  0.0529  0.0670  0.0040
17444W        W30858  11.674  14.840   1.562 -0.1395 -0.1535  0.1777
17445W        W30859   1.676  10.897   2.942 -0.0938  0.0956  0.3658
17446W        W30860   5.113  13.257   3.679 -0.0358  0.1965  0.0576
17447W        W30861   1.084   7.802   4.718 -0.0365 -0.0859  0.0595
17448W        W30862   0.557  11.157   5.554 -0.1706 -0.0063 -0.2533
17449W        W30863  10.007  16.558  14.970 -0.1502 -0.5405  0.1082
17450W        W30864  17.517  11.920   3.505 -0.1797 -0.2458 -0.1337
17451W        W30865  14.571  11.371  15.522 -0.4444 -0.1609 -0.0606
17452W        W30866   6.510  10.281   5.093 -0.2020 -0.0883  0.0846
17453W        W30867  10.166  14.251  12.777  0.1587  0.4084  0.1352
17454W        W30868  15.511   7.974  11.736 -0.1668 -0.1352 -0.2312
17455W        W30869  15.724   6.201   4.591  0.0245 -0.1298  0.1287
17456W        W30870  17.993  11.626   4.147  0.2464  0.2230  0.0327
17457W        W30871   1.120  11.833  13.409  0.2702  0.0161  0.1009
17458W        W30872  16.281   2.762  14.727  0.1731 -0.0482  0.1079
17459W        W30873   2.321  13.932  13.384 -0.0703  0.3223 -0.2526
17460W        W30874   6.695   5.827  11.030 -0.1079  0.3640  0.1423
17461W        W30875   4.264  16.449  12.011  0.3584 -0.3300 -0.0827
17462W        W30876   7.818  13.821  11.847  0.3761  0.0970  0.0977
17463W        W30877  13.434  12.980  13.617  0.1747 -0.2359  0.0154
17464W        W30878  17.999   1.860  13.310 -0.1321  0.0640  0.1874
17465W        W30879   1.550   3.062   4.513 -0.1904  0.1428  0.1436
17466W        W30880   2.917  16.912   4.430  0.1222  0.2391 -0.0442
17467W        W30881   8.102  14.372  12.657  0.0293  0.3315  0.0215
17468W        W30882   7.614  15.596  15.947  0.1486 -0.1037 -0.3014
17469W        W30883   1.328   7.608   1.596  0.2047 -0.0019 -0.0098
17470W        W30884  17.007   6.254   3.764 -0.0865  0.0512 -0.2713
17471W        W30885   2.876   0.614   4.565  0.0134  0.0539 -0.0525
17472W        W30886  11.158   6.330  13.583  0.3594 -0.0533 -0.0587
17473W        W30887  10.575   1.421   2.696  0.1762  0.3916 -0.0574
17474W        W30888   2.963  10.933  15.997 -0.0780 -0.5572  0.2998
17475W        W30889  14.916   7.228   5.973  0.0644 -0.1191  0.1010
17476W        W30890   7.741  11.460   2.426 -0.0506  0.2417 -0.1179
17477W        W30891   0.664   1.537  13.482  0.0720  0.1402  0.2173
17478W        W30892  13.679  12.366  15.332  0.1356 -0.0223  0.1225
17479W        W30893   4.829   1.443  13.727 -0.1493  0.0897 -0.0962
17480W        W30894  10.902   0.383   0.310 -0.0023 -0.0430 -0.3323
17481W        W30895   8.051   9.479  13.574  0.0146  0.1457  0.0092
17482W        W30896   3.417  13.818  15.396  0.1084 -0.0439  0.1569
17483W        W30897   5.806  12.149   5.614  0.0835 -0.1978 -0.1344
17484W        W30898   6.050   8.634  10.957  0.3451 -0.0580 -0.0057
17485W        W30899  11.887   8.925  12.995  0.1405 -0.1757 -0.2029
17486W        W30900   9.364   8.337  12.301 -0.0126 -0.2565  0.1521
17487W        W30901   1.719   4.033  13.941  0.1915  0.4392 -0.2521
17488W        W30902  15.680   8.968   1.672  0.1384  0.0103  0.1283
17489W        W30903  10.671  15.522  10.233  0.1699 -0.0903 -0.2873
17490W        W30904  14.646  12.518  11.872  0.0296  0.0103  0.0130
17491W        W30905   4.694   4.665   0.266  0.1565  0.2223  0.1191
17492W        W30906  16.427  16.364   2.898  0.0271  0.0314 -0.0617
17493W        W30907  17.291   5.282   5.713 -0.2094 -0.1224  0.1129
17494W        W30908   8.568   7.256  11.987  0.0606  0.1774  0.0783
17495W        W30909  15.193  15.200   0.389  0.0712 -0.0047  0.3841
17496W        W30910   5.376  15.515  15.846  0.1998 -0.1766 -0.0089
17497W        W30911   1.056  10.242  11.692  0.2073  0.2385  0.2348
17498W        W30912  11.599   7.438  15.392  0.0722 -0.2580 -0.0049
17499W        W30913  16.122   2.606   4.816 -0.1020 -0.1558 -0.1338
17500W        W30914  17.406  15.627  11.697  0.0972  0.3473 -0.0486
17501W        W30915  10.070   0.105   5.582 -0.0684  0.1642  0.0912
17502W        W30916  15.626  13.273  11.726  0.2735  0.1950  0.4070
17503W        W30917   6.616  10.144   2.983 -0.3086 -0.0965 -0.1012
17504W        W30918   0.254   9.952  12.072  0.2039 -0.1089 -0.2913
17505W        W30919   2.442  16.025  15.270 -0.2298 -0.0280  0.0888
17506W        W30920  11.243  13.636  11.636 -0.0274 -0.3133 -0.2668
17507W        W30921   2.577  12.059  12.900 -0.2178  0.0913 -0.1959
17508W        W30922   7.935  17.555   0.508 -0.1349  0.4019 -0.0852
17509W        W30923   7.608  17.554   4.947 -0.0020  0.1470  0.1914
17510W        W30924  17.431  14.608  10.638  0.0136 -0.2687 -0.2285
17511W        W30925   1.355   8.782  12.913  0.2069 -0.1992  0.0954
17512W        W30926   4.545  11.673   3.786  0.2203  0.1121  0.1746
17513W        W30927   1.420   5.932  13.706  0.1604 -0.2251 -0.1187
17514W        W30928  11.461   6.245   5.955 -0.3021 -0.0090 -0.1811
17515W        W30929  13.039   7.335  16.165 -0.1124 -0.0209  0.0893
17516W        W30930  17.034   6.933   4.385  0.3057  0.1396  0.1766
17517W        W30931  15.507  10.981   0.820  0.0471  0.0127 -0.2399
17518W        W30932   2.128   7.428  15.496 -0.3582  0.1367 -0.1187
17519W        W30933  10.160   3.817  11.877  0.0179  0.1090 -0.1366
17520W        W30934  11.708   2.766  11.658  0.0710  0.3446  0.3013
17521W        W30935  11.977  11.999  15.736 -0.2071 -0.0779  0.1515
17522W        W30936   0.765  10.720  12.054 -0.1498 -0.1137  0.1127
17523W        W30937   7.142   7.186  10.952 -0.1325  0.1248 -0.3143
17524W        W30938  17.377   4.082   0.237 -0.0700 -0.1052 -0.1065
17525W        W30939  13.907   6.173   6.210  0.0091 -0.1396 -0.1611
17526W        W30940   5.715  10.824   3.125  0.0605 -0.0105  0.0164
17527W        W30941   8.992   7.497  16.085  0.3420  0.1338  0.0304
17528W        W30942   3.556   1.862  16.158 -0.1045 -0.0579 -0.1039
17529W        W30943   2.693   8.206  13.953 -0.2794 -0.1590  0.0311
17530W        W30944   0.410  14.786   5.490 -0.1864  0.0909 -0.1858
17531W        W30945   1.630  18.351   1.699 -0.0469  0.1385  0.1830
17532W        W30946  18.011  18.102   0.311 -0.1023 -0.0973 -0.1998
17533W        W30947   9.646  12.940   2.133 -0.0207 -0.4154  0.2253
17534W        W30948  11.426  18.052   5.313  0.0174 -0.1324  0.0297
17535W        W30949  10.242   3.351  14.670 -0.3011  0.0430 -0.3025
17536W        W30950   9.011   5.955   2.982  0.1689  0.1563 -0.1888
17537W        W30951  10.415   1.804   9.951 -0.3770  0.0663 -0.0381
17538W        W30952   2.877  13.252  16.046  0.0775 -0.2716 -0.2108
17539W        W30953   1.120  15.036  14.776 -0.0588 -0.0385  0.1376
17540W        W30954  15.638  10.291  13.618  0.3816 -0.0568 -0.0320
17541W        W30955  17.937  11.688   2.182 -0.0057 -0.3778  0.2904
17542W        W30956  11.741  16.626   3.331 -0.0391 -0.1091 -0.0814
17543W        W30957   4.131   4.456  14.384  0.0970 -0.0775  0.1466
17544W        W30958  16.046  17.806   4.861  0.0304 -0.1023  0.0682
17545W        W30959  18.262   2.843  13.312  0.2424 -0.3746 -0.1489
17546W        W30960   5.702   6.870   6.473 -0.0922  0.0815 -0.1269
17547W        W30961   8.122  15.963   1.888 -0.0093 -0.3025  0.0124
17548W        W30962  18.287   9.981   4.830  0.0640 -0.0121 -0.1225
17549W        W30963  10.951   7.968   0.426  0.0643 -0.0454  0.1804
17550W        W30964  14.185  15.190   5.256 -0.3667 -0.1712  0.2341
17551W        W30965   7.343   2.596   3.960 -0.2406 -0.0454  0.1948
17552W        W30966  11.027  10.239  12.363 -0.2441 -0.0689  0.1290
17553W        W30967   1.787  12.523  11.004 -0.1369  0.1421 -0.0087
17554W        W30968  16.768   1.173   5.670 -0.0294  0.1421  0.1232
17555W        W30969  12.548   6.358  13.566  0.1547  0.1115  0.0713
17556W        W30970  16.775   5.263  14.869 -0.0481  0.3044  0.0139
17557W        W30971   0.126   3.888   2.981  0.1556  0.0292  0.2878
17558W        W30972  16.187   1.987   5.519 -0.2550  0.1619  0.0439
17559W        W30973  11.733   6.705  16.108 -0.0857 -0.1401 -0.1361
17560W        W30974  17.111   8.517   3.813 -0.0232 -0.1589 -0.3356
17561W        W30975  11.584  14.850  10.462 -0.0306  0.0332  0.1941
17562W        W30976  13.489   8.139   1.353  0.1800  0.0125  0.1475
17563W        W30977  17.964  14.015  12.530 -0.0422 -0.1546  0.0138
17564W        W30978  10.062   8.339  12.960  0.1830  0.3646  0.0503
17565W        W30979  16.006  15.348  13.242 -0.1485 -0.0945  0.0604
17566W        W30980   2.820  17.772  11.758 -0.1976 -0.1090  0.2681
17567W        W30981   3.788   2.852  15.108  0.0184  0.0651 -0.1513
17568W        W30982  15.971   4.626   4.488 -0.3823  0.1606  0.1008
17569W        W30983   8.705  16.199   5.011 -0.1814 -0.1112  0.0483
17570W        W30984  13.351  16.041   5.880 -0.2633 -0.1889  0.1217
17571W        W30985  15.182  11.121  11.328  0.0180  0.0857 -0.0752
17572W        W30986   3.330  15.661   1.957  0.0561 -0.0612 -0.2800
17573W        W30987  10.831  18.214  16.068 -0.2290  0.2719  0.1355
17574W        W30988  17.647   4.777  11.098 -0.2866 -0.1819  0.1432
17575W        W30989  11.902  15.526  13.941 -0.2914 -0.2713 -0.1509
17576W        W30990  13.474   2.172   5.511  0.0171 -0.0811 -0.2582
17577W        W30991   8.497  11.364  15.840  0.0159 -0.0676  0.0214
17578W        W30992  18.444   6.376  15.879 -0.2363  0.2454  0.2007
17579W        W30993   6.756   6.041   9.871 -0.1223  0.0315  0.0912
17580W        W30994   9.412  18.301  11.651 -0.1165 -0.0537  0.2375
17581W        W30995  13.836  17.326   4.527  0.1343 -0.3188  0.3018
17582W        W30996  17.317   3.408  10.500  0.1334  0.0064 -0.0009
17583W        W30997  12.183  14.434   6.122 -0.2874 -0.1563  0.2478
17584W        W30998  15.651  16.507   1.735 -0.0952  0.0451  0.0883
17585W        W30999   8.251   6.756  13.790 -0.1665 -0.3245 -0.2382
17586W        W31000   5.988  10.171   1.690  0.1877 -0.1615 -0.0034
17587W        W31001   5.697  14.558   0.620 -0.1946  0.1718 -0.0373
17588W        W31002  10.411  15.867  14.172 -0.0079 -0.2825  0.0730
17589W        W31003   3.283  16.535  12.760 -0.3072  0.2866 -0.4994
17590W        W31004  12.763  11.329  10.093  0.1765 -0.1776 -0.0971
17591W        W31005   3.335   1.161  10.990 -0.1296 -0.1018  0.0812
17592W        W31006  14.055   1.154   0.982 -0.1544  0.2375 -0.1386
17593W        W31007  14.161  18.026  15.097 -0.2156  0.0545 -0.0852
17594W        W31008   5.206   1.701   0.050 -0.0265 -0.1271 -0.0237
17595W        W31009  14.971  15.002  10.859 -0.0437 -0.2790 -0.1482
17596W        W31010   5.718   5.196  14.698 -0.3757  0.0195  0.1214
17597W        W31011  12.229   5.037   4.556  0.2244  0.0610 -0.1254
17598W        W31012  14.251  16.956   3.062  0.2044 -0.1992 -0.3921
17599W        W31013   0.365  11.850  14.746 -0.0033  0.1441  0.0401
17600W        W31014  11.876   3.380  10.774 -0.1590  0.2138 -0.3086
17601W        W31015   3.708   7.344  15.671  0.0200  0.3640 -0.1624
17602W        W31016   1.096   8.399   2.125  0.2899 -0.0223  0.0723
17603W        W31017  11.702  11.446  11.040  0.1477  0.1051  0.0786
17604W        W31018  14.012   4.871  15.758 -0.2466 -0.1417 -0.2436
17605W        W31019   4.164  12.930  11.484  0.1677  0.1043  0.1218
17606W        W31020  10.780  14.967  13.458 -0.0844  0.0276  0.3158
17607W        W31021  13.823   6.594  16.182 -0.0439 -0.0308  0.1375
17608W        W31022  10.092   0.420   1.662  0.1789 -0.1059  0.2875
17609W        W31023   8.853   8.707   2.418 -0.1227  0.1450 -0.2219
17610W        W31024  17.486  10.855   2.362  0.2583  0.0878 -0.0783
17611W        W31025  16.317   3.403   1.764 -0.4898  0.1850 -0.1355
17612W        W31026   8.672   1.130  11.839  0.0042  0.3483  0.3242
17613W        W31027  17.611  17.910  11.023  0.5150 -0.2831  0.0056
17614W        W31028  12.596   2.678   4.120  0.2034 -0.3149  0.0319
17615W        W31029  13.087   9.131  10.290 -0.0003  0.0080 -0.1643
17616W        W31030  18.068  14.357  11.819  0.1144 -0.1254 -0.1759
17617W        W31031   7.405   1.922   5.524 -0.0681  0.0967  0.0039
17618W        W31032  11.024   1.187  14.706 -0.0191  0.1178  0.0461
17619W        W31033   9.797   0.938   4.108 -0.0926 -0.2764 -0.0788
17620W        W31034  16.523  14.249   4.666  0.0208  0.1479 -0.0126
17621W        W31035   9.543   6.643  11.234  0.0262  0.1849 -0.2912
17622W        W31036  17.113  14.893   5.352  0.0329  0.0652 -0.0897
17623W        W31037   8.983  13.376  15.601  0.2406 -0.0057 -0.1079
17624W        W31038   4.673   1.465  15.379 -0.1096 -0.1979  0.0163
17625W        W31039   5.870  10.687  12.871 -0.1053  0.0850 -0.0427
17626W        W31040  12.023  14.033  11.131 -0.3322 -0.1325 -0.0653
17627W        W31041  14.493  16.899   0.199 -0.1061 -0.3238 -0.2646
17628W        W31042   8.966   9.226  10.657 -0.0332  0.0397  0.1406
17629W        W31043   0.206   0.132   5.762 -0.2960 -0.0713 -0.1671
17630W        W31044  18.120   1.045   3.798  0.1379 -0.0347 -0.0088
17631W        W31045  14.665   1.203   4.829 -0.1282  0.0709  0.0577
17632W        W31046   3.415  15.162   0.724 -0.1307 -0.0857  0.2290
17633W        W31047  12.436  12.662  13.249 -0.0543 -0.0609  0.1113
17634W        W31048  16.700   7.265   6.822  0.0859 -0.0187 -0.1861
17635W        W31049   9.604   5.861  13.621  0.1810 -0.1249  0.1593
17636W        W31050   8.643  13.924   1.589  0.0121 -0.0164 -0.3151
17637W        W31051   6.592   1.146   3.184 -0.0652 -0.1058  0.1006
17638W        W31052   4.835   5.059   1.974 -0.0281 -0.0925  0.1482
17639W        W31053   7.071  11.091   3.258  0.0662  0.0230  0.0512
17640W        W31054   6.080  10.911   3.478 -0.0082 -0.0014  0.0196
17641W        W31055  12.724   2.348  12.013  0.0724 -0.0012 -0.0328
17642W        W31056   0.549   3.440   4.922  0.0210 -0.0629  0.1593
17643W        W31057  16.645  13.147   4.158 -0.5153  0.2202  0.3198
17644W        W31058   2.586   4.894   3.789 -0.0972 -0.1574  0.1255
17645W        W31059   8.162   2.677  12.530  0.3935 -0.0313  0.2683
17646W        W31060  14.575   1.259   0.399 -0.2153  0.0686  0.0288
17647W        W31061   2.495   8.778   0.632  0.0448 -0.0975 -0.0255
17648W        W31062   2.674   9.766   2.692  0.2056  0.1437  0.0522
17649W        W31063   7.998  11.355  15.826 -0.2364  0.0944  0.1641
17650W        W31064  15.541   2.624  15.126 -0.0803  0.0226  0.1651
17651W        W31065  11.837  12.903  16.187  0.1572  0.3529  0.2487
17652W        W31066  16.036  11.774  14.908 -0.3125  0.2373 -0.0227
17653W        W31067   6.773   8.985   1.594 -0.1721  0.0302 -0.0534
17654W        W31068  15.937   7.094   1.163 -0.0907  0.5039  0.0658
17655W        W31069   0.132  10.600   5.511 -0.1002 -0.0404 -0.1128
17656W        W31070  16.514  15.277   0.534 -0.2770 -0.1183 -0.1326
17657W        W31071  13.070   2.546   3.370  0.2475 -0.0265  0.4819
17658W        W31072   6.279   6.116  14.480  0.0895 -0.0159  0.2053
17659W        W31073  13.742   2.981   2.246  0.2134 -0.4032  0.1867
17660W        W31074  11.127   7.489   2.723 -0.0641  0.2022  0.0152
17661W        W31075   9.577   0.244  14.366 -0.0511  0.0860 -0.0373
17662W        W31076   0.415   5.741   0.147 -0.3066  0.0672  0.4961
17663W        W31077   8.796  11.265  11.720 -0.1351  0.0186  0.1512
17664W        W31078  15.042  10.829   0.939 -0.1124  0.4943  0.0616
17665W        W31079   4.778   7.192   5.078 -0.1212  0.1045  0.0947
17666W        W31080   9.136  12.122  11.138  0.0495 -0.0657 -0.3267
17667W        W31081   5.255   0.049   6.436 -0.1551 -0.0188 -0.1723
17668W        W31082   5.021  14.161  12.226  0.0168  0.0540  0.3386
17669W        W31083   2.555  18.124  11.520  0.0868 -0.4428  0.4636
17670W        W31084  12.526  15.241  15.191  0.0836 -0.2286 -0.2681
17671W        W31085   6.274   8.515  14.240  0.0593  0.2782  0.1364
17672W        W31086   1.814   0.412  11.851  0.2499 -0.1653 -0.0527
17673W        W31087  12.148   7.384   6.009 -0.1625 -0.0855 -0.0709
17674W        W31088   5.412  12.004   3.856 -0.0647  0.1660  0.0931
17675W        W31089   5.191  15.088  15.604 -0.0344 -0.1601 -0.0045
17676W        W31090  14.917  12.160  11.382  0.0123  0.1504  0.0272
17677W        W31091   7.549  16.734   3.698  0.3652  0.0929 -0.0540
17678W        W31092   7.945  17.945   0.856  0.2762  0.1312 -0.3215
17679W        W31093  12.511  12.375  14.929  0.1301 -0.2623  0.1829
17680W        W31094   0.996   8.097  12.445 -0.0040  0.0442  0.1121
17681W        W31095  11.727   1.380  13.070 -0.0707  0.0255 -0.2067
17682W        W31096   8.219  11.576  13.039  0.1354 -0.1362 -0.1333
17683W        W31097  15.581  17.931   0.850 -0.0383  0.2284 -0.1204
17684W        W31098  13.596   7.055   2.355 -0.0468 -0.1764  0.3367
17685W        W31099   1.738   2.690  15.812  0.0472  0.0024 -0.0437
17686W        W31100  10.259  12.060  10.735 -0.0812 -0.1432  0.1478
17687W        W31101   7.608   4.417  15.969  0.1267 -0.1843 -0.4270
17688W        W31102   3.426  13.566  14.065  0.2097 -0.3361  0.4731
17689W        W31103   4.220  18.035   5.171  0.1936 -0.0779  0.3052
17690W        W31104   0.933   5.858  15.529  0.3180 -0.3007  0.0126
17691W        W31105   6.596   4.022   3.355  0.0746  0.0224  0.3657
17692W        W31106   5.848   4.466   1.070  0.1751  0.0599 -0.2227
17693W        W31107  18.256  12.372  12.835 -0.1636  0.3776 -0.0693
17694W        W31108   7.720   4.119  15.034 -0.0778  0.0208  0.0428
17695W        W31109   0.466  12.914  14.112 -0.2081  0.1221  0.1971
17696W        W31110  13.819  18.181  14.590  0.0571  0.1635 -0.0376
17697W        W31111   2.933   3.323  11.309  0.0719 -0.1630  0.3212
17698W        W31112   7.297  11.686  12.779 -0.0629 -0.0177 -0.0894
17699W        W31113  13.535  11.140   0.168  0.0956 -0.1534  0.1650
17700W        W31114   9.763   0.488   4.432  0.0317  0.0745  0.0214
17701W        W31115   5.329  11.734  14.741 -0.0922 -0.1032 -0.0865
17702W        W31116   5.201   1.204   5.747 -0.0190 -0.2090  0.2342
17703W        W31117  12.085  13.756  14.067 -0.0015 -0.1819 -0.0428
17704W        W31118   5.383   3.233   2.170 -0.0880 -0.1077  0.0796
17705W        W31119   0.264   8.266   3.265 -0.2876 -0.0231  0.0143
17706W        W31120  15.002   2.730  10.871  0.0913  0.0890 -0.0449
17707W        W31121  16.367   1.073  16.174 -0.1904 -0.0392  0.2291
17708W        W31122  12.341  12.120   1.883 -0.1554  0.0291  0.0633
17709W        W31123   1.220  16.256   1.244  0.0408 -0.2412  0.0241
17710W        W31124   7.115   7.567  11.757  0.0721 -0.1198 -0.3832
17711W        W31125   6.584   1.086  14.150 -0.0934  0.1204  0.0112
17712W        W31126   1.613   4.776  11.506 -0.2868  0.2502  0.0913
17713W        W31127   6.478   6.767   1.372 -0.2928  0.1338 -0.1813
17714W        W31128   6.984  12.567  11.878  0.1975  0.0449  0.1551
17715W        W31129   4.985  17.940  14.627 -0.1167  0.1171 -0.2984
17716W        W31130   2.594  11.296  15.900  0.4018 -0.1539 -0.3013
17717W        W31131  12.821   1.277   9.716 -0.0532  0.0435 -0.2549
17718W        W31132   3.274   1.897   2.370  0.2368 -0.0879 -0.1138
17719W        W31133   3.733   4.160   0.728 -0.0819 -0.0468  0.1901
17720W        W31134   6.704   7.468  10.855 -0.3850  0.0430  0.0404
17721W        W31135   3.245  10.093   1.625  0.2095 -0.0798  0.1266
17722W        W31136   5.525   7.108  15.011 -0.0537 -0.0722 -0.0908
17723W        W31137   3.660  11.012   3.618  0.0598  0.1004 -0.0017
17724W        W31138   6.397   4.696   6.043 -0.0668  0.3155 -0.0339
17725W        W31139   4.468   0.611   5.543  0.0790  0.1584  0.1757
17726W        W31140   8.901  14.401  13.136  0.0947 -0.0008  0.1269
17727W        W31141   3.542   0.422   0.402 -0.2462 -0.1464 -0.0635
17728W        W31142   6.446   4.276  11.552 -0.1692 -0.3137 -0.1748
17729W        W31143  16.819   5.379   5.647 -0.0916 -0.3436  0.4642
17730W        W31144  12.328  13.047   3.662  0.1943 -0.3283  0.1868
17731W        W31145   9.810   7.959   5.810  0.1434 -0.3403 -0.2431
17732W        W31146  11.527  14.899  10.981  0.0928 -0.0871 -0.0408
17733W        W31147  14.481   9.999   1.450 -0.1403  0.1441 -0.0340
17734W        W31148  11.067   9.334   1.515  0.1568  0.4948  0.1936
17735W        W31149   1.148  15.807   5.026 -0.2437 -0.1978  0.1050
17736W        W31150  11.656  11.830  14.033  0.2294  0.2362  0.0613
17737W        W31151   6.965  14.094  13.174 -0.0773 -0.1669  0.1250
17738W        W31152   1.052  17.441   5.708  0.2121  0.1395 -0.1341
17739W        W31153   1.850  14.204  13.435 -0.2837 -0.1896  0.1480
17740W        W31154  17.896  14.796   2.580 -0.4941  0.0303 -0.2604
17741W        W31155  16.235   8.420   0.636  0.4205  0.1536  0.0120
17742W        W31156  17.162   4.583  14.195 -0.0098  0.1099  0.1687
17743W        W31157   1.382   3.229  11.758  0.0292 -0.1353 -0.2635
17744W        W31158  12.559   5.317  10.399  0.0057 -0.0195 -0.0458
17745W        W31159  13.319   3.387  14.174 -0.0615 -0.1979  0.0164
17746W        W31160   5.829   2.005  10.523  0.1600 -0.1233  0.0028
17747W        W31161  17.008  17.333   2.834 -0.2372  0.0405 -0.1386
17748W        W31162   5.671  16.134   4.214  0.2023  0.0433 -0.0891
17749W        W31163   4.164   9.301   4.913  0.0513 -0.0073 -0.0052
17750W        W31164  12.461  14.714   5.055 -0.0317 -0.1533  0.2091
17751W        W31165   1.847   8.113   6.114  0.2166 -0.1645  0.1138
17752W        W31166  13.480  11.990  15.648  0.2875  0.1064  0.3505
17753W        W31167  14.717   8.348   2.753 -0.0587 -0.1047 -0.2961
17754W        W31168  17.361  17.568  14.890 -0.3404 -0.0770 -0.1812
17755W        W31169   2.087   1.133   2.605  0.0922  0.0997  0.1104
17756W        W31170   2.644   0.637  15.942 -0.1166 -0.5127  0.1273
17757W        W31171  16.593  14.661  14.207 -0.0311 -0.0459 -0.0189
17758W        W31172   4.778   4.409   4.645  0.1358  0.3083  0.1329
17759W        W31173   7.865  15.114   3.320  0.0590 -0.0202  0.0452
17760W        W31174   4.441   7.972   0.612 -0.3930 -0.2868  0.2728
17761W        W31175  13.260  14.245  16.027  0.2493  0.0085  0.1553
17762W        W31176  15.034   7.084  11.582 -0.0781  0.1031 -0.0206
17763W        W31177  13.944   3.293   2.961 -0.1384 -0.0051 -0.2607
17764W        W31178   1.870   5.160  10.706 -0.0775 -0.0535  0.0433
17765W        W31179  12.980  16.588  13.715 -0.2847  0.0187  0.1982
17766W        W31180  12.915  13.897  12.814  0.1856  0.1069 -0.1270
17767W        W31181   3.449  12.910  12.185  0.0268  0.1374 -0.1299
17768W        W31182   0.761   3.244   2.925  0.0631  0.3035  0.3089
17769W        W31183  12.823  16.075  13.956 -0.0413 -0.0839 -0.0285
17770W        W31184   5.290  12.684   4.407 -0.0037  0.0252  0.0107
17771W        W31185  15.175   4.190  13.867 -0.1574  0.2624 -0.3492
17772W        W31186  16.867  11.985  14.571  0.1535 -0.0256  0.3833
17773W        W31187  15.415   1.913   6.316  0.1732 -0.1820  0.2972
17774W        W31188   4.951   9.137  12.363  0.1869 -0.0930  0.2276
17775W        W31189   1.963   2.397  13.520 -0.0620  0.0026 -0.3886
17776W        W31190   3.865  11.222   1.041 -0.0310  0.0109  0.1864
17777W        W31191  12.349  12.413  14.428 -0.1940  0.0411 -0.2236
17778W        W31192  16.794  14.028  11.666  0.0622 -0.2952 -0.0515
17779W        W31193   0.432  11.559  12.974 -0.2753  0.1093 -0.0158
17780W        W31194   5.333   0.514   3.107 -0.0918  0.1756  0.0924
17781W        W31195   1.437   3.510   0.279 -0.3277  0.2262  0.1145
17782W        W31196  15.466   0.647   3.316 -0.2011 -0.1357 -0.0192
17783W        W31197   6.839   3.231   5.152 -0.0581 -0.0179  0.2169
17784W        W31198   7.888  14.275   1.171 -0.0433 -0.0635  0.0287
17785W        W31199  12.927   5.565  11.037 -0.0128  0.0397 -0.0168
17786W        W31200  17.528  11.413   3.708 -0.2260 -0.1753 -0.0670
17787W        W31201   5.856   5.469  11.134 -0.1299  0.1211 -0.1106
17788W        W31202  14.453  17.379  12.091  0.0351  0.0491 -0.0609
17789W        W31203   5.832   6.625  11.847 -0.0504  0.1959  0.1688
17790W        W31204  15.291   6.665   3.979  0.0506 -0.1896  0.1567
17791W        W31205   1.362   6.734   0.089 -0.0925 -0.2357 -0.0394
17792W        W31206  16.986   0.404   5.238  0.1405  0.0079 -0.1567
17793W        W31207   3.248   3.264  14.155  0.3489 -0.1422 -0.1122
17794W        W31208   2.764  12.776   0.184  0.0451  0.2942 -0.0288
17795W        W31209   6.475  11.668  15.315  0.0725  0.2780  0.2024
17796W        W31210  18.160   5.243  13.778 -0.0822 -0.1414  0.0028
17797W        W31211   7.651  18.149   3.109  0.2436  0.2456 -0.1508
17798W        W31212   5.682   4.960   2.369 -0.1388  0.0981  0.1930
17799W        W31213  14.524  15.067   4.433 -0.2929 -0.0198  0.0964
17800W        W31214  16.640   0.335  15.650  0.0777 -0.2252  0.0092
17801W        W31215  13.483   6.553  13.687  0.1094  0.1531 -0.0310
17802W        W31216   9.543   9.171  11.690 -0.1103 -0.2638 -0.1860
17803W        W31217   1.011  18.030   0.044  0.1446 -0.2262  0.0848
17804W        W31218  17.327   6.073   0.472 -0.3374  0.0320 -0.0088
17805W        W31219   1.771   6.784  11.138 -0.0007  0.1198 -0.1033
17806W        W31220  11.891   4.214  14.814  0.3065 -0.2587 -0.0033
17807W        W31221   2.733   3.594  14.830 -0.0535  0.1267 -0.0295
17808W        W31222   0.807  11.146   3.818  0.2047  0.0462 -0.1006
17809W        W31223   1.986   7.091   5.432  0.3448 -0.1152  0.0007
17810W        W31224   2.426  14.392   3.941 -0.1136 -0.3171  0.0443
17811W        W31225  15.420   2.929  13.118  0.3596  0.3314 -0.2385
17812W        W31226  13.491   0.605   3.467  0.1682  0.0480  0.2729
17813W        W31227  10.920  11.188  10.431  0.2636  0.2598  0.0261
17814W        W31228  16.233   1.899  14.473  0.0164  0.4746 -0.1717
17815W        W31229  13.703  15.173   5.389 -0.1341  0.2476  0.0984
17816W        W31230   7.883  11.589  12.511  0.0395 -0.2272  0.1529
17817W        W31231  17.071   4.193  11.565  0.2587  0.2409  0.2788
17818W        W31232  13.603   7.559   5.511 -0.1864 -0.2498  0.0523
17819W        W31233   1.935  13.387   4.951 -0.1387  0.0084  0.3629
17820W        W31234   7.540   1.897  14.494  0.3098 -0.2170  0.0496
17821W        W31235   4.974  15.792   6.093  0.0301  0.1163  0.1712
17822W        W31236  16.623  15.663   0.901  0.4044  0.2373 -0.2800
17823W        W31237  16.629   8.701   0.162  0.0685 -0.1808 -0.0426
17824W        W31238  14.403   6.660   0.174 -0.3011  0.2847 -0.1094
17825W        W31239   4.472  16.401   3.538 -0.2571  0.1542  0.4001
17826W        W31240   8.295   7.738   3.255  0.0316 -0.0618 -0.1557
17827W        W31241  10.652   6.484   3.123  0.2229  0.0809  0.2988
17828W        W31242  14.516  15.279  11.238 -0.0680  0.0043  0.4334
17829W        W31243   0.348   9.892  14.627 -0.3422  0.1117 -0.1080
17830W        W31244  12.997   6.720  14.308 -0.0410 -0.1827  0.0039
17831W        W31245   4.247   6.057  11.498 -0.0444 -0.2582  0.2844
17832W        W31246   3.968  15.417   4.944 -0.1471 -0.1230  0.3185
17833W        W31247  10.145  17.363  14.588 -0.1122 -0.1593 -0.1423
17834W        W31248   4.270  18.256  15.906  0.3816 -0.2370 -0.2563
17835W        W31249  17.587   1.061   0.643  0.1403  0.0391 -0.1601
17836W        W31250   0.936   3.102   3.726  0.0525  0.0043  0.2312
17837W        W31251   5.863   6.618   3.016 -0.0152 -0.0505  0.1243
17838W        W31252   1.651  13.554   4.536  0.0965  0.0680  0.1601
17839W        W31253  16.768  10.906   3.949  0.0045  0.1957 -0.1521
17840W        W31254   2.313   5.613  16.190  0.0477  0.0566  0.3054
17841W        W31255   7.493  17.115   4.010  0.0621  0.0100  0.0006
17842W        W31256   4.397   0.615   1.705 -0.0486  0.1566 -0.0491
17843W        W31257   9.799  10.422   2.783 -0.2019 -0.1571 -0.2184
17844W        W31258  11.059  17.011   0.705 -0.1402 -0.0047 -0.1208
17845W        W31259   2.568   4.641   4.539  0.0574  0.2664 -0.3390
17846W        W31260  11.091  11.841  15.453  0.0981  0.0979  0.0869
17847W        W31261  17.249   6.039   5.021  0.3945 -0.1916 -0.0302
17848W        W31262  12.596  10.054   4.638  0.0148 -0.0437  0.1573
17849W        W31263   7.479  18.281   0.847  0.2332  0.1100  0.1394
17850W        W31264   2.611  15.862  10.514 -0.2163 -0.1186  0.3939
17851W        W31265  17.077   9.780  14.360  0.0719  0.3662  0.1927
17852W        W31266   3.339   7.808   0.762  0.0208  0.0378 -0.1611
17853W        W31267  10.411   7.645   5.064 -0.2059 -0.0377 -0.4182
17854W        W31268   5.613   8.693  10.749  0.1581  0.0403 -0.0145
17855W        W31269   3.721  11.406  10.748  0.1400 -0.0261 -0.0248
17856W        W31270   8.890   7.349   4.276 -0.0323 -0.2350  0.0451
17857W        W31271   3.052  16.230  13.109 -0.1236  0.3774 -0.3007
17858W        W31272  10.437   6.852  14.601 -0.1958  0.0123 -0.2175
17859W        W31273   0.961   4.469  15.239  0.1846 -0.1196  0.1497
17860W        W31274  13.137   7.625  15.275  0.0735  0.3201 -0.1985
17861W        W31275  14.394   6.883   3.866  0.0044  0.2704 -0.0811
17862W        W31276   3.638  14.061  11.799 -0.0157 -0.2805 -0.0954
17863W        W31277  11.295   7.598  11.974  0.1096 -0.3055  0.2169
17864W        W31278   9.598  16.803  12.923  0.3321  0.0635  0.1143
17865W        W31279  17.819  17.478   3.392 -0.2518  0.3449 -0.2316
17866W        W31280  15.338  13.753  15.232  0.3401  0.1938  0.0911
17867W        W31281  15.203  12.569  10.516 -0.0299  0.1140  0.1082
17868W        W31282   6.739   5.623  10.587 -0.0760 -0.1846 -0.2846
17869W        W31283  14.980   4.895  15.702  0.2943 -0.1927 -0.1165
17870W        W31284   4.480  10.334   0.018 -0.3220  0.0221 -0.0862
17871W        W31285   0.845   6.760   1.815  0.0704 -0.0943  0.2318
17872W        W31286  10.389  12.419  12.977 -0.3527 -0.0492  0.0407
17873W        W31287   7.207   4.773  12.881  0.1723  0.0783 -0.1045
17874W        W31288   2.829   2.261   4.665 -0.0253  0.0986  0.0344
17875W        W31289  17.346   2.359   3.851  0.0888  0.3891 -0.0596
17876W        W31290   9.695  16.638  12.104  0.0926 -0.1995  0.0084
17877W        W31291  11.930   2.649   2.580  0.2515  0.0673 -0.2030
17878W        W31292   7.307  12.440  11.185  0.4016 -0.2184  0.0706
17879W        W31293   9.385  16.599   4.412  0.1054  0.0918  0.2073
17880W        W31294   2.913   2.710  14.743  0.3126 -0.1077  0.0566
17881W        W31295   5.491   9.047   3.718 -0.1844  0.0348  0.2657
17882W        W31296   5.168  15.633   2.809  0.2082  0.1583  0.3314
17883W        W31297  10.357  10.784   4.988  0.0283 -0.1041  0.0067
17884W        W31298  17.677  16.167   1.662  0.0355 -0.1442 -0.2319
17885W        W31299  10.601   7.574   1.285  0.1268  0.0461  0.2125
17886W        W31300   9.432  17.249  10.758  0.0953  0.0996 -0.0011
17887W        W31301   2.914  18.103  15.638  0.0701  0.1722  0.0356
17888W        W31302   8.991   7.550   2.964 -0.1128 -0.0310  0.2637
17889W        W31303  11.029   6.070   0.444  0.0901 -0.2303 -0.3162
17890W        W31304  15.533   0.229  15.037  0.1429 -0.0384  0.0001
17891W        W31305   0.648  16.454  14.558  0.1618 -0.0495  0.1159
17892W        W31306   7.908   0.913   4.761 -0.0584 -0.3271  0.1673
17893W        W31307  17.511  12.872  15.105 -0.0141  0.1530  0.0281
17894W        W31308  10.721  17.933  13.872  0.1097 -0.0186  0.2528
17895W        W31309   2.872  15.755  15.990  0.0569  0.0689 -0.0860
17896W        W31310   9.985  13.539   4.058 -0.2734  0.2117 -0.1778
17897W        W31311  10.813   0.758   0.788  0.3239 -0.0562  0.2151
17898W        W31312   1.964  16.858  15.099 -0.0329  0.2322 -0.0271
17899W        W31313   2.488  10.789  14.777 -0.1187  0.0620 -0.0074
17900W        W31314  16.785   4.657   0.405  0.0165 -0.0010  0.2798
17901W        W31315  18.249  12.661  14.342 -0.2481  0.0461  0.2268
17902W        W31316   5.418   5.356  10.705  0.0480 -0.1526  0.4150
17903W        W31317   3.311  13.380  11.932 -0.1935 -0.0886  0.0006
17904W        W31318  10.368  16.746  15.957  0.3359 -0.2751  0.1422
17905W        W31319  16.842  17.734   1.987 -0.1669 -0.2485 -0.0562
17906W        W31320   4.029   8.627   0.655 -0.1519 -0.0942 -0.0102
17907W        W31321   3.984   3.625   2.304 -0.0259 -0.1699 -0.0788
17908W        W31322   7.778   4.672  14.096  0.2012 -0.1696  0.4168
17909W        W31323  11.620   4.585  13.166  0.1380 -0.0894 -0.1190
17910W        W31324   3.368   9.210  10.512  0.1613 -0.0558 -0.1432
17911W        W31325   9.139  12.191  15.326  0.0592 -0.0574  0.1654
17912W        W31326   8.546   4.947  15.359  0.0809  0.0451  0.0067
17913W        W31327   0.541  11.942  13.335  0.1860 -0.1399  0.1293
17914W        W31328   9.602  15.530  13.150 -0.0864  0.1077  0.0290
17915W        W31329  11.112   1.140   4.781 -0.2522 -0.1393  0.0073
17916W        W31330  18.227   8.677  15.131  0.1552 -0.1434  0.0606
17917W        W31331   0.079   2.226  14.029  0.0733  0.0513 -0.0043
17918W        W31332   4.589   1.321   1.150 -0.0392  0.0741 -0.1106
17919W        W31333   9.693   6.420   5.424 -0.2075  0.1167  0.2074
17920W        W31334  16.453   8.878  15.472  0.1461 -0.0056  0.0699
17921W        W31335  17.986  17.813  12.797 -0.3822  0.3308  0.1630
17922W        W31336   9.085  11.852  12.847  0.0613  0.2638 -0.1265
17923W        W31337   2.361   6.109   4.241 -0.2372 -0.0640 -0.0215
17924W        W31338   6.523  15.796   0.225  0.2679  0.0274  0.1391
17925W        W31339  14.132  15.546  10.300  0.1154  0.1916  0.1823
17926W        W31340  12.675  16.799   0.832 -0.2836  0.0308 -0.1002
17927W        W31341  17.863   3.614   3.770 -0.1918  0.2297 -0.0200
17928W        W31342   7.959  14.027  10.505 -0.1565  0.0579  0.4085
17929W        W31343  15.458   0.036   0.031 -0.0488  0.2356 -0.0794
17930W        W31344   8.915   9.968   5.675 -0.0717 -0.1966  0.2018
17931W        W31345  17.518   8.402   2.705  0.0377  0.2578 -0.1067
17932W        W31346  13.958   7.594  13.235 -0.0483  0.0020  0.2565
17933W        W31347  13.604   6.136   5.766  0.1816  0.3525 -0.1111
17934W        W31348  13.264   3.303  12.260 -0.2115  0.1406 -0.3543
17935W        W31349   6.113  10.470  14.748 -0.0154  0.1105 -0.0323
17936W        W31350  16.444   1.008   0.389  0.1215  0.3308 -0.2002
17937W        W31351  13.704   6.068  13.186 -0.0230 -0.0892 -0.2679
17938W        W31352  16.515  17.278   3.264 -0.0265  0.1018 -0.1812
17939W        W31353   1.259   4.856   5.125  0.1258 -0.3168  0.0748
17940W        W31354   5.850  14.510   5.059  0.3482 -0.0700  0.0375
17941W        W31355   9.049  10.574   2.423 -0.2559 -0.0526  0.1137
17942W        W31356  14.719   6.442   1.654 -0.1714 -0.0228 -0.0633
17943W        W31357   6.262   3.339  14.673  0.4895  0.0846 -0.0985
17944W        W31358  15.672   8.091  13.677 -0.2483 -0.0043 -0.0163
17945W        W31359   3.243   8.808   0.184  0.0043  0.1209 -0.2707
17946W        W31360   5.944   4.064   0.704  0.0203 -0.1521 -0.1986
17947W        W31361   1.349   8.439   5.494  0.2929  0.2197  0.1248
17948W        W31362   4.653  12.906  15.681 -0.0075  0.1987 -0.0575
17949W        W31363   7.448   4.133   4.223 -0.2352  0.0410  0.0678
17950W        W31364   1.313  14.029  10.464  0.1958  0.2346  0.0406
17951W        W31365   3.033   9.106   1.021  0.0115  0.2763  0.0987
17952W        W31366   8.620   3.835  12.920  0.0326  0.0665  0.0140
17953W        W31367  16.648   0.467   1.035 -0.0881  0.0222  0.1665
17954W        W31368  13.439   9.346   5.110  0.1256  0.0160  0.1874
17955W        W31369  16.405   5.564   2.271 -0.1469  0.0886  0.2950
17956W        W31370  13.844  14.163  15.031 -0.2859 -0.4127  0.1509
17957W        W31371  12.569  11.049  12.869  0.4248 -0.2835  0.2286
17958W        W31372  14.822  18.055   1.195 -0.0051  0.0703  0.0418
17959W        W31373   7.199   5.981  15.439  0.1813 -0.0942 -0.2892
17960W        W31374  16.793   3.592   5.091 -0.1067 -0.1835  0.0897
17961W        W31375  14.849   6.377   0.539  0.0677  0.0005  0.0610
17962W        W31376  13.196  14.111   5.189 -0.1644 -0.1888  0.0884
17963W        W31377  14.405   8.125  16.053 -0.1418 -0.2264 -0.1978
17964W        W31378  16.943  18.075   3.667  0.2000 -0.0410  0.1585
17965W        W31379   6.461   3.445   3.572  0.2776  0.0920  0.1586
17966W        W31380  13.161   6.242  11.808  0.0008  0.0179  0.0239
17967W        W31381  13.733  13.638   3.557 -0.4783  0.0335  0.1512
17968W        W31382  17.198  15.607  15.722  0.0704 -0.0632 -0.0888
17969W        W31383   1.635  13.757   3.712 -0.0329 -0.2343  0.0682
17970W        W31384  13.576   0.800  15.578  0.1095 -0.0196 -0.0717
17971W        W31385   2.033  11.097  11.698 -0.1965 -0.0175 -0.0058
17972W        W31386  14.377   8.893  12.800  0.1316 -0.3459 -0.4120
17973W        W31387   6.137   7.650  15.472  0.4088 -0.0857 -0.0395
17974W        W31388  13.944   9.844   1.657 -0.1048  0.0079 -0.0184
17975W        W31389  17.947  11.380  13.967  0.2616  0.2211 -0.1156
17976W        W31390  15.876  15.057   1.113  0.0712 -0.0399  0.0263
17977W        W31391   1.711  13.800  16.098 -0.2960  0.1672  0.2632
17978W        W31392  12.679  10.465  15.285 -0.0286 -0.0217 -0.1082
17979W        W31393  13.977  10.218  11.301 -0.0386 -0.2128 -0.1550
17980W        W31394   8.356   6.365  15.103 -0.0543 -0.2575 -0.1235
17981W        W31395   2.490  11.988   4.109  0.1525  0.0999 -0.3128
17982W        W31396   8.824   6.042  15.704  0.0429 -0.1701  0.0107
17983W        W31397  16.771   3.341   1.055 -0.3000 -0.2120  0.1932
17984W        W31398  13.967   3.251  14.021  0.0657  0.2598  0.2899
17985W        W31399   5.027   9.100  16.258 -0.2235 -0.3373 -0.0369
17986W        W31400   6.904   9.339  14.925  0.1126 -0.3581  0.0299
17987W        W31401   9.993  11.701   5.223  0.2384  0.1782 -0.0933
17988W        W31402   2.101  15.321   3.586  0.1091 -0.2199  0.1758
17989W        W31403   9.313  13.527  11.076 -0.0637  0.4688  0.0753
17990W        W31404   0.315   7.266  13.708  0.0827 -0.0816  0.1238
17991W        W31405   0.089   4.352   4.044  0.2037 -0.2352 -0.0533
17992W        W31406  15.265   5.086  10.890  0.0995  0.0782  0.3349
17993W        W31407  14.232   1.661   0.863 -0.1792  0.0906 -0.4486
17994W        W31408   5.307   5.188  12.909  0.1255  0.0435  0.0916
17995W        W31409  13.981   0.685  14.198 -0.0867  0.1353  0.1066
17996W        W31410   0.291   6.008  15.154  0.1021 -0.3061  0.1019
17997W        W31411  13.215  12.684   4.506  0.1704 -0.0219  0.2943
17998W        W31412   9.251  18.295  15.040  0.1200 -0.2274  0.3856
17999W        W31413   8.161  17.175  13.787  0.2590 -0.0254  0.1147
18000W        W31414  18.029   4.541  14.178  0.1650 -0.1445  0.0866
18001W        W31415  14.997  10.855  13.796  0.0351  0.1293  0.1331
18002W        W31416   6.698   8.829  14.846  0.1542  0.0704 -0.0838
18003W        W31417   1.094   6.382  15.416 -0.1426  0.0788 -0.2561
18004W        W31418   0.265  11.134  12.177  0.3207  0.1582  0.1391
18005W        W31419  12.911   6.976  12.376  0.0495 -0.1281  0.2642
18006W        W31420  14.416  10.443  11.265  0.0026 -0.0069 -0.0919
18007W        W31421   1.086  13.268  11.134  0.1754 -0.2035 -0.4366
18008W        W31422  11.023  15.380  13.437  0.0686 -0.1308 -0.0452
18009W        W31423  11.452   6.517   2.052 -0.1611  0.0310 -0.2159
18010W        W31424  16.045   1.235  11.096 -0.0337  0.1816  0.5573
18011W        W31425   6.270   9.155   1.674  0.2061 -0.2302 -0.1677
18012W        W31426  17.615   2.563  16.175  0.3143 -0.0805  0.1321
18013W        W31427   5.793   9.018  13.604 -0.0881 -0.0654  0.1127
18014W        W31428   3.204  10.728   3.297  0.2292 -0.0086  0.0294
18015W        W31429  14.465  10.423   4.376 -0.2761 -0.1611 -0.2438
18016W        W31430   6.759   0.738   2.811 -0.2459 -0.1156 -0.1056
18017W        W31431  14.416   5.417  14.202  0.1090  0.1841 -0.2030
18018W        W31432  10.107   4.412   2.886  0.1871 -0.2272 -0.0693
18019W        W31433  16.967  12.913   5.065  0.0603  0.2336  0.1795
18020W        W31434  12.049  16.791  13.507 -0.1765 -0.1610 -0.1170
18021W        W31435  17.837   4.188   4.679 -0.0432 -0.0702  0.1152
18022W        W31436   9.190  12.318  12.593 -0.3619 -0.3158  0.2504
18023W        W31437   7.633  10.939  10.202  0.1547  0.4124  0.1720
18024W        W31438  14.974   0.041  16.095 -0.0867 -0.0236 -0.3829
18025W        W31439   4.936   9.873  15.380  0.2805 -0.0697  0.1243
18026W        W31440   9.670   5.560  16.002 -0.0885 -0.1440 -0.3091
18027W        W31441   1.643  15.867  12.586 -0.0974  0.0584  0.0804
18028W        W31442  11.653   0.975   0.494  0.1677  0.0651  0.1700
18029W        W31443   0.278   3.839   0.018 -0.1482  0.2191 -0.0472
18030W        W31444   1.329   0.234   3.438  0.2843  0.2806 -0.0308
18031W        W31445  15.867  10.210  15.474  0.0092 -0.0613 -0.0977
18032W        W31446   4.619  12.895  12.365 -0.0005  0.0266  0.3445
18033W        W31447   9.093  11.019  12.165 -0.1003  0.2857 -0.0118
18034W        W31448   8.870   2.999  12.175 -0.1674  0.1191  0.1138
18035W        W31449   7.735  18.271  14.091  0.1058  0.0029  0.1133
18036W        W31450   0.596   3.741   2.988  0.2548 -0.4013  0.0599
18037W        W31451  12.128   5.804  16.166 -0.3059  0.0689 -0.2780
18038W        W31452  15.606  17.009  10.851 -0.1044  0.1242 -0.2934
18039W        W31453  11.309   2.457   3.540  0.1734 -0.1183 -0.0965
18040W        W31454   1.799   9.735   4.026 -0.0641  0.0247  0.1208
18041W        W31455   5.781  10.282   3.252  0.1158 -0.0354  0.1238
18042W        W31456  17.830   1.223   1.051  0.0527  0.1885  0.0341
18043W        W31457  10.478  10.958   4.533  0.0694  0.1525  0.0334
18044W        W31458  11.608  14.748  14.346  0.2523 -0.1986  0.1460
18045W        W31459   4.171  11.003   0.652  0.2034  0.0702 -0.1635
18046W        W31460  13.496   7.944  11.943 -0.0360 -0.0259 -0.4083
18047W        W31461   5.079   2.727   3.289 -0.0592  0.1871  0.1171
18048W        W31462  16.698   5.609  15.198  0.1626 -0.3122  0.2032
18049W        W31463  11.892   7.190  14.459 -0.2533 -0.0812  0.0825
18050W        W31464  14.719  14.502  15.405  0.2788  0.0146  0.0307
18051W        W31465   6.827   5.175   2.075  0.1644 -0.2007 -0.2827
18052W        W31466  10.608   1.434  15.878 -0.2994 -0.1382  0.2278
18053W        W31467   3.710  13.979  12.994  0.1228 -0.1087 -0.2096
18054W        W31468   2.718  15.988   0.421  0.1458  0.1851 -0.1585
18055W        W31469   3.031  16.648  10.190 -0.0584  0.0794 -0.0691
18056W        W31470  13.120  11.346   4.338  0.2120 -0.0140  0.1130
18057W        W31471  13.864   2.134   5.817 -0.1828 -0.3740  0.2753
18058W        W31472  13.829  14.973  11.657  0.1179  0.1720  0.0276
18059W        W31473  17.641   5.641   4.287  0.2895 -0.1882 -0.2926
18060W        W31474  14.151   0.274  13.444  0.0085 -0.3896  0.2474
18061W        W31475   4.338  13.913   4.592  0.2017 -0.0449  0.0651
18062W        W31476   7.093  10.055   3.273 -0.2315  0.0612 -0.0929
18063W        W31477   1.030  15.970   4.498  0.0438  0.0851 -0.1451
18064W        W31478   9.685   7.498  16.216 -0.3017 -0.0616  0.1323
18065W        W31479  10.678   2.030   1.220 -0.2322  0.2945 -0.0193
18066W        W31480   0.090   7.326   5.140  0.0281 -0.0663 -0.3537
18067W        W31481   2.994   0.559  12.281 -0.1017 -0.2514 -0.2666
18068W        W31482   1.819   4.798   5.044 -0.3126  0.3130 -0.3153
18069W        W31483  15.434  10.602  10.743 -0.0007  0.3493 -0.2433
18070W        W31484   5.990  18.296   0.743  0.3985  0.1009  0.4932
18071W        W31485   2.882  10.785   6.929 -0.0815 -0.0299  0.3261
18072W        W31486   7.645   3.412  14.374 -0.1158  0.1205 -0.2827
18073W        W31487  18.307  16.131   5.569 -0.2084  0.2781 -0.1753
18074W        W31488  12.326  11.100   2.429  0.3400  0.1135  0.2041
18075W        W31489   4.637  14.190  15.435  0.1482 -0.1614 -0.0202
18076W        W31490  11.808   9.781   1.633  0.0020 -0.0049 -0.2997
18077W        W31491  12.007  14.618   5.302 -0.2022 -0.1729  0.0117
18078W        W31492   8.726  12.434  11.851  0.1293  0.0191 -0.0207
18079W        W31493  18.104  12.825  15.360 -0.4155 -0.2237 -0.3331
18080W        W31494   8.349  12.876  12.524 -0.0975 -0.1446  0.0216
18081W        W31495  12.873  12.250   4.835  0.1253  0.1718 -0.0644
18082W        W31496  14.496  12.875  15.703  0.0950  0.0997 -0.3401
18083W        W31497  14.373   5.408  11.176 -0.1250 -0.0034 -0.0706
18084W        W31498  11.510  12.378   4.432 -0.1732 -0.0980  0.2414
18085W        W31499  12.844   0.596  10.517  0.4029 -0.5543  0.1581
18086W        W31500   5.224   3.061  15.770  0.0897  0.1576  0.3073
18087W        W31501   3.769   6.804   5.251 -0.0351 -0.4106 -0.0481
18088W        W31502  15.265   8.081  12.435 -0.1050  0.0181  0.0989
18089W        W31503  17.093   6.816  15.560 -0.0278 -0.0745 -0.1090
18090W        W31504   0.334  10.493   3.254 -0.2827  0.1030  0.1259
18091W        W31505  16.347  15.671   5.457  0.0559  0.0565  0.4093
18092W        W31506   4.392  12.064  10.560 -0.3026 -0.0285 -0.0063
18093W        W31507  16.866  11.066  11.722 -0.0921 -0.0839 -0.1345
18094W        W31508   1.281  12.533   5.716 -0.1083  0.1308 -0.0199
18095W        W31509   2.451  13.221  14.662 -0.0745  0.6237  0.1399
18096W        W31510   3.132  13.917  13.640 -0.2628  0.2660 -0.1225
18097W        W31511  10.930  15.983   2.213 -0.3734  0.2431  0.2120
18098W        W31512  18.103   5.019   4.998 -0.2932  0.2224  0.0779
18099W        W31513  11.297   9.931  16.269 -0.0072 -0.0846  0.4038
18100W        W31514   8.649   6.828   5.917  0.0249 -0.0069 -0.0608
18101W        W31515   8.796   6.259   1.035  0.0773  0.1931 -0.1233
18102W        W31516   4.625   1.156  14.928  0.1518 -0.2634  0.1237
18103W        W31517  17.153  13.344  10.882  0.0243  0.0880  0.1506
18104W        W31518   8.716   5.663  11.840  0.0101 -0.2404  0.0206
18105W        W31519   7.610  16.611   6.601  0.1058  0.0784 -0.1331
18106W        W31520   7.186  15.599  16.207 -0.0572 -0.1807 -0.1836
18107W        W31521  13.013  10.645   6.206 -0.0550 -0.0640 -0.2498
18108W        W31522   5.579   9.420  11.560  0.0130  0.1747  0.0135
18109W        W31523  16.316  16.887  12.979  0.4438 -0.1773 -0.0251
18110W        W31524  17.773   4.580   1.696  0.0193  0.1470  0.0159
18111W        W31525   0.681  17.615   3.084 -0.1124 -0.0384 -0.0327
18112W        W31526   5.934   0.406  12.022  0.1159 -0.1541  0.0225
18113W        W31527   8.874   9.813  12.878  0.0880  0.1182 -0.0502
18114W        W31528  12.732   9.545  14.378 -0.5021  0.1389 -0.1597
18115W        W31529   9.923  12.106   3.179 -0.1409 -0.1755  0.0876
18116W        W31530   6.900  10.608  15.888  0.2667 -0.0155  0.1302
18117W        W31531   1.236   6.862  14.084  0.0044 -0.0450 -0.2550
18118W        W31532   6.526   3.151  15.138 -0.1451 -0.2280 -0.2399
18119W        W31533   6.589   3.675   4.369 -0.0890 -0.1315 -0.2061
18120W        W31534   6.211   8.509   2.589  0.0388  0.0941  0.1580
18121W        W31535   2.230   0.164  11.692  0.2195 -0.0637  0.0203
18122W        W31536   2.835  15.626   4.587  0.3902 -0.0962  0.0911
18123W        W31537   3.854  18.393  13.055  0.2145  0.1979  0.0749
18124W        W31538  12.901  13.681   4.239 -0.1259  0.1396 -0.1932
18125W        W31539   3.674  13.136   5.310 -0.2754  0.3025  0.0346
18126W        W31540   0.061   3.543  14.359  0.0485  0.0626  0.1868
18127W        W31541   8.041  12.506  10.633 -0.3272  0.1376  0.5310
18128W        W31542   8.748  10.931   1.652 -0.2711 -0.2258 -0.0616
18129W        W31543   5.694   0.801   4.231 -0.1496 -0.0014 -0.4380
18130W        W31544   2.250   6.032   3.223  0.0501  0.2394 -0.2918
18131W        W31545   0.024   4.691  12.953  0.2149 -0.1839 -0.0224
18132W        W31546   3.866  10.194   2.299  0.0804 -0.0101  0.0124
18133W        W31547   4.406   3.514  13.665  0.0067 -0.1208 -0.1633
18134W        W31548  13.357  14.124  14.745  0.0281  0.0222  0.0094
18135W        W31549   6.802  13.175  12.334  0.0499  0.1338 -0.1635
18136W        W31550   6.870  12.275   5.714  0.2162 -0.0762  0.0325
18137W        W31551   9.535  15.672  14.477  0.1026 -0.0436  0.1149
18138W        W31552  15.837   7.797   6.559 -0.1080 -0.1743 -0.0464
18139W        W31553   1.805   9.154   3.436  0.0268 -0.2743 -0.1700
18140W        W31554   9.338   4.957  12.130  0.0465  0.0406 -0.2290
18141W        W31555  14.136   6.849  11.524  0.1787  0.0022 -0.5954
18142W        W31556  11.614   7.612  14.480 -0.0775  0.1661 -0.1657
18143W        W31557   1.708  15.374   2.400 -0.3308  0.0330 -0.1440
18144W        W31558   6.410   7.000  12.415  0.0965  0.1200 -0.0772
18145W        W31559  16.820  11.956   2.102  0.0868  0.0648 -0.0483
18146W        W31560  13.476  10.807  15.355  0.2163 -0.2877  0.0563
18147W        W31561  10.969  17.766  12.989 -0.0855  0.3739 -0.0058
18148W        W31562  14.258   8.236  15.240  0.4107 -0.2908  0.0880
18149W        W31563  11.594   0.016  10.903  0.0525  0.1165  0.1012
18150W        W31564   2.033  10.168   5.641  0.1332  0.0908 -0.1294
18151W        W31565   8.541  10.666  10.179  0.0242 -0.2821 -0.1351
18152W        W31566  10.630   9.860   3.861  0.1463 -0.0861 -0.1131
18153W        W31567  11.793  16.639  13.045  0.1970  0.0966  0.2819
18154W        W31568   9.546  16.718   0.163  0.0425 -0.1948 -0.0941
18155W        W31569   3.663   7.733  14.356 -0.0453  0.0143 -0.2174
18156W        W31570   4.690   8.280   0.261  0.0380  0.1518  0.0064
18157W        W31571  11.832  15.145   4.178 -0.0128  0.0498 -0.0764
18158W        W31572  13.534   2.490   3.115 -0.1024  0.1582 -0.3786
18159W        W31573   1.295   6.130  14.982 -0.0274  0.1566  0.0262
18160W        W31574   3.689   5.641  15.257  0.1130 -0.0772 -0.0734
18161W        W31575  13.880   2.375  12.456 -0.2192  0.0867  0.3567
18162W        W31576   6.735  12.336   9.942  0.4094 -0.2294  0.0607
18163W        W31577  17.487  13.659   3.590 -0.0620 -0.0131 -0.2184
18164W        W31578   8.457  10.583   1.504  0.0251  0.0632  0.0364
18165W        W31579   2.124  10.293  14.043  0.1112 -0.0024  0.0016
18166W        W31580  15.339   0.034  12.953  0.0181  0.2694  0.0788
18167W        W31581  18.345   9.029  12.818 -0.2823  0.2954 -0.0180
18168W        W31582  13.675  12.760  12.924 -0.1198  0.0941 -0.2073
18169W        W31583  14.721   0.239  10.466  0.0374  0.3541  0.1610
18170W        W31584   1.715  10.121  13.784 -0.2608 -0.0149  0.2228
18171W        W31585  14.405   1.521  12.189 -0.2519 -0.2040  0.1041
18172W        W31586  17.751  12.664   5.782  0.0598  0.3709  0.4341
18173W        W31587   1.673   3.464   3.922 -0.3542  0.3719 -0.0086
18174W        W31588  13.523   2.795   4.254 -0.0445  0.1292  0.1804
18175W        W31589   0.032  11.906   2.192 -0.3084  0.0478  0.2082
18176W        W31590  10.909  13.140  12.843  0.1058  0.0401 -0.0817
18177W        W31591   4.563   6.918  14.344  0.1571  0.2541 -0.5966
18178W        W31592  13.958  17.886   3.731  0.2107  0.4185 -0.0550
18179W        W31593  10.244   1.424  12.680 -0.0953  0.2297 -0.0484
18180W        W31594  14.918   6.132   5.119  0.1039  0.1652  0.0360
18181W        W31595   6.864  12.868  10.128  0.0885 -0.1211  0.0140
18182W        W31596  11.259   6.876   4.970  0.0878  0.2290  0.1614
18183W        W31597  10.224  13.205  10.765  0.0034  0.0619 -0.0243
18184W        W31598  16.367   5.362   3.210  0.3699 -0.2448  0.3137
18185W        W31599   3.342  17.245  13.233  0.0282  0.1363 -0.0948
18186W        W31600  10.398   5.373   4.485 -0.3107  0.0053 -0.1012
18187W        W31601  14.423  18.313   9.664 -0.1750  0.0616  0.1860
18188W        W31602   3.301   7.270   0.950  0.0595 -0.1691 -0.1678
18189W        W31603   2.221  17.724  11.108 -0.2225  0.0383 -0.0326
18190W        W31604   5.362   5.830   2.879  0.1238  0.1182  0.3567
18191W        W31605   5.090   0.075   2.357  0.1217  0.1992  0.0676
18192W        W31606   2.824  10.038  16.184 -0.0502  0.2380  0.0885
18193W        W31607   4.352   6.732  14.804  0.0288 -0.0866 -0.3064
18194W        W31608  11.009  12.597  10.677  0.0560 -0.0243 -0.1007
18195W        W31609  12.892   3.926  13.133 -0.2368 -0.1798 -0.1969
18196W        W31610   2.704   0.553   5.749 -0.0762  0.1898  0.0893
18197W        W31611  16.959   1.208  10.492  0.4780  0.4058  0.0958
18198W        W31612   0.673   9.036   3.850  0.0204 -0.0117  0.0833
18199W        W31613   1.252   3.185   5.547 -0.0167 -0.3266  0.0616
18200W        W31614   5.870  11.876  14.729  0.1967  0.1029  0.1336
18201W        W31615   9.204   0.898  15.053 -0.0824 -0.2294  0.2172
18202W        W31616   0.240  11.449   1.447 -0.3182  0.0178 -0.0341
18203W        W31617   8.893   2.256  13.937 -0.0110 -0.2889  0.2733
18204W        W31618   7.225   3.725   5.084 -0.0766 -0.3412  0.1358
18205W        W31619   6.103  13.256  13.239 -0.1837 -0.1660 -0.1518
18206W        W31620  18.080   0.443   1.814 -0.0768 -0.1205  0.1838
18207W        W31621  14.311   7.935   1.204  0.1870  0.2807  0.0278
18208W        W31622  12.479  11.439  12.329  0.0006  0.5556  0.0358
18209W        W31623   3.131  13.655   2.781  0.2342 -0.1207  0.4200
18210W        W31624   7.436   6.093  13.578  0.2698 -0.2602 -0.0341
18211W        W31625  10.769   2.654  12.651  0.1049 -0.1513 -0.0186
18212W        W31626   7.857  16.380  11.736  0.0197  0.3814 -0.0693
18213W        W31627  14.682   2.533  15.304 -0.0884 -0.1120 -0.1992
18214W        W31628  18.391  12.428   5.021 -0.1518 -0.1109  0.1668
18215W        W31629   0.619   8.293   4.782 -0.2810 -0.0224  0.2127
18216W        W31630  17.199  14.866   6.414  0.1421 -0.2696  0.2437
18217W        W31631   4.709  15.261   0.105 -0.0930  0.1335  0.0452
18218W        W31632   2.265  17.677  14.059 -0.0599 -0.0306  0.4293
18219W        W31633  13.184   8.774  11.003 -0.0469  0.0300  0.3679
18220W        W31634   1.275  16.316   2.484 -0.0018 -0.3526  0.1715
18221W        W31635   9.789  13.697   2.686 -0.0543 -0.2651  0.0624
18222W        W31636  15.893  11.086  12.048  0.0057  0.2613 -0.1998
18223W        W31637   3.624   4.251   6.021 -0.0876  0.1140 -0.1724
18224W        W31638   8.846   1.533   3.250 -0.1417  0.1350  0.0587
18225W        W31639   0.381   3.280   1.837 -0.3575 -0.1990  0.1345
18226W        W31640   6.482   4.181   0.669 -0.0677  0.3582 -0.3370
18227W        W31641  17.465  11.742  12.862 -0.0585 -0.2624 -0.2748
18228W        W31642   7.769  15.362  10.932  0.2169  0.3837  0.0946
18229W        W31643   4.702  11.015  15.303  0.1424  0.1849 -0.1819
18230W        W31644  13.179  18.206   3.190  0.2085 -0.0095  0.1399
18231W        W31645   0.186   4.326   4.944  0.1223  0.0371 -0.2884
18232W        W31646   1.912  14.445   5.694 -0.3554  0.1750  0.2438
18233W        W31647  16.705  17.479  15.643  0.2066 -0.0889  0.1750
18234W        W31648   4.442  12.308   6.165  0.1345  0.0708 -0.1078
18235W        W31649  18.326   7.653   1.669  0.1733 -0.0251 -0.1392
18236W        W31650  14.191  14.183  10.659  0.1712 -0.1683 -0.2267
18237W        W31651  13.141   4.166   5.330 -0.0917 -0.1615 -0.2027
18238W        W31652   1.358   3.746   1.752  0.1129 -0.1935  0.2141
18239W        W31653  17.269  13.916   4.003 -0.2098 -0.1923  0.2859
18240W        W31654   4.171   0.791   4.674  0.3270  0.1269  0.3008
18241W        W31655   1.005  12.241   3.057 -0.0691 -0.3469  0.5447
18242W        W31656  14.101   4.341   5.544  0.0479 -0.1426 -0.2022
18243W        W31657  15.785  11.225  11.217 -0.2615  0.1574 -0.0198
18244W        W31658   8.262   7.846  11.849  0.0339  0.3500  0.1216
18245W        W31659   4.867  13.657   3.819  0.0197  0.0320  0.1874
18246W        W31660  10.340  18.193  13.762  0.0929  0.0633 -0.0699
18247W        W31661   8.871  13.242   3.580  0.1927 -0.3876  0.3853
18248W        W31662  14.660  14.263   4.982 -0.0663  0.1232 -0.0767
18249W        W31663   6.292  13.059   5.932 -0.0078 -0.1697 -0.2591
18250W        W31664  18.044   3.945  14.757 -0.0634 -0.0672 -0.0457
18251W        W31665  15.387   1.887  10.675 -0.0346  0.1363 -0.0805
18252W        W31666   7.614   8.192  13.008 -0.2295 -0.1574 -0.2885
18253W        W31667  12.902   6.267   0.386 -0.3574 -0.2423 -0.1625
18254W        W31668  17.535   0.696  12.100  0.1571  0.0671  0.0797
18255W        W31669   3.770   7.674   6.175  0.2526  0.1313  0.1615
18256W        W31670   6.236   8.620  11.890  0.0127 -0.0995  0.1055
18257W        W31671   7.666   3.708   0.071  0.0488 -0.1473 -0.2883
18258W        W31672   9.994  10.959   4.721  0.2089  0.3698  0.1964
18259W        W31673  16.984   9.398   6.361 -0.0211  0.0869 -0.2174
18260W        W31674  17.516  14.865  16.021 -0.1118 -0.0981  0.2557
18261W        W31675   2.731   1.690   3.071 -0.3160 -0.1051 -0.1407
18262W        W31676  17.387  10.646  12.822 -0.1162  0.0002 -0.0998
18263W        W31677  10.938  16.797   0.088 -0.1983 -0.1187 -0.2345
18264W        W31678  16.699   6.507   2.692  0.1657 -0.4246  0.0848
18265W        W31679   6.672  13.848  13.774 -0.2390  0.1752  0.3446
18266W        W31680  10.918   3.535  10.664  0.0529  0.2809 -0.1544
18267W        W31681   2.212  13.736   0.451  0.1603  0.0190 -0.1183
18268W        W31682   5.452   9.261  10.567 -0.2240  0.1772 -0.0988
18269W        W31683  16.954   6.662   3.239 -0.2644 -0.0555  0.1279
18270W        W31684  11.257  11.034  13.532 -0.1781 -0.0987 -0.1531
18271W        W31685  13.870  11.251   4.061 -0.0105  0.1754  0.0895
18272W        W31686  11.311   1.325  11.612  0.1122 -0.1063 -0.0520
18273W        W31687   4.418  10.084   2.924  0.1038  0.2291 -0.0232
18274W        W31688  15.134   1.267  12.058  0.3228  0.0202  0.0315
18275W        W31689  13.347   5.803  11.034 -0.0934 -0.1054 -0.4253
18276W        W31690   8.346  15.696  15.229  0.3927  0.0222  0.1359
18277W        W31691   2.647   2.849   0.841 -0.0312  0.4500 -0.1756
18278W        W31692   5.439  16.950   2.876  0.0550 -0.2427 -0.1490
18279W        W31693  16.639   4.992  11.103 -0.2439  0.0710 -0.0638
18280W        W31694   5.494   7.580   4.363 -0.3806  0.0429 -0.0859
18281W        W31695   5.439  13.465  12.936  0.0437 -0.1058  0.0258
18282W        W31696   3.945   5.447  14.660 -0.0671 -0.0284  0.2735
18283W        W31697   3.010  16.425   2.033  0.0810  0.1326 -0.0831
18284W        W31698   3.266  13.259  13.101  0.0150  0.1389 -0.2625
18285W        W31699   2.114  15.046  16.039 -0.0829 -0.1083 -0.0164
18286W        W31700   1.419   5.544   4.533  0.0150 -0.0116  0.0589
18287W        W31701  10.316  15.295   4.785 -0.0043 -0.1176  0.2353
18288W        W31702   3.210  13.372  12.412  0.3707 -0.2019 -0.0268
18289W        W31703   0.157   4.712  14.896 -0.0961 -0.2683 -0.0068
18290W        W31704   0.770   3.286   5.884 -0.4040  0.0215 -0.0662
18291W        W31705  14.719  14.399  10.677 -0.0505 -0.1927 -0.1595
18292W        W31706  16.209   7.456   3.159 -0.4763  0.1046 -0.2404
18293W        W31707   8.672  11.331  11.124  0.0540  0.0680  0.1626
18294W        W31708  15.606   1.250  11.411  0.0776  0.1225  0.0865
18295W        W31709   6.355   1.785   1.307  0.1885  0.2482  0.0472
18296W        W31710   0.717   4.967   6.092  0.1568 -0.4255  0.1371
18297W        W31711  12.181  11.403  15.885 -0.2566  0.1464  0.1352
18298W        W31712  12.740   8.064   4.418 -0.1949 -0.0421  0.3794
18299W        W31713   6.614   8.452   0.309  0.0732 -0.0130  0.1243
18300W        W31714   9.703  14.331  13.037 -0.0490 -0.0998  0.2939
18301W        W31715  17.830   1.848  14.989  0.1188 -0.0104 -0.2379
18302W        W31716  18.102   6.055  16.171  0.3183  0.0980  0.1149
18303W        W31717  12.744   6.046   1.063 -0.1653  0.0411  0.1261
18304W        W31718  17.517   8.067  14.338 -0.0676  0.1386 -0.2170
18305W        W31719   8.616  16.732   5.031 -0.0807  0.0667 -0.2015
18306W        W31720   3.108   4.093   0.694  0.3874  0.1557 -0.2943
18307W        W31721  15.849   9.786   4.098  0.3407 -0.1233 -0.1763
18308W        W31722   3.958  12.114  10.212 -0.0795 -0.2603 -0.1017
18309W        W31723   2.782  13.359   3.079 -0.0591 -0.1755  0.1798
18310W        W31724   6.775  10.124  10.163  0.0726 -0.1409 -0.1926
18311W        W31725  18.020  14.957   4.898 -0.1711  0.1782  0.2802
18312W        W31726  17.788  18.178  10.565 -0.0904 -0.0242 -0.0842
18313W        W31727   5.939  18.083  13.060 -0.2368  0.0992 -0.0552
18314W        W31728  18.197   0.129   0.318  0.2707 -0.1952  0.0347
18315W        W31729   8.299   2.050   0.726 -0.0288 -0.1625 -0.4814
18316W        W31730  15.513  11.171   6.379 -0.1582 -0.1311  0.0367
18317W        W31731  10.015   6.650   2.547  0.0616 -0.4066 -0.3534
18318W        W31732   5.244  10.114   2.590 -0.0674 -0.1999 -0.0151
18319W        W31733  10.872  12.265  12.895  0.0310 -0.0849 -0.2391
18320W        W31734   3.925   0.227  15.088  0.1364  0.0158 -0.1507
18321W        W31735   1.364  17.205   4.638  0.0724 -0.3192  0.4136
18322W        W31736   1.934  17.927   5.613  0.0193 -0.1565  0.1036
18323W        W31737   8.423   8.834   5.303 -0.0950 -0.3108 -0.3413
18324W        W31738   7.979  11.731   0.147  0.1891  0.2923  0.1011
18325W        W31739  18.442   2.663  14.758 -0.2673 -0.1417 -0.0408
18326W        W31740  12.213   2.965   4.320  0.1833 -0.0155 -0.2254
18327W        W31741  12.621   0.081  13.224  0.0398 -0.0433 -0.1930
18328W        W31742   6.495   3.002   3.789  0.0175  0.3908  0.2789
18329W        W31743   5.731  10.830  13.351  0.4325  0.1423 -0.1497
18330W        W31744  15.779   2.680   1.413  0.2265  0.1083 -0.1799
18331W        W31745   9.964  17.450  13.723 -0.0454  0.2731  0.3196
18332W        W31746  11.445   0.429  10.201  0.2195  0.1105  0.0349
18333W        W31747  14.639  11.940  13.045  0.1991 -0.0810  0.0060
18334W        W31748   7.688  11.467  14.224 -0.0613  0.0175 -0.1149
18335W        W31749  17.451   9.822   4.358 -0.1018 -0.1682  0.0524
18336W        W31750  15.706  10.214  11.668 -0.0347 -0.3209  0.0584
18337W        W31751  14.898  17.871   3.259  0.2032  0.0304  0.1503
18338W        W31752   7.371  10.397  16.111  0.0224 -0.4784  0.2300
18339W        W31753  18.329  15.154  13.158 -0.1131 -0.1486 -0.0158
18340W        W31754  11.617   2.732   3.215 -0.1269  0.1194  0.1167
18341W        W31755  14.016   0.284  13.883  0.0478  0.0118 -0.0567
18342W        W31756   7.253  10.614  10.988 -0.1462  0.0198 -0.0448
18343W        W31757   8.386   3.040  12.115 -0.0445 -0.2372 -0.2413
18344W        W31758  15.728   3.209  14.112  0.0282  0.1696 -0.0554
18345W        W31759   7.206   4.227   5.305 -0.0621 -0.1046 -0.0285
18346W        W31760   1.689   1.218   2.405 -0.0023 -0.0605  0.0782
18347W        W31761   2.807  11.809  10.906  0.3018  0.1888  0.0288
18348W        W31762   6.923   5.607  16.081 -0.2095 -0.0329  0.1474
18349W        W31763   2.883  12.472   2.456  0.1048  0.0749 -0.0168
18350W        W31764  12.323   0.220   1.643 -0.0621  0.0943 -0.4801
18351W        W31765   9.592   8.850   2.983  0.1635  0.0361 -0.3932
18352W        W31766  11.387   2.019   2.083  0.1353 -0.0023  0.1925
18353W        W31767   8.799   1.164   2.342 -0.2069  0.0110  0.0274
18354W        W31768   9.702   2.269   2.229  0.0514  0.1190  0.1140
18355W        W31769   3.160  17.001   2.510  0.0457  0.2343  0.1050
18356W        W31770   1.431   1.866  14.189  0.0676  0.0382 -0.1006
18357W        W31771  12.672   4.316   5.049 -0.0206 -0.1946  0.2560
18358W        W31772   0.739  13.711   4.384  0.0269 -0.1211  0.2037
18359W        W31773  12.656   0.673  13.970  0.1037  0.3925  0.3687
18360W        W31774   9.432   4.939   1.501  0.2438  0.2843 -0.1327
18361W        W31775  14.906   1.453   0.111  0.0931  0.0532 -0.3738
18362W        W31776  12.553   1.410   5.698  0.0128  0.3779 -0.0873
18363W        W31777   9.591   4.997   4.068  0.0625 -0.1701 -0.1532
18364W        W31778  13.945  14.318   5.662 -0.1071 -0.2245  0.1180
18365W        W31779  12.896  17.806  10.503 -0.4333 -0.1897  0.1821
18366W        W31780   1.835   8.866   5.064  0.2817 -0.4353  0.0645
18367W        W31781   1.686   4.806  16.066 -0.0446 -0.0523  0.4006
18368W        W31782   4.094   7.495  11.748  0.1809  0.0159 -0.0805
18369W        W31783  15.391  10.190   2.929 -0.1536  0.3581  0.2756
18370W        W31784  14.590  13.996  14.555 -0.1561 -0.1094 -0.0447
18371W        W31785   4.939   5.814  15.467 -0.1687  0.3314  0.0728
18372W        W31786  11.760   6.546  12.939 -0.0135 -0.1464  0.2315
18373W        W31787   5.162  16.900  11.052 -0.2592 -0.0573  0.0034
18374W        W31788  15.583  14.514  14.656  0.2538  0.0099 -0.0502
18375W        W31789  16.537  16.134  10.794 -0.1021 -0.0539 -0.0426
18376W        W31790   1.760   6.595   0.965 -0.1266  0.2495  0.0942
18377W        W31791   6.895   8.920   5.036 -0.3218  0.2343  0.1259
18378W        W31792   7.061   3.788  10.725  0.1255  0.2097  0.0532
18379W        W31793   3.798   8.876   2.063  0.3391  0.2874 -0.0090
18380W        W31794  16.165   5.897  12.719  0.0167  0.0644  0.0183
18381W        W31795  15.494   8.784  14.486 -0.0619 -0.0476  0.0223
18382W        W31796  11.488   1.368  12.135 -0.0900 -0.1242 -0.2648
18383W        W31797  16.489  15.629  12.373 -0.0223 -0.1214  0.1011
18384W        W31798  11.312   3.820   5.370 -0.0800  0.1529 -0.1226
18385W        W31799  14.516   8.240   1.952 -0.0473  0.0902  0.0781
18386W        W31800  12.526  17.162   3.535 -0.0663  0.1562 -0.1663
18387W        W31801  17.758   9.511   2.647 -0.1314 -0.3646 -0.1315
18388W        W31802   7.199  13.035  11.946  0.1295  0.0398  0.1048
18389W        W31803   1.137   7.779  12.085 -0.2338  0.1760 -0.1707
18390W        W31804  12.372  14.494  11.269 -0.0276 -0.0985  0.0616
18391W        W31805   1.843   6.605   2.607  0.1233  0.0331 -0.2798
18392W        W31806   2.523  13.561  15.815 -0.2676  0.0707 -0.0443
18393W        W31807  18.020  16.949  16.006  0.1554  0.0240 -0.0674
18394W        W31808   3.582  11.244   1.412  0.0577  0.1123 -0.2248
18395W        W31809   7.041  18.391  10.962  0.0276 -0.0640  0.2424
18396W        W31810   9.587   6.110  10.434  0.2686  0.3921  0.1627
18397W        W31811   8.605  15.326  11.454  0.0772  0.1261 -0.0001
18398W        W31812  17.458  10.885   1.494  0.0383  0.2642 -0.4640
18399W        W31813  13.017   1.589   3.519 -0.1115 -0.0438  0.2123
18400W        W31814   7.923   5.089  12.294 -0.2226 -0.1551  0.0487
18401W        W31815  15.195   7.106  13.884 -0.1716  0.0516  0.3365
18402W        W31816   2.975   8.075  11.261  0.0225 -0.3560 -0.1222
18403W        W31817  15.730   7.405   1.518  0.0482  0.2958 -0.2528
18404W        W31818  10.587  13.058   3.224 -0.1387  0.1019  0.3519
18405W        W31819   9.305   2.895  10.815 -0.1042 -0.1638  0.1656
18406W        W31820  10.462   2.292  11.400  0.2122 -0.1428 -0.0815
18407W        W31821  14.852  10.756   4.141 -0.0043 -0.0534 -0.1433
18408W        W31822  14.731   9.973  13.444 -0.1369  0.5058  0.2157
18409W        W31823   9.443   1.485   0.920 -0.1314 -0.1006  0.0827
18410W        W31824  17.094  11.498  12.686 -0.0203  0.0457  0.1938
18411W        W31825  17.071   4.666  12.691 -0.0692  0.0127  0.0230
18412W        W31826  17.392   0.949  13.957  0.0104 -0.1029  0.0564
18413W        W31827  13.550  11.779  12.195  0.0758  0.0281 -0.0785
18414W        W31828   9.981   5.739  11.166  0.0763 -0.0537  0.0965
18415W        W31829   6.623  14.233   3.409  0.2592  0.1592 -0.0536
18416W        W31830   1.043   9.389  14.837  0.1134  0.0027  0.2860
18417W        W31831   6.959   2.536  15.860  0.0229 -0.0292 -0.0770
18418W        W31832  18.352   4.785   1.005 -0.0667  0.2536 -0.1082
18419W        W31833   3.210   1.198   3.117 -0.0852 -0.0126  0.0237
18420W        W31834   9.622  12.857   2.649  0.1445 -0.0739  0.1084
18421W        W31835   2.229   2.261  12.105  0.2112 -0.1413 -0.0217
18422W        W31836   4.283  14.446   3.825  0.0153 -0.1836 -0.1297
18423W        W31837   9.352  17.401  15.893  0.0887 -0.3945 -0.2828
18424W        W31838   4.642   6.510  12.342  0.3221  0.1498 -0.0188
18425W        W31839  17.052  15.592  13.303  0.1211 -0.2202  0.0025
18426W        W31840  11.772  16.561  14.816 -0.2438 -0.3233  0.0407
18427W        W31841   7.588  15.158  13.805  0.1767 -0.0013  0.1121
18428W        W31842  16.014   1.949  15.201 -0.0491  0.0480  0.3659
18429W        W31843   0.021  12.847   1.917  0.2404  0.3412 -0.2240
18430W        W31844  15.261   4.362   5.057  0.0877  0.0323 -0.2064
18431W        W31845  17.285  18.146   4.111  0.0863  0.0428  0.0306
18432W        W31846  11.748  11.017   5.735  0.1207 -0.2932 -0.0029
18433W        W31847   1.929   5.704   6.235  0.0696 -0.1176  0.3568
18434W        W31848   1.197  12.556  16.056 -0.0430  0.0889 -0.2189
18435W        W31849   2.566  16.126   5.669  0.4151  0.0269 -0.0690
18436W        W31850  14.468  15.293  15.490  0.2402 -0.2682  0.0106
18437W        W31851  15.446  10.215  11.173 -0.0787  0.0315 -0.0754
18438W        W31852  16.548  16.283  10.303 -0.1138  0.1948 -0.1141
18439W        W31853   6.338  11.513   1.076  0.1356  0.3507 -0.0462
18440W        W31854  17.931  13.144  14.939  0.1386  0.0800  0.0754
18441W        W31855  18.108   6.189   1.405 -0.0810 -0.1035 -0.1260
18442W        W31856   8.286   0.517  14.298  0.2026 -0.1514 -0.0150
18443W        W31857  17.948   9.413  14.349 -0.5256 -0.1273  0.0386
18444W        W31858   9.420   9.061  11.194  0.0651  0.0031  0.1951
18445W        W31859   1.161   1.303  11.576 -0.4113  0.0176  0.0811
18446W        W31860  12.029   6.822   2.815  0.1591  0.0721  0.2612
18447W        W31861  10.633  10.450   2.411  0.1357  0.1422 -0.3690
18448W        W31862  10.750   7.661  13.383 -0.0867  0.2690  0.0991
18449W        W31863  18.343   4.346   3.119  0.0148 -0.2892 -0.0619
18450W        W31864  12.790   2.179  15.778  0.1561 -0.0262 -0.1080
18451W        W31865  12.984  12.051  15.716 -0.0469 -0.0532 -0.0889
18452W        W31866   5.023   9.639  14.926  0.1681  0.0799 -0.3548
18453W        W31867   1.438   1.455  12.693 -0.3937 -0.2828  0.1043
18454W        W31868   2.173   3.064   2.385 -0.0123  0.1678 -0.1596
18455W        W31869  10.743   1.946   4.268  0.3003  0.0704 -0.0873
18456W        W31870   8.300  11.136  10.417 -0.0705  0.0073 -0.0651
18457W        W31871   6.493  14.925  10.984  0.0292 -0.1623 -0.1762
18458W        W31872   2.156   6.826   0.030  0.1277  0.1516 -0.1123
18459W        W31873  12.157   2.931   5.383 -0.2914  0.0779  0.2429
18460W        W31874  18.414  17.753  12.076  0.1965 -0.0986  0.1495
18461W        W31875  17.416   3.314  14.420  0.2232  0.1142  0.2575
18462W        W31876  11.236  18.237  14.983  0.1920  0.2868  0.3795
18463W        W31877   9.982  15.898  14.492  0.1105  0.0671 -0.0863
18464W        W31878  17.942   8.371   6.141  0.0457  0.2278 -0.1176
18465W        W31879  13.642  16.273   4.527 -0.1443  0.3321  0.3425
18466W        W31880  11.051  13.472  14.368  0.1925  0.0974 -0.0781
18467W        W31881   0.270  16.428  12.759  0.2196  0.0837  0.1690
18468W        W31882   5.373   2.308   4.214  0.1291 -0.3011  0.1675
18469W        W31883   1.267  15.483  14.695  0.1234  0.1609  0.2463
18470W        W31884   0.696   4.024  10.951 -0.0734  0.1492 -0.1101
18471W        W31885  16.485   6.109   4.092  0.0394 -0.1143  0.3930
18472W        W31886  16.974   9.891  13.417  0.3539  0.4353 -0.0757
18473W        W31887  11.708  13.165   0.906  0.1024  0.0652 -0.1846
18474W        W31888   5.713   4.082   3.609 -0.3535 -0.1450  0.3484
18475W        W31889   5.487   6.161   1.835  0.3958  0.3251 -0.0404
18476W        W31890   8.915  10.786   4.216 -0.1372 -0.2047 -0.1585
18477W        W31891  10.479   1.984   2.319  0.0637 -0.1130  0.1274
18478W        W31892  16.315  17.848  15.232 -0.0214 -0.3112  0.0600
18479W        W31893  10.852   3.387   4.740 -0.0131 -0.1602 -0.3496
18480W        W31894  16.568   9.479   1.783 -0.3733  0.2690 -0.2160
18481W        W31895   8.209  16.663   0.273  0.0007 -0.1536 -0.2131
18482W        W31896   6.482  17.977   1.765 -0.2080  0.0889  0.0567
18483W        W31897   4.231   2.956  14.884  0.1604  0.0751  0.0267
18484W        W31898  12.201   6.208   2.307  0.0614  0.2680  0.1298
18485W        W31899  18.438  18.396   5.322  0.0403  0.3349 -0.2763
18486W        W31900  12.082   7.408  12.541  0.1646  0.1824 -0.0199
18487W        W31901   8.134  11.416  14.444 -0.2449  0.0478  0.1698
18488W        W31902   5.232   0.792  11.399 -0.4049  0.0898 -0.2023
18489W        W31903   6.690   4.743  11.577  0.1334  0.3859  0.2556
18490W        W31904  10.254   9.005  10.619 -0.2362 -0.0184 -0.0928
18491W        W31905   9.637  16.798  13.451  0.0309  0.0363 -0.1884
18492W        W31906   7.368   5.388  16.024 -0.1555 -0.0857 -0.0171
18493W        W31907   6.716   8.178  14.130 -0.1422  0.2716 -0.0608
18494W        W31908  16.728  11.983   6.198  0.0364  0.2018  0.3144
18495W        W31909  10.969  10.055   2.008  0.1103 -0.0644 -0.0358
18496W        W31910   4.025  17.255  14.059 -0.1082 -0.0518  0.1399
18497W        W31911   1.373  14.117  11.374  0.0531  0.1376  0.1346
18498W        W31912   8.482  14.460   9.684 -0.1518  0.1227  0.0410
18499W        W31913   7.354  10.485  11.948 -0.0986 -0.0174 -0.2685
18500W        W31914  12.659   6.412  11.106 -0.0456  0.0672 -0.2495
18501W        W31915   2.457  11.800   0.437 -0.3083 -0.1732  0.0047
18502W        W31916  13.129   3.299   1.261  0.0109 -0.0697  0.1110
18503W        W31917  17.106  10.258   1.447  0.1935  0.1290  0.3233
18504W        W31918   3.490  14.720  15.227 -0.1664 -0.0651  0.1935
18505W        W31919   7.590   8.556   1.742  0.2053  0.0536 -0.2220
18506W        W31920   0.301  14.629   1.361 -0.2066  0.1942 -0.0727
18507W        W31921  11.880  17.310   3.027 -0.2606 -0.0822  0.0875
18508W        W31922   8.847  12.388   5.145  0.0164  0.0498 -0.0567
18509W        W31923  15.013  13.331   2.587 -0.2969 -0.0608 -0.0127
18510W        W31924  13.594   0.214  10.919  0.3944  0.1042  0.0485
18511W        W31925  14.650   0.745   3.899  0.2012 -0.2382 -0.2745
18512W        W31926   4.443   2.918  12.056  0.4556 -0.0545  0.2607
18513W        W31927  14.146  14.900  11.302  0.0457  0.1292 -0.0113
18514W        W31928  16.900  13.399   5.114 -0.1267  0.1940 -0.0093
18515W        W31929  17.539   2.882   5.878 -0.2836  0.0542  0.1888
18516W        W31930  13.716  17.851   3.273  0.1738  0.1284 -0.1227
18517W        W31931   5.435  18.256   5.773  0.0759  0.0036 -0.1593
18518W        W31932   3.567   4.845  12.793 -0.1723 -0.1754 -0.1196
18519W        W31933   7.151  11.920   1.157  0.0459  0.1078 -0.3533
18520W        W31934   5.476   1.586   0.543 -0.2034 -0.1946  0.3457
18521W        W31935   6.634   3.202   5.612 -0.2674  0.0059 -0.0630
18522W        W31936   2.149   3.553  11.895  0.1451  0.0959 -0.0976
18523W        W31937   5.627  13.453  12.322  0.0457 -0.0558  0.0341
18524W        W31938   4.635   3.345   2.806  0.0338 -0.2782 -0.0235
18525W        W31939  14.196   6.383   3.504 -0.1504  0.4681  0.2036
18526W        W31940  12.126  10.893  15.769  0.0946  0.0823  0.3295
18527W        W31941   6.439  17.538  10.012  0.1350 -0.2008  0.0464
18528W        W31942  10.292  16.287   1.125  0.0757 -0.1831 -0.2630
18529W        W31943   8.867   5.570  10.499  0.0980 -0.2761 -0.1267
18530W        W31944   4.355  14.565  10.913  0.0592  0.1117 -0.0746
18531W        W31945   5.368  13.740  14.810 -0.5812  0.0144 -0.0114
18532W        W31946  14.916   0.245   4.776  0.3813  0.0801 -0.1148
18533W        W31947  18.303   2.647  11.153 -0.1591  0.4135 -0.0595
18534W        W31948   9.789   1.236  13.868 -0.3830  0.1493  0.1542
18535W        W31949   6.304   9.520   4.644  0.2152 -0.1247  0.1672
18536W        W31950   4.783   7.572   3.036 -0.0263 -0.1429  0.2414
18537W        W31951   0.906  15.064   4.807  0.1937 -0.2612 -0.3074
18538W        W31952   8.350   2.313   2.106 -0.0932 -0.0037 -0.3019
18539W        W31953  15.625  12.355  11.947 -0.0316 -0.2135 -0.0710
18540W        W31954  14.556  16.857   4.554  0.2112 -0.2041 -0.4199
18541W        W31955   0.098  17.755   4.502  0.2933 -0.0938 -0.3577
18542W        W31956  13.395   9.112  10.662  0.4276  0.4056  0.0938
18543W        W31957   3.716   6.574  12.070 -0.2728  0.1524 -0.0015
18544W        W31958   7.911  15.119   2.196 -0.4764  0.1312  0.0419
18545W        W31959   5.952  11.080   3.938 -0.2079 -0.1212 -0.0068
18546W        W31960   3.616   3.382   0.088  0.0686 -0.0229 -0.3104
18547W        W31961  18.254  10.650   1.647  0.1334  0.1077 -0.0076
18548W        W31962   4.826   2.768   2.832  0.0588 -0.0611  0.1202
18549W        W31963   5.560  18.400   2.695  0.2119 -0.0413 -0.2152
18550W        W31964  10.564  14.790  15.650 -0.1839  0.0974  0.2889
18551W        W31965  15.317   7.644  16.000 -0.1523 -0.1845 -0.0659
18552W        W31966   3.668  17.109   0.954 -0.0188 -0.0038  0.1985
18553W        W31967   9.128  10.136   3.606  0.1554 -0.1086  0.3434
18554W        W31968   6.656   4.197   2.812 -0.1243 -0.1166 -0.0038
18555W        W31969   5.512  16.319  13.361 -0.2375 -0.0871 -0.2078
18556W        W31970   8.635  17.801  11.804  0.1570 -0.2945 -0.2289
18557W        W31971   8.976   0.585   3.482 -0.2352 -0.2111 -0.1724
18558W        W31972  17.630  10.401   2.164  0.3058  0.0433  0.2428
18559W        W31973  16.552   6.428   5.596 -0.3043  0.2157  0.2020
18560W        W31974   7.847  10.165   2.257 -0.2734  0.0096  0.1177
18561W        W31975  11.705   2.800   1.546 -0.2769 -0.1794 -0.0656
18562W        W31976   5.917   2.871  13.066 -0.0051 -0.2300 -0.1964
18563W        W31977   7.227   0.155  11.344 -0.2186  0.1008  0.2182
18564W        W31978   8.440  12.477   2.646 -0.1697  0.0710 -0.1532
18565W        W31979  16.765   9.264   3.126 -0.0987  0.1801  0.0104
18566W        W31980   6.088   1.832  13.645 -0.0690  0.0054  0.1732
18567W        W31981   2.542   7.077   2.561 -0.1252  0.1087  0.2216
18568W        W31982  17.659   8.848  10.980 -0.2088  0.2240 -0.0013
18569W        W31983   8.621   3.272  12.882  0.0431  0.3163 -0.3497
18570W        W31984  12.289  17.862   1.604  0.1669  0.0999  0.1774
18571W        W31985  16.431   7.383   2.649  0.3351  0.0168  0.0511
18572W        W31986  16.989   5.794  13.059 -0.0225 -0.1331  0.2464
18573W        W31987   8.563   2.715   4.731  0.2274 -0.1016 -0.0487
18574W        W31988  15.228   1.755   5.517 -0.6572 -0.1828 -0.2253
18575W        W31989  15.668   3.519   5.335  0.0341  0.1367 -0.1660
18576W        W31990  14.436   8.540   1.160  0.0441 -0.1291  0.0454
18577W        W31991  15.403   9.539   3.518 -0.0903 -0.4061 -0.3645
18578W        W31992   4.901  11.103   6.012 -0.0499 -0.2249 -0.1043
18579W        W31993   0.245   2.347  15.006  0.1378  0.0239  0.3428
18580W        W31994   9.920  14.252  10.568  0.0311 -0.0584 -0.0265
18581W        W31995  17.572   6.291   4.757  0.2784 -0.3302 -0.1598
18582W        W31996  14.607   7.446  12.799 -0.0791  0.1200 -0.2535
18583W        W31997  15.383   8.001   6.190  0.1993 -0.0563  0.0646
18584W        W31998  13.507  14.952  14.263 -0.0405  0.0116 -0.2472
18585W        W31999   2.075  17.811   2.861 -0.0256 -0.3521 -0.1355
18586W        W32000   7.592   0.055  12.345  0.2070 -0.0640  0.1321
18587W        W32001  16.030  16.007   4.297 -0.1393 -0.1025 -0.1768
18588W        W32002   6.607   1.530   5.024 -0.1791 -0.2712  0.0504
18589W        W32003   5.667   0.019  12.023  0.1864  0.0579  0.1981
18590W        W32004   7.348   9.368   5.945  0.0735 -0.4721 -0.2087
18591W        W32005   2.649  10.301   4.330 -0.2477 -0.1520 -0.1089
18592W        W32006  13.082  16.086   3.748 -0.0635  0.0927  0.1467
18593W        W32007   3.166   6.566   3.646 -0.1513  0.0778 -0.1095
18594W        W32008  13.971  14.159   4.380  0.2435  0.1216 -0.0675
18595W        W32009   9.405  15.880  15.835 -0.1747 -0.0035  0.0867
18596W        W32010   0.775  17.580   6.105  0.3004  0.0769  0.0786
18597W        W32011   8.359  14.209  14.400 -0.0333 -0.1381 -0.3222
18598W        W32012   0.095  13.273   4.671 -0.1267 -0.4063 -0.0285
18599W        W32013  10.535   4.523   6.277 -0.0230  0.0446 -0.1182
18600W        W32014  11.596  17.312   1.796  0.4431 -0.3427  0.3446
18601W        W32015   8.661   3.457  12.470  0.0450  0.1104 -0.1327
18602W        W32016  12.808  13.226   3.956 -0.0528 -0.0168 -0.1219
18603W        W32017  12.109   1.127  10.484  0.0614  0.1304  0.1072
18604W        W32018   0.273   1.051  14.226  0.2684  0.0189  0.1765
18605W        W32019   3.605   1.747  11.994  0.2058 -0.0669 -0.0429
18606W        W32020  12.463   5.553   0.363  0.0751 -0.1649 -0.0757
18607W        W32021   5.855  15.154   1.598  0.0046 -0.2712  0.1486
18608W        W32022   3.747  17.869  15.105  0.2289  0.0510  0.3116
18609W        W32023  15.874   5.354   4.020 -0.1177  0.2583  0.0233
18610W        W32024  14.172   8.212   1.589 -0.0567  0.1943 -0.0201
18611W        W32025  13.440   3.740   2.639  0.0163 -0.0344 -0.2454
18612W        W32026   5.419  17.231   3.344 -0.1350 -0.3007 -0.1312
18613W        W32027  11.313   6.330   4.907 -0.1274 -0.1030  0.3299
18614W        W32028   8.867   2.816   2.688 -0.1120  0.2157  0.1519
18615W        W32029  18.049   6.808   1.660 -0.2153 -0.1834  0.0632
18616W        W32030  10.918   3.648   0.850  0.0823 -0.0630  0.1279
18617W        W32031  13.570   6.553  12.599 -0.1635 -0.0460 -0.1223
18618W        W32032   0.819   6.925  14.315 -0.2488 -0.2853  0.1255
18619W        W32033   3.944   2.302   3.514 -0.1597 -0.0107  0.3095
18620W        W32034  17.716  15.578   2.880  0.0635  0.1359  0.1555
18621W        W32035   9.560  16.096   1.624 -0.1540 -0.1696 -0.3085
18622W        W32036   0.098   5.968   4.664  0.0344  0.0952  0.2081
18623W        W32037   6.996  16.399   1.340 -0.1349 -0.0794 -0.0175
18624W        W32038   7.699   0.321   4.706  0.1009 -0.0300  0.2091
18625W        W32039   3.140  13.552   0.189 -0.2456 -0.1309  0.1672
18626W        W32040   8.361  12.516  15.476 -0.0652  0.2449 -0.1467
18627W        W32041   4.837  12.737   9.420  0.0419 -0.2714 -0.3974
18628W        W32042   3.606  12.819   3.652 -0.1100  0.2082 -0.1692
18629W        W32043  14.074  12.652   1.150  0.2510  0.0374  0.1035
18630W        W32044  13.580   1.563  13.782  0.0614 -0.0094 -0.1311
18631W        W32045   7.455  17.726   1.865 -0.1549  0.0238 -0.0987
18632W        W32046  16.871  11.208  12.352 -0.0366  0.0311 -0.0276
18633W        W32047  11.022  11.654   1.262  0.1427  0.0813  0.1631
18634W        W32048   4.697  15.966   4.471  0.0129 -0.0245  0.0542
18635W        W32049  13.481  11.364   2.473 -0.0057 -0.2253 -0.0186
18636W        W32050   3.600  15.496   3.239 -0.1129  0.0049  0.1977
18637W        W32051  18.328   5.523   0.846 -0.1937 -0.2734 -0.2536
18638W        W32052  10.932  10.467   6.238 -0.1768  0.2348 -0.1562
18639W        W32053  10.429   5.385  15.462  0.0455 -0.0042 -0.1330
18640W        W32054   6.914   4.673  14.353 -0.1414 -0.1270  0.0282
18641W        W32055   7.365   2.902  15.667 -0.1222 -0.1499 -0.0560
18642W        W32056  12.361   8.867   0.287 -0.0485 -0.0982  0.0464
18643W        W32057  16.656  18.384  13.261  0.2068 -0.1208  0.3014
18644W        W32058  16.569   0.860   3.343 -0.2472 -0.0954  0.2994
18645W        W32059  11.960   9.050   0.491  0.2448  0.0056 -0.1330
18646W        W32060  16.950   4.231   0.510  0.0263  0.2067 -0.0946
18647W        W32061  16.608  12.698   1.924 -0.2718  0.0283  0.1762
18648W        W32062   6.399   7.167  16.181  0.2614  0.2774 -0.3185
18649W        W32063   7.815  11.180   4.921  0.2106  0.3594 -0.0395
18650W        W32064   9.185  15.565   0.419 -0.0551 -0.2303 -0.2572
18651W        W32065  14.854   5.383   5.819  0.0924  0.2218  0.0958
18652W        W32066  17.098   2.816  14.511 -0.0933 -0.1284 -0.0967
18653W        W32067  10.902  13.695   2.772  0.0550  0.2878  0.1079
18654W        W32068  13.416   9.942   0.900 -0.0370 -0.0154  0.1603
18655W        W32069   0.415   7.109  11.938 -0.0337 -0.0783  0.2480
18656W        W32070  11.706   9.950  13.951 -0.3587  0.1262 -0.1291
18657W        W32071   4.454  10.530  15.650 -0.0931 -0.0493 -0.0087
18658W        W32072   0.744   6.032   4.057  0.1673 -0.0561 -0.2052
18659W        W32073   5.627   0.592   0.075  0.3312 -0.0605  0.0328
18660W        W32074  16.397   1.900  16.266  0.1053 -0.0766  0.0240
18661W        W32075   4.177   6.101   4.803 -0.0097  0.0976 -0.5799
18662W        W32076   4.603  14.568  13.386  0.2629  0.2215 -0.1546
18663W        W32077   9.713  17.000  16.003 -0.1853  0.0355 -0.1068
18664W        W32078   2.539  17.368  11.895 -0.1806  0.0930 -0.0458
18665W        W32079   7.969  17.946  14.363  0.1160 -0.3484  0.2464
18666W        W32080   9.522   0.535   2.804  0.0165 -0.1158  0.0817
18667W        W32081   8.964  15.120   2.129 -0.0992 -0.0251 -0.1211
18668W        W32082  13.329  12.124  13.435 -0.0658  0.2274 -0.2478
18669W        W32083   0.985  10.275  14.888 -0.2183 -0.3442 -0.0808
18670W        W32084   2.772   0.133  11.665 -0.0641 -0.1312  0.4169
18671W        W32085  12.655  12.941  12.364 -0.2585  0.0367  0.2556
18672W        W32086  10.320   2.811   4.408 -0.0659  0.0503  0.0340
18673W        W32087   5.235  12.647   0.132 -0.0004 -0.0913 -0.1352
18674W        W32088  15.329   4.850  13.054 -0.3368  0.1945  0.0025
18675W        W32089   8.149  12.824   5.751  0.6134  0.2637 -0.1438
18676W        W32090   0.951   8.722  14.327  0.1951  0.2380 -0.1098
18677W        W32091   3.768   6.206   3.138 -0.1908  0.0674  0.3397
18678W        W32092  13.792  15.705   4.500 -0.0457  0.2174 -0.1206
18679W        W32093   3.778   0.147  13.508 -0.0593 -0.2214  0.2609
18680W        W32094   4.756   8.841   5.406 -0.0343 -0.1329  0.1482
18681W        W32095  18.009  13.093   0.384  0.1148  0.1007  0.4525
18682W        W32096  10.216   7.266  10.815  0.1669 -0.2327  0.0925
18683W        W32097  11.860  15.491   2.030  0.1579 -0.2232 -0.3564
18684W        W32098   3.325   5.142  12.483  0.0392  0.1260 -0.1092
18685W        W32099   9.519  14.271   4.530  0.0918  0.2216 -0.2400
18686W        W32100  10.708  15.573   0.952 -0.3834  0.1057  0.2278
18687W        W32101  11.612   3.732   4.293  0.3856 -0.3038 -0.2612
18688W        W32102  11.676   5.014   5.067 -0.0568 -0.0889  0.0111
18689W        W32103  12.840   5.420   0.647 -0.0417  0.3408  0.2846
18690W        W32104  16.753   8.805  12.052 -0.0889  0.1160 -0.0806
18691W        W32105   8.126  15.861  13.241  0.0395  0.0402  0.0284
18692W        W32106   7.947   9.153  11.625 -0.0248 -0.2053 -0.2188
18693W        W32107  17.706  16.108   4.766 -0.0903  0.0014  0.0913
18694W        W32108   1.757  12.903  15.417 -0.2389  0.0954 -0.0482
18695W        W32109   5.713  17.758   2.120 -0.0906  0.4409  0.2667
18696W        W32110  17.529   6.755  14.024 -0.3922 -0.0958 -0.0098
18697W        W32111   9.277  11.536   0.808 -0.3368  0.0327  0.1032
18698W        W32112  12.578   7.016   5.917 -0.1452 -0.3041 -0.0612
18699W        W32113  10.063   2.218   2.559 -0.1755 -0.2778 -0.4360
18700W        W32114  15.767   6.904  14.468 -0.0508  0.0621  0.1426
18701W        W32115  14.089   9.087  10.001  0.2964 -0.0227 -0.0974
18702W        W32116  18.433   4.129  13.149  0.4128 -0.1447  0.1665
18703W        W32117   0.413   9.851  12.530 -0.0111  0.0529 -0.2690
18704W        W32118  15.621  15.917  14.392 -0.0213 -0.0680 -0.1375
18705W        W32119   2.208  16.866  14.032  0.0213  0.2619 -0.0653
18706W        W32120  15.168   7.755   5.417 -0.1031 -0.0383 -0.0744
18707W        W32121  17.248  11.019   3.876  0.2251 -0.1570  0.4126
18708W        W32122   2.765  18.109  14.694  0.1501 -0.1399  0.2904
18709W        W32123   0.688  12.161  14.519 -0.0590  0.0371  0.2565
18710W        W32124  15.365  16.240   4.767  0.0765 -0.0362  0.0324
18711W        W32125  12.206  11.322   5.726 -0.1157  0.1002 -0.0507
18712W        W32126  12.100  15.790  11.385 -0.1378  0.0155 -0.1472
18713W        W32127   6.242  12.082  13.796 -0.1665  0.2624 -0.1227
18714W        W32128   3.557   1.949  12.622 -0.1580 -0.0235 -0.0227
18715W        W32129  12.283   4.200  16.096 -0.2246  0.0580 -0.0306
18716W        W32130  11.989   0.680  14.462 -0.1587  0.3511 -0.1731
18717W        W32131   7.821   8.291  11.069  0.0155  0.0430 -0.1040
18718W        W32132  17.753  11.700   4.721 -0.0978  0.2937 -0.1587
18719W        W32133   1.062   8.945  13.250 -0.3740 -0.0909  0.0856
18720W        W32134   0.464  17.877   2.167 -0.0405  0.3333  0.4920
18721W        W32135   9.800  17.505  15.825 -0.0876 -0.0363  0.0370
18722W        W32136   2.898  10.889   4.939 -0.0158 -0.1804 -0.0672
18723W        W32137  12.991  10.244   0.799  0.4310 -0.0584  0.3811
18724W        W32138   3.289   4.978   4.526 -0.0019 -0.1485  0.0368
18725W        W32139   4.643  15.044   1.547 -0.2180  0.1836 -0.1369
18726W        W32140   3.033   0.679   4.082 -0.0077 -0.1411 -0.0086
18727W        W32141  10.771   8.488  12.027  0.1271 -0.0234  0.1745
18728W        W32142  11.145  17.301   4.426  0.0867 -0.0320  0.0441
18729W        W32143  15.069  18.126  11.153  0.1325  0.0163  0.0719
18730W        W32144  14.433   7.970   4.026  0.2257  0.0688  0.0979
18731W        W32145  18.084   7.019   5.377 -0.1109 -0.0364  0.1405
18732W        W32146  13.294   6.059  15.243 -0.2506 -0.2706 -0.2458
18733W        W32147   0.891   7.241  13.880 -0.3235  0.1637  0.1981
18734W        W32148   8.795   3.541   3.153 -0.1615 -0.2554  0.1929
18735W        W32149  14.456   5.744  13.378  0.2402  0.2121 -0.3861
18736W        W32150  10.057  17.117   0.719 -0.0317  0.0181  0.0943
18737W        W32151   3.536   9.343   1.959  0.0197  0.3410 -0.4289
18738W        W32152  17.965  12.807  10.903 -0.3416 -0.0895  0.0109
18739W        W32153   8.483   2.432  12.944  0.1732 -0.0289 -0.2125
18740W        W32154  16.002   0.368  15.216  0.1341  0.0869  0.1578
18741W        W32155   2.010  17.468  11.961  0.3095  0.0931 -0.2834
18742W        W32156   2.860  17.270   4.800  0.2027 -0.0049  0.0921
18743W        W32157  11.991   7.762   2.196  0.0896  0.1970 -0.1831
18744W        W32158   1.260  15.155  10.293 -0.0028 -0.0512  0.1212
18745W        W32159   5.722   1.285   5.523 -0.0873  0.0910  0.1279
18746W        W32160   2.271  12.963  14.174  0.1201 -0.0092 -0.0507
18747W        W32161  17.882   4.982  12.080 -0.5162  0.0446  0.1575
18748W        W32162   6.358  12.009  12.699 -0.0478  0.1858  0.0016
18749W        W32163   8.351  10.058   2.301 -0.0693  0.0073  0.2513
18750W        W32164   0.908  17.200  13.922  0.2283 -0.0876  0.2153
18751W        W32165   8.244  15.707  12.727 -0.0440 -0.0097  0.3065
18752W        W32166   3.673   7.045  10.518 -0.1981  0.1074  0.3563
18753W        W32167   6.248   1.084   2.667 -0.0224 -0.2113 -0.4142
18754W        W32168   1.842   1.747  14.566 -0.0546 -0.5071  0.0052
18755W        W32169  18.087   8.169  14.274  0.3441  0.0913  0.1445
18756W        W32170   8.705  17.455  14.770 -0.0245 -0.3372  0.1298
18757W        W32171  11.160  16.017   1.232  0.1784 -0.0886 -0.3738
18758W        W32172  15.642   9.108  10.418  0.1183 -0.0992  0.1678
18759W        W32173   0.307  12.354   4.605  0.1680 -0.1836 -0.0652
18760W        W32174   4.888  14.718   1.261 -0.0167 -0.0894 -0.2165
18761W        W32175   6.703   7.414   1.619  0.1542 -0.0509 -0.1868
18762W        W32176   7.304   4.193  15.345  0.0224  0.2244  0.0855
18763W        W32177   1.781   3.678   6.509 -0.2387 -0.2320  0.0905
18764W        W32178   2.333  11.787   1.774 -0.2422 -0.1642  0.2617
18765W        W32179  15.150   8.546   5.430 -0.0497 -0.4416 -0.0827
18766W        W32180  12.684   6.583   6.129 -0.2154  0.1643 -0.2628
18767W        W32181   5.454   3.886  13.922  0.0539  0.1318 -0.4629
18768W        W32182  13.538   7.952   5.899 -0.0184 -0.0064 -0.1777
18769W        W32183   4.633   1.686   3.951 -0.3615  0.1700  0.0571
18770W        W32184  14.926  17.670   1.890  0.0874 -0.3358 -0.1171
18771W        W32185   1.294   1.474   2.668 -0.0996  0.2040  0.2389
18772W        W32186  10.909  16.225   3.106 -0.2253 -0.0261  0.0402
18773W        W32187   6.623  16.584   9.923 -0.2222  0.0969  0.3491
18774W        W32188  10.875  18.251  10.097  0.2334  0.0936  0.0796
18775W        W32189  11.261  15.876   6.295  0.2210  0.1349 -0.0700
18776W        W32190   9.566  11.004  11.916 -0.3604  0.1736  0.2652
18777W        W32191   7.738   9.201  14.009  0.1580  0.2485  0.1841
18778W        W32192  13.881  18.296  13.145  0.0013  0.0058  0.3203
18779W        W32193   0.561   1.922   4.695  0.1709  0.2161 -0.2805
18780W        W32194   3.194   4.559  13.117  0.1063  0.0588  0.0340
18781W        W32195   1.867  12.627   1.509 -0.2594 -0.0462  0.1564
18782W        W32196   4.842  13.959   0.203  0.0883 -0.1370 -0.0250
18783W        W32197   0.057   2.895   2.453  0.0430  0.0370 -0.0325
18784W        W32198   9.235  14.691  14.615 -0.1599  0.0317 -0.0005
18785W        W32199   3.675   1.415   3.024 -0.1469  0.1334 -0.3052
18786W        W32200   7.423   7.969   3.714  0.2697  0.0294  0.1726
18787W        W32201  15.015   8.834   5.011 -0.0276 -0.4164 -0.1913
18788W        W32202  13.552  16.500   3.662 -0.5032  0.1921 -0.1653
18789W        W32203  14.143   5.069   3.970 -0.0710  0.3202 -0.0131
18790W        W32204   8.477   2.371   4.278  0.0388  0.1114  0.1871
18791W        W32205  16.015   2.582   4.272  0.2301 -0.2164 -0.1641
18792W        W32206  16.577   1.991   4.229  0.2850 -0.0060  0.1697
18793W        W32207  14.639   5.366  14.644 -0.1362  0.1703 -0.0797
18794W        W32208  15.519  17.133   4.385  0.0311 -0.0714  0.0608
18795W        W32209  17.673   3.741   5.253 -0.0125 -0.1107  0.2036
18796W        W32210   6.602   0.480   1.535 -0.1111 -0.0833  0.4365
18797W        W32211   7.545  17.698  15.188 -0.1040 -0.2703 -0.1399
18798W        W32212   2.262  14.740   4.982 -0.0349  0.2330 -0.0427
18799W        W32213   4.386   9.310   2.506  0.3450  0.1040  0.3421
18800W        W32214  18.263  17.815  10.096 -0.3521 -0.1389  0.2666
18801W        W32215   2.481   5.181  15.607  0.1891  0.2817 -0.1028
18802W        W32216   5.668  11.710  11.772  0.2848  0.1187 -0.2312
18803W        W32217   2.696  10.496  12.351 -0.0255  0.2475  0.2329
18804W        W32218  11.224  16.485   4.918  0.0868 -0.0861  0.1097
18805W        W32219   1.671  12.054   1.648  0.0783 -0.0886  0.1100
18806W        W32220  17.722   5.964  12.346  0.0290  0.0592 -0.0571
18807W        W32221  15.078  12.563   6.004 -0.0984 -0.0978 -0.0344
18808W        W32222   5.059   1.692   6.133 -0.0119 -0.1151  0.1085
18809W        W32223  11.190  12.161   5.052 -0.0069  0.0004  0.0194
18810W        W32224   5.154   2.318  15.499 -0.1125  0.0432 -0.3044
18811W        W32225  15.976  18.197   0.097  0.1778  0.1129 -0.0423
18812W        W32226   3.277  15.005  14.881  0.1918  0.1265 -0.0964
18813W        W32227   6.535   5.749  14.763 -0.1554 -0.1952  0.1226
18814W        W32228  13.852   9.888  13.400  0.1784 -0.0502 -0.1681
18815W        W32229  10.902   0.084   5.110  0.2140 -0.1764  0.0016
18816W        W32230   7.390  10.130  10.808  0.2004 -0.0069  0.1582
18817W        W32231  17.000   4.050   2.022 -0.2354 -0.1439 -0.1444
18818W        W32232   0.595  15.665   3.657 -0.0128  0.3160  0.0747
18819W        W32233  11.865   8.464  12.146 -0.1273 -0.0893  0.0014
18820W        W32234  18.088   9.744  11.236 -0.1778  0.0426  0.0832
18821W        W32235  11.899   8.627  10.990 -0.2378 -0.3218 -0.0729
18822W        W32236   6.424  14.441  10.959  0.0698  0.2159  0.1673
18823W        W32237   8.202   7.156  16.145 -0.0174  0.2632  0.5867
18824W        W32238  11.123   4.934  14.050  0.1264 -0.1161 -0.1204
18825W        W32239  14.175   0.987  14.533  0.0032 -0.0478  0.0145
18826W        W32240  14.592   8.252   3.275 -0.1967 -0.0044 -0.1118
18827W        W32241   1.332   8.275  12.804 -0.2725  0.2759 -0.1387
18828W        W32242  13.295  12.194   2.925  0.1788 -0.1532  0.0978
18829W        W32243  14.982   9.195  12.062  0.1251 -0.1469 -0.0530
18830W        W32244   0.834   7.233  14.688  0.2216  0.1572  0.0638
18831W        W32245   0.681   8.221  15.000  0.0069 -0.3057 -0.1261
18832W        W32246  10.194   5.755   0.560 -0.1216  0.0001 -0.0763
18833W        W32247  17.669  13.482  14.738 -0.1644 -0.0469 -0.1563
18834W        W32248  17.915   5.223  11.195 -0.1115 -0.0271  0.1117
18835W        W32249  13.050   4.685   5.308  0.2769  0.3332 -0.1175
18836W        W32250  13.141  15.064   2.395  0.2091 -0.1394  0.0479
18837W        W32251  18.081   7.674  14.204  0.0581 -0.1105 -0.0486
18838W        W32252  15.563   9.791  14.449 -0.1354  0.2170 -0.2774
18839W        W32253   2.111   2.430  14.113  0.0921  0.3868  0.0528
18840W        W32254  15.667  13.929  16.126  0.3676 -0.0875 -0.1843
18841W        W32255  13.184   4.353  12.438 -0.1238  0.0345 -0.0918
18842W        W32256   6.409   9.292  14.808 -0.1361  0.1722 -0.1268
18843W        W32257   6.025  12.776  11.941 -0.0154 -0.0263  0.1131
18844W        W32258   4.265   4.420   2.575 -0.0322 -0.1793  0.2391
18845W        W32259   1.113   9.342  12.310 -0.1031 -0.2357 -0.0514
18846W        W32260   9.773   7.738   0.649 -0.0361 -0.0670 -0.3217
18847W        W32261  12.250  17.793  13.813  0.3845 -0.0819 -0.1982
18848W        W32262  16.868   8.647   1.939 -0.0043 -0.0857 -0.1135
18849W        W32263  10.927   4.166  14.914  0.0031  0.3901  0.1120
18850W        W32264   8.988  12.643   4.644  0.0011  0.4827 -0.2137
18851W        W32265   5.557   8.705   2.562  0.2278  0.0998  0.1267
18852W        W32266  18.208   7.283  15.850  0.0298  0.2211  0.0377
18853W        W32267   9.937   8.377  16.160 -0.0437 -0.1534 -0.0289
18854W        W32268   3.349   1.112   2.641 -0.0130  0.0037  0.2063
18855W        W32269   2.697  15.530   6.014 -0.0903  0.2260  0.0040
18856W        W32270   1.395   1.590   3.253  0.0242  0.2107  0.0736
18857W        W32271  13.530   7.437  14.407 -0.2893 -0.0418 -0.0067
18858W        W32272   5.885   1.618  11.452  0.0637 -0.2580  0.3711
18859W        W32273  11.200   9.666  11.758 -0.2634  0.0750  0.1256
18860W        W32274   2.322  12.400  10.174  0.0570  0.2800  0.3309
18861W        W32275   1.141  14.173   1.901  0.0278 -0.0014  0.2730
18862W        W32276  12.344   5.508   3.164  0.0429  0.0060 -0.0264
18863W        W32277  16.331   7.953   5.335  0.0121 -0.1157  0.1445
18864W        W32278   4.191   3.939  14.450 -0.1114 -0.1978  0.1342
18865W        W32279   9.390  10.083  10.436  0.6162 -0.1540  0.1758
18866W        W32280  10.504  13.459  15.832  0.1211 -0.3238  0.1921
18867W        W32281  14.774   9.116  15.258  0.1234 -0.0333  0.3007
18868W        W32282  14.987   9.126  14.122  0.0581  0.2383  0.1897
18869W        W32283   7.536   3.604  10.981  0.0055  0.2286  0.0324
18870W        W32284   8.713  10.130  14.654  0.1049  0.2506  0.0615
18871W        W32285   4.433   5.533   2.950 -0.1173  0.0560 -0.1160
18872W        W32286  10.319   9.127   3.851  0.0674 -0.0619  0.0280
18873W        W32287   7.144  14.119  13.704 -0.0087  0.1534  0.0077
18874W        W32288   6.019  14.172  10.728 -0.1710 -0.1451  0.0070
18875W        W32289   8.670   4.644   0.330  0.2290  0.1477  0.0025
18876W        W32290   4.377   9.241  10.288 -0.1152 -0.0947  0.0387
18877W        W32291  15.723  14.587   1.725 -0.0340  0.1909 -0.2031
18878W        W32292  15.769   7.863   1.376 -0.0575  0.0141  0.0309
18879W        W32293   7.596  10.899   0.670 -0.0781 -0.2292 -0.2487
18880W        W32294  12.522   9.987  15.286 -0.2885 -0.1368  0.2092
18881W        W32295  16.333   0.670  15.501  0.1187 -0.3287  0.2323
18882W        W32296  12.300   4.232   4.688  0.0397 -0.3581 -0.1229
18883W        W32297   8.332  14.491  11.911 -0.2685 -0.2598  0.0995
18884W        W32298   5.839  13.327  10.068  0.1226  0.0260 -0.0456
18885W        W32299   3.839   8.905  13.851 -0.1672  0.3444  0.0793
18886W        W32300  10.260   2.667   2.641 -0.1108 -0.1239  0.3003
18887W        W32301   0.606  12.348   3.324  0.2322 -0.1469 -0.0102
18888W        W32302  10.625  14.734   1.621  0.1536 -0.1058 -0.1892
18889W        W32303   8.259  15.043   5.694  0.1548 -0.0832  0.0743
18890W        W32304   6.845   3.693   9.879  0.0719 -0.3103  0.0635
18891W        W32305   2.842  14.548   5.124 -0.0134  0.4215  0.0978
18892W        W32306  11.767  16.282   9.252  0.0944 -0.0905  0.0113
18893W        W32307  13.932   9.667  15.130 -0.2888  0.0895 -0.1972
18894W        W32308   2.166   4.086   0.456  0.1468 -0.1790 -0.1360
18895W        W32309   8.999  15.628  13.456  0.0417 -0.0354 -0.2776
18896W        W32310  17.626   8.508  10.283  0.1902 -0.0367  0.0515
18897W        W32311  11.531   7.793   5.461 -0.0764 -0.0354  0.0847
18898W        W32312  18.418  14.019  16.107  0.1925  0.0145 -0.2272
18899W        W32313   8.324  15.302   0.717  0.0516 -0.0886 -0.0466
18900W        W32314   6.470  11.014   5.621 -0.0821  0.1485  0.0101
18901W        W32315   1.095  18.220  13.731  0.1286 -0.0693  0.2553
18902W        W32316   8.381   3.173   2.635  0.2712  0.2288 -0.0431
18903W        W32317   8.759   5.418   5.568  0.0436 -0.0798 -0.1770
18904W        W32318  10.114   8.353   2.829  0.2046 -0.0890  0.2371
18905W        W32319  13.850  11.915  14.333  0.1599  0.2920  0.0517
18906W        W32320  17.659  16.525   5.075  0.0377 -0.3978  0.0860
18907W        W32321  17.509  10.561   4.598  0.2060  0.0200 -0.0086
18908W        W32322  12.094  13.144   1.849  0.2064 -0.0688  0.0426
18909W        W32323   8.971  16.040   2.198  0.2251  0.0106 -0.0819
18910W        W32324   1.215  13.649   1.783 -0.0470  0.1962  0.0929
18911W        W32325  15.195   8.976  10.546 -0.2629 -0.3479 -0.0206
18912W        W32326   0.342  13.771   2.275  0.1237  0.0403 -0.0014
18913W        W32327   9.870  11.988  11.425  0.2119  0.1775  0.2370
18914W        W32328   3.777  15.033  10.391 -0.3536  0.0947 -0.1096
18915W        W32329  15.941  12.964  11.299 -0.0543  0.1247 -0.0025
18916W        W32330  15.644   6.324   1.535 -0.1016 -0.0359  0.2672
18917W        W32331  10.068  14.872  14.324  0.0530 -0.3474 -0.0900
18918W        W32332  15.857  11.857   1.741  0.1618  0.3470 -0.1873
18919W        W32333   2.112   2.767  16.149  0.1044  0.2247 -0.0996
18920W        W32334   7.183  11.620  14.154 -0.2204 -0.2184  0.2372
18921W        W32335  16.792  12.334  11.017 -0.0894 -0.0229 -0.1494
18922W        W32336   5.024   2.532   0.313  0.2958  0.1809  0.4306
18923W        W32337   9.771   2.947  15.630  0.0816  0.0175  0.1876
18924W        W32338   5.269  15.499  12.516  0.2528 -0.1002  0.0820
18925W        W32339   7.516  11.911   4.363  0.3528  0.2516  0.1231
18926W        W32340   8.474   0.123   1.222  0.5466  0.1943  0.3660
18927W        W32341  12.078  15.522  13.092  0.1064 -0.0575  0.0701
18928W        W32342   0.585   5.331  14.742  0.1824  0.2125  0.0587
18929W        W32343   7.044  14.934  11.126  0.0900  0.1127 -0.0505
18930W        W32344   8.529   7.183  12.511 -0.2269  0.2570  0.0333
18931W        W32345   7.796  17.451  11.729  0.0376  0.0789  0.2741
18932W        W32346  16.220  12.756   4.034 -0.0636 -0.2699  0.1326
18933W        W32347  17.461  11.782   4.273  0.0195 -0.0048 -0.1674
18934W        W32348   0.928   5.513  14.365  0.0549  0.0558 -0.2280
18935W        W32349   6.829   7.286  13.789  0.2226  0.2647  0.3322
18936W        W32350   9.651  10.496  10.692  0.0020 -0.0725  0.1967
18937W        W32351  11.690  18.232  12.412 -0.0729  0.2057  0.1463
18938W        W32352   1.222  10.883  11.159  0.3046  0.1847  0.3954
18939W        W32353  14.458   7.494  13.310  0.2506  0.1761 -0.0901
18940W        W32354  12.182  15.865   2.999 -0.1007  0.0218 -0.1186
18941W        W32355   5.641   7.955  16.206 -0.1653  0.0314  0.1289
18942W        W32356   2.146   1.209  11.927  0.1181 -0.1254 -0.2527
18943W        W32357   2.113  13.701   9.855  0.0752  0.2479 -0.0223
18944W        W32358   2.870   6.358  13.836  0.2396 -0.1817  0.1520
18945W        W32359   0.542  14.201   2.380  0.0683  0.3716  0.0691
18946W        W32360  13.978  13.633  14.720  0.0255  0.0471  0.0724
18947W        W32361  10.722   5.996   1.374  0.3015 -0.2512  0.2269
18948W        W32362  10.403  13.936  13.035 -0.0903 -0.3041  0.1635
18949W        W32363  18.386   4.288  11.272 -0.0963  0.0656 -0.0522
18950W        W32364   2.761  10.877   1.906  0.0574 -0.1285  0.0780
18951W        W32365  10.497  12.779  14.832  0.0078 -0.3401  0.3689
18952W        W32366   1.226  14.803  15.201  0.3263 -0.2460 -0.2543
18953W        W32367  14.832   3.056  16.197  0.2649  0.1536 -0.2540
18954W        W32368   0.394   8.651  11.602  0.0823  0.2368  0.0714
18955W        W32369   7.470   0.848  11.927 -0.3862 -0.1543  0.0415
18956W        W32370   9.902  16.153   2.534  0.2001 -0.1370  0.0251
18957W        W32371   8.348  10.511   0.525 -0.0240  0.1214  0.1415
18958W        W32372   0.799   3.218  15.880 -0.3736  0.0683  0.0368
18959W        W32373   8.740  15.568  12.519 -0.1219 -0.2009  0.0665
18960W        W32374   6.910   9.343   2.117  0.1358  0.2398 -0.4650
18961W        W32375   9.969  17.604   2.716 -0.0651  0.3669 -0.0700
18962W        W32376  13.243  13.111   0.753  0.0638 -0.5062  0.3433
18963W        W32377  13.557   9.093  10.050  0.0738  0.2147  0.4342
18964W        W32378  16.724   6.271  13.287 -0.0864  0.1966 -0.0165
18965W        W32379   2.288  12.777  10.466  0.2338  0.0915  0.3840
18966W        W32380  15.503  11.367   0.273  0.2031 -0.0271 -0.0868
18967W        W32381   9.691   8.188   3.036 -0.2676  0.1912  0.1594
18968W        W32382  13.227   0.854   3.872 -0.0705 -0.0556  0.0838
18969W        W32383  15.395   8.208  15.882  0.2214 -0.1521  0.0713
18970W        W32384  10.640  14.177   1.520  0.3310 -0.0520 -0.2432
18971W        W32385  12.348  13.337   3.177 -0.0347  0.0616 -0.0498
18972W        W32386  11.797   0.789   4.339  0.1633 -0.1938  0.0919
18973W        W32387   2.370   7.335   1.493  0.3064 -0.1021 -0.0340
18974W        W32388   4.620  12.458   0.343  0.1388  0.0958 -0.0284
18975W        W32389   1.328   9.077   3.219 -0.1423  0.1259  0.1071
18976W        W32390   3.466   3.019   2.603  0.3285 -0.0436  0.1665
18977W        W32391  17.649   3.883  12.320 -0.2758  0.3030 -0.1710
18978W        W32392  17.557   2.399   5.626 -0.3598 -0.0667 -0.1722
18979W        W32393  10.544   4.541  10.896  0.0782 -0.1199  0.0954
18980W        W32394  12.280  11.044   4.684  0.2195  0.1753 -0.4597
18981W        W32395  15.969   8.156  15.749 -0.0733  0.1518 -0.3087
18982W        W32396  17.716  16.972   3.493  0.1572  0.0886  0.1207
18983W        W32397  13.425   8.470   0.536 -0.1270 -0.3084  0.0630
18984W        W32398  11.148   1.736   4.038 -0.2931 -0.0202  0.1450
18985W        W32399  13.434  14.109   2.692  0.2284  0.2545 -0.2736
18986W        W32400  13.430   8.893   3.150  0.2532 -0.0147  0.0251
18987W        W32401   4.991   8.598   0.576 -0.0227 -0.1965 -0.3951
18988W        W32402   1.475   6.445  11.907 -0.3419 -0.2868  0.2413
18989W        W32403   8.478  15.246   3.229  0.0379  0.1935  0.1057
18990W        W32404  18.235  12.706  13.192 -0.1919 -0.0354  0.2212
18991W        W32405  15.842  16.005   5.538  0.2287  0.1748 -0.1585
18992W        W32406  17.753   1.545   0.421  0.1825 -0.0407  0.0375
18993W        W32407   6.846  15.692   3.273 -0.2529  0.1883  0.0255
18994W        W32408  11.331  10.275   5.075  0.3104 -0.1640 -0.1459
18995W        W32409   9.354   8.009  14.886 -0.2944 -0.2229 -0.0327
18996W        W32410  10.932   9.562  13.554  0.2008  0.0631 -0.0831
18997W        W32411  14.171  17.720   1.330  0.0637 -0.2466 -0.2628
18998W        W32412   0.131   7.799   2.946 -0.1126  0.2266 -0.2467
18999W        W32413   8.094   4.843   0.981 -0.3259 -0.1730  0.2044
19000W        W32414   8.188  12.643   1.448  0.1150 -0.3343  0.0189
19001W        W32415  15.176   4.825   0.515 -0.1092 -0.1389  0.1508
19002W        W32416  12.840  12.630   5.227  0.1763  0.0330 -0.0252
19003W        W32417   7.586  11.198   0.189 -0.0204  0.1360  0.1821
19004W        W32418   2.896  18.233   1.073  0.0759  0.1959 -0.0802
19005W        W32419   4.379   5.975   5.251  0.1125  0.2539 -0.1235
19006W        W32420   5.159   7.089   3.359  0.0986 -0.2032 -0.1232
19007W        W32421   3.181   5.648  10.756 -0.0998  0.1869  0.0752
19008W        W32422  17.339   5.922  16.265  0.2518 -0.0311 -0.1728
19009W        W32423   9.917  15.165   5.021  0.3173 -0.1493 -0.2045
19010W        W32424   8.493  12.039   2.385 -0.2637 -0.0208 -0.3912
19011W        W32425   3.157   7.743  14.927 -0.0347  0.0170  0.0902
19012W        W32426  12.700   9.650  12.546 -0.1343  0.0681  0.1416
19013W        W32427  17.369  13.904  10.323 -0.0397 -0.0350  0.2389
19014W        W32428  17.030  14.822  13.945  0.0151 -0.1392 -0.1397
19015W        W32429   0.003  16.719   0.098  0.2397 -0.0227  0.1460
19016W        W32430   3.551   8.581  14.752  0.2090  0.0569 -0.1227
19017W        W32431   6.501   0.312   3.113 -0.0038 -0.2129 -0.0743
19018W        W32432  14.692  11.742   0.090 -0.1808  0.0777  0.4745
19019W        W32433   0.388   5.160  11.640 -0.1453 -0.0474  0.0888
19020W        W32434  15.709   1.163  14.569  0.0288  0.0263 -0.1767
19021W        W32435   0.823   3.054  11.222  0.0229  0.0736  0.2940
19022W        W32436   3.730   5.130  16.126  0.0136 -0.0830  0.0030
19023W        W32437  15.886   2.111   6.107 -0.1294 -0.1758 -0.0572
19024W        W32438  17.546  13.846  13.934  0.0917  0.0822 -0.2417
19025W        W32439   6.799   3.457  12.264 -0.0455 -0.2910  0.1447
19026W        W32440  10.709  10.847   0.234  0.1663 -0.2180 -0.0573
19027W        W32441   6.850  17.481   0.070  0.4431 -0.2175  0.1702
19028W        W32442   3.501   7.298   1.519 -0.2019 -0.1693  0.2147
19029W        W32443  15.223  12.400  15.043 -0.1999 -0.3146 -0.0909
19030W        W32444   3.803  14.054   5.797 -0.0472 -0.1385 -0.0804
19031W        W32445  12.487  15.746   2.513 -0.0739 -0.1057 -0.3272
19032W        W32446   6.005   1.492  12.933  0.1064  0.1852  0.0532
19033W        W32447   6.743  17.339   1.256  0.1693 -0.0780 -0.0583
19034W        W32448   2.470   3.106  11.073  0.0970  0.1924 -0.0180
19035W        W32449  14.770   9.473   5.715  0.1584  0.3093 -0.0650
19036W        W32450   9.491   9.595   5.031 -0.2398 -0.1915 -0.1937
19037W        W32451  12.728   5.611  14.796 -0.3821  0.0447  0.0855
19038W        W32452   5.561  11.103  14.147  0.3646  0.2794 -0.0199
19039W        W32453   2.972  12.007   5.065 -0.2255 -0.1436 -0.0305
19040W        W32454   3.266   8.083  15.281  0.3772 -0.1307  0.2078
19041W        W32455   0.465   5.803   2.828 -0.0451 -0.1285  0.2036
19042W        W32456  10.393   6.047   0.165  0.2154 -0.1182  0.3543
19043W        W32457  15.167   6.866   4.585 -0.2227  0.1094  0.3051
19044W        W32458  14.744   5.397  15.528 -0.0453 -0.0930  0.1073
19045W        W32459   1.040   2.639  14.681 -0.0359 -0.2377  0.1070
19046W        W32460  17.915   3.531  14.460 -0.1530 -0.0025 -0.0082
19047W        W32461   2.881  14.092  15.579  0.4141  0.5860 -0.0203
19048W        W32462   4.842   3.761   1.480 -0.1936  0.0497 -0.0463
19049W        W32463  10.766  11.917   3.472  0.2392  0.0052  0.0103
19050W        W32464   5.470   9.606  15.275  0.2068  0.2150 -0.1045
19051W        W32465   3.901   2.787   5.171 -0.0705  0.1025  0.1912
19052W        W32466   4.537   5.510  12.489 -0.1804 -0.0183  0.0659
19053W        W32467   8.160   6.624  12.891  0.2271 -0.2936  0.1606
19054W        W32468  10.932   7.553   5.010 -0.3163 -0.0963  0.1740
19055W        W32469   4.841  11.508  11.770 -0.4982 -0.1726 -0.0393
19056W        W32470  17.187   2.856   0.136 -0.3527  0.1626  0.0479
19057W        W32471  14.741   5.741  15.088  0.1958 -0.2445 -0.1298
19058W        W32472   1.364   4.874  14.099  0.4441  0.2896 -0.0716
19059W        W32473   5.203   8.005  14.712  0.3082 -0.1510  0.1935
19060W        W32474  16.459  17.732  12.583 -0.0340 -0.1936 -0.1458
19061W        W32475  16.661   9.112   0.937  0.0511  0.1035 -0.0008
19062W        W32476  16.998   2.181  12.942 -0.2245  0.3604 -0.0829
19063W        W32477   8.740   7.956   3.116  0.1113  0.0072 -0.3981
19064W        W32478  14.671   4.947  14.338 -0.2261  0.1511 -0.1915
19065W        W32479   2.605  18.258  12.059  0.1139 -0.0212  0.1403
19066W        W32480   7.058   4.764  13.486  0.2209 -0.2762  0.1525
19067W        W32481  13.346  11.319   3.685  0.0624  0.3287  0.1191
19068W        W32482   2.506  11.847   3.640 -0.2942  0.0087 -0.0214
19069W        W32483  11.385  16.548  10.077  0.0546 -0.1720  0.2307
19070W        W32484   8.838   2.699  14.628  0.0366  0.0005  0.0435
19071W        W32485   1.763  12.911  14.083 -0.0732  0.0126 -0.4386
19072W        W32486   2.206  12.543   5.410 -0.3834 -0.0630 -0.1246
19073W        W32487  10.140   8.667   6.836 -0.0894 -0.1821  0.0944
19074W        W32488  10.687   1.282  12.919 -0.1925  0.1459 -0.1271
19075W        W32489  13.840  17.603  10.666 -0.0849  0.0522 -0.0806
19076W        W32490   2.581  14.564  11.718 -0.1803 -0.0694 -0.0168
19077W        W32491  15.725   8.089  12.192  0.1911  0.2360 -0.1356
19078W        W32492  15.726  18.160  12.696 -0.2147  0.0937  0.2770
19079W        W32493  17.215   0.011  13.149  0.3436 -0.1861  0.0277
19080W        W32494  13.438   8.117   2.348 -0.0770 -0.1907 -0.2802
19081W        W32495   1.427   5.167  13.668  0.3028 -0.2951  0.1268
19082W        W32496   5.476  18.126   3.483  0.0162  0.1886  0.1127
19083W        W32497   4.956   7.170  11.846  0.0699 -0.2593 -0.0400
19084W        W32498   5.991  14.296   5.495 -0.0481 -0.0732  0.1190
19085W        W32499  17.971  12.613   1.826 -0.0226  0.0329  0.1709
19086W        W32500   4.169  10.573  11.212  0.0704 -0.1330 -0.1490
19087W        W32501  14.199   5.779   0.696 -0.0489  0.3896 -0.2405
19088W        W32502  13.294   7.808   6.522  0.0782 -0.1036 -0.1443
19089W        W32503  15.017   1.345   5.736 -0.0058 -0.1373 -0.0443
19090W        W32504  15.103   9.217   5.952 -0.0899  0.1625 -0.0936
19091W        W32505  16.224  11.996   5.169 -0.1303 -0.2514 -0.3140
19092W        W32506   0.407  10.342   3.701 -0.1103  0.1548  0.0509
19093W        W32507   4.565  11.781   4.281  0.1858 -0.0726  0.3342
19094W        W32508   8.963   0.629   0.889 -0.1062 -0.0482  0.1147
19095W        W32509  11.829   4.431  12.613  0.1100 -0.1798  0.0642
19096W        W32510   5.884  16.955   2.461 -0.0265  0.2402 -0.0232
19097W        W32511  14.176  16.714   2.630 -0.2770  0.1873  0.0240
19098W        W32512  16.158   1.805   2.546 -0.0994 -0.1608  0.2223
19099W        W32513  12.685   3.441   0.572  0.0310  0.0234 -0.1132
19100W        W32514  15.568   9.374   0.876 -0.0278 -0.4859  0.0991
19101W        W32515  10.119   0.554  12.009  0.1214  0.2295 -0.0253
19102W        W32516  17.881  13.452   3.121  0.0501 -0.0179  0.0232
19103W        W32517   3.868  10.597   0.434 -0.0682 -0.1775  0.3984
19104W        W32518   0.601   2.029   1.626 -0.2619  0.0400 -0.3579
19105W        W32519  15.723   0.115  13.637  0.2140 -0.1758  0.2893
19106W        W32520   8.367   3.575   0.914  0.0835  0.1774 -0.0106
19107W        W32521   8.196   8.765   5.767  0.0123 -0.1667  0.0691
19108W        W32522   9.494   9.647  12.073 -0.0621 -0.0459 -0.2100
19109W        W32523   4.792  17.213  11.047 -0.0467  0.3164 -0.0912
19110W        W32524   6.727  15.138   0.670  0.1216  0.1738  0.1378
19111W        W32525  15.279  18.223   3.377  0.1770 -0.1652 -0.1253
19112W        W32526   4.929   8.014   0.596 -0.2064 -0.2275  0.1612
19113W        W32527  15.506   0.679   1.222 -0.1652 -0.2553  0.3437
19114W        W32528  18.208  13.509   4.143 -0.2198 -0.0298  0.0434
19115W        W32529  13.093   0.884  14.445 -0.3236  0.1320 -0.1515
19116W        W32530  10.617   4.955   0.067  0.0656  0.1018  0.3468
19117W        W32531   2.493   2.636  11.899 -0.0651 -0.0129 -0.0989
19118W        W32532  14.648  15.965  15.266  0.0113  0.0739  0.1451
19119W        W32533   8.362  16.755   1.269  0.5503  0.2303 -0.0442
19120W        W32534   6.639  12.924  16.145 -0.0844  0.0342  0.0855
19121W        W32535   3.800   1.775  13.408 -0.2440 -0.2312 -0.1713
19122W        W32536   5.357   4.113   2.434 -0.3294 -0.0897 -0.0319
19123W        W32537  11.269  16.089  12.848  0.0248  0.2464 -0.1066
19124W        W32538   0.390   1.339  11.847  0.1510 -0.1405  0.0526
19125W        W32539  17.616  10.036  10.484  0.1293  0.1480 -0.3358
19126W        W32540   7.294  13.805   4.982  0.1684  0.0910  0.0467
19127W        W32541  12.487   3.978  11.254  0.2067 -0.0169 -0.0375
19128W        W32542  16.612  13.387   3.595 -0.1663 -0.0568  0.0336
19129W        W32543  13.082  17.348  16.200 -0.2021 -0.0164  0.1451
19130W        W32544  16.474  14.330  14.673 -0.0370 -0.0310  0.1416
19131W        W32545  17.775  15.425   3.384  0.2570 -0.2057  0.1701
19132W        W32546  17.034  14.225  10.622 -0.3361 -0.0453 -0.0846
19133W        W32547   6.267   0.013  15.136  0.2885  0.0314  0.1869
19134W        W32548   7.252  17.694  12.942  0.1962 -0.1516 -0.1994
19135W        W32549   4.257  13.703   0.929 -0.0204 -0.0351 -0.0266
19136W        W32550   0.612  14.482  10.698 -0.1003 -0.1985  0.0300
19137W        W32551   3.211   8.533  15.597 -0.2020 -0.3773 -0.2391
19138W        W32552  13.733   0.295   0.972  0.0380 -0.1693  0.0003
19139W        W32553   5.324  17.232   3.844 -0.2695 -0.0920 -0.1983
19140W        W32554   2.110   2.520   5.824 -0.0824 -0.0696  0.0472
19141W        W32555  10.778   7.533   0.517 -0.1913  0.0848  0.0614
19142W        W32556   7.605  16.785  10.464 -0.1881  0.1032  0.3136
19143W        W32557  12.074   2.487  13.459  0.1880 -0.3364  0.0536
19144W        W32558  15.001  16.607   4.684 -0.1379  0.0658 -0.0587
19145W        W32559   9.814   5.048  15.809  0.1405  0.0547 -0.0361
19146W        W32560  16.042  12.789  14.946 -0.1319  0.1853  0.0063
19147W        W32561   5.052   3.037   0.205 -0.1505 -0.2436 -0.0505
19148W        W32562  15.771  11.820  15.331 -0.1366  0.0414 -0.0711
19149W        W32563   3.476   8.982   2.480 -0.0020 -0.0985  0.1642
19150W        W32564   4.543   5.351   4.455  0.3648 -0.0528 -0.2425
19151W        W32565   8.664  16.916   0.328 -0.0655  0.1407 -0.3473
19152W        W32566   8.667  11.841  15.693 -0.0190  0.1318 -0.0199
19153W        W32567   0.843   7.413   4.533  0.1489  0.0995 -0.0740
19154W        W32568  13.338   8.056   5.465  0.4870 -0.1840 -0.0123
19155W        W32569  13.698   1.475   5.152 -0.0487 -0.2332  0.1048
19156W        W32570  12.613   7.423  12.672 -0.2424 -0.2568  0.0949
19157W        W32571   5.350   8.191   0.373  0.1522 -0.2142 -0.1000
19158W        W32572  14.013  10.187  11.805  0.2104 -0.1720 -0.2115
19159W        W32573   1.804   8.339  12.047 -0.1741 -0.1558 -0.0144
19160W        W32574  16.938  10.570   0.714 -0.0976  0.0781 -0.0816
19161W        W32575   8.960  12.972  11.869 -0.2723 -0.1126 -0.2947
19162W        W32576  17.614  11.987  13.954  0.1554 -0.1957  0.0835
19163W        W32577   7.676   8.153   1.444 -0.1132 -0.0643 -0.0259
19164W        W32578   6.135  17.535  10.682  0.0309  0.3099  0.3533
19165W        W32579  11.572  11.996  13.433 -0.1007  0.0272 -0.1205
19166W        W32580   5.219   5.625   1.174 -0.3315 -0.1041  0.0876
19167W        W32581   9.149   8.589   1.941 -0.3122  0.0598  0.2660
19168W        W32582  13.153   8.902   0.791 -0.0608  0.1401  0.2588
19169W        W32583  13.682  12.889  12.053  0.1053  0.0229 -0.0946
19170W        W32584   8.495   4.542  15.679  0.0118  0.0153 -0.2106
19171W        W32585   1.431   2.072  14.619 -0.1320  0.0435 -0.2032
19172W        W32586  18.225   3.148   4.659  0.0444 -0.4600  0.1763
19173W        W32587  10.054  10.892  11.965  0.0242 -0.0554  0.0688
19174W        W32588  13.965   3.029   4.519  0.1459  0.1486 -0.3161
19175W        W32589   6.185   5.323  15.393  0.0162 -0.0828 -0.4911
19176W        W32590   3.869   3.291  15.661  0.0660 -0.0350  0.0692
19177W        W32591   5.342  11.049   1.098 -0.1154  0.1997 -0.1424
19178W        W32592   3.175   6.193   1.816 -0.1271  0.1044 -0.0730
19179W        W32593  12.649   6.258  11.606 -0.1902 -0.0948 -0.3281
19180W        W32594   9.580   9.631  13.466 -0.1228  0.1868  0.1670
19181W        W32595  16.227   7.631   6.316 -0.1570 -0.0973 -0.0010
19182W        W32596   8.180   1.843  11.534  0.2032 -0.1580 -0.3149
19183W        W32597   5.048   3.428   5.503 -0.0874 -0.0618  0.2395
19184W        W32598   8.494   1.421   3.618 -0.0687 -0.0983 -0.1202
19185W        W32599   0.410   6.929   5.084  0.1713 -0.1204 -0.1658
19186W        W32600   8.549  16.686  15.144  0.2059  0.0364  0.1316
19187W        W32601   0.386  15.916  12.861  0.0868  0.1989  0.2983
19188W        W32602  10.954   8.478   2.819  0.1617  0.0899  0.1677
19189W        W32603   6.811  15.911  15.047 -0.0226  0.2199 -0.0198
19190W        W32604  14.381  15.774  15.701 -0.1193 -0.3234  0.1664
19191W        W32605   7.087   5.112   4.238 -0.1182  0.2511  0.0670
19192W        W32606  13.657   3.430  12.578 -0.1062  0.3982  0.1439
19193W        W32607  12.009  17.116  11.675  0.0045 -0.2392 -0.2199
19194W        W32608  17.441  15.006  11.854  0.1770  0.2158 -0.3233
19195W        W32609   5.447  15.941  14.664  0.0036 -0.0309  0.0060
19196W        W32610   7.926   8.493  14.039  0.0220 -0.0837  0.1169
19197W        W32611   7.134  15.175  13.450 -0.0605 -0.1974 -0.1842
19198W        W32612   4.138  11.575   2.818  0.0420  0.1243 -0.4107
19199W        W32613   9.768   9.784  10.497  0.0802 -0.0274  0.0789
19200W        W32614  14.979   0.998   1.082 -0.2149  0.1791  0.0749
19201W        W32615  10.532  12.791   2.744 -0.2823 -0.1507 -0.3908
19202W        W32616   1.093   6.795   2.234 -0.2622 -0.0916 -0.1914
19203W        W32617  10.855  16.910   4.612  0.1547  0.4477 -0.0250
19204W        W32618   1.498  16.064  14.027  0.0396  0.3547  0.0631
19205W        W32619   8.643   2.978   0.520 -0.0263  0.3009  0.1681
19206W        W32620   3.833  13.572  11.813  0.2171 -0.0443 -0.1167
19207W        W32621   6.772  10.796  13.593  0.2410  0.0838 -0.0023
19208W        W32622  17.058   8.509   0.991 -0.2150 -0.0335  0.3695
19209W        W32623   6.032  16.394  14.735 -0.0649 -0.0049  0.1289
19210W        W32624   3.612   9.574   4.412  0.0490  0.2405  0.0898
19211W        W32625  10.796  16.781   5.100 -0.0019 -0.1036  0.2253
19212W        W32626   8.740   6.623  13.834 -0.0572  0.1349  0.1293
19213W        W32627  11.578   8.152  13.537  0.0521  0.2692 -0.0702
19214W        W32628   8.698  10.711   2.755 -0.1554 -0.0700 -0.1420
19215W        W32629  14.915   4.741  10.681  0.2292 -0.0617  0.2312
19216W        W32630  18.088   3.431   5.350  0.1596 -0.0137 -0.0155
19217W        W32631   3.691   7.951   1.071 -0.1831  0.0566  0.3425
19218W        W32632   1.286  17.951   2.147  0.0133 -0.0519  0.1242
19219W        W32633  11.323   8.907   1.676  0.2461 -0.0148  0.1889
19220W        W32634   0.578  15.371   2.846  0.1622  0.1548 -0.1028
19221W        W32635  18.423   1.938  13.617 -0.2907 -0.1258 -0.2252
19222W        W32636  18.117   3.479  16.141  0.0441 -0.1018  0.1631
19223W        W32637   0.910  12.777   0.734 -0.2381 -0.0321 -0.2201
19224W        W32638   6.993  15.737   2.794  0.1162  0.0597 -0.1345
19225W        W32639   6.784   7.415   4.077 -0.2105 -0.1364 -0.4028
19226W        W32640  16.338  16.154   5.642  0.1756 -0.4006 -0.1243
19227W        W32641  11.843   7.233   3.942 -0.2775 -0.0562  0.0863
19228W        W32642   8.147   0.781   0.620 -0.0683 -0.1648 -0.1382
19229W        W32643  15.548   9.270  14.426  0.0014 -0.1051 -0.0337
19230W        W32644  15.124  18.050   0.081 -0.1352  0.0157  0.1448
19231W        W32645   4.811   1.812  12.755  0.0855 -0.1151  0.0671
19232W        W32646  12.188  14.831   1.596  0.2980 -0.1447  0.2817
19233W        W32647  10.096   0.384  15.971 -0.0201 -0.3100  0.2546
19234W        W32648   6.680  12.450   2.413  0.0306  0.2031 -0.0973
19235W        W32649   3.492  16.152   4.526  0.3142  0.1397  0.1347
19236W        W32650   6.226   9.526   3.338 -0.2861  0.1659 -0.1588
19237W        W32651  10.727   2.218  12.956  0.0094  0.0911 -0.0470
19238W        W32652  15.798   2.215   6.624 -0.4992  0.0998  0.0435
19239W        W32653  16.831   1.254  15.011 -0.0465 -0.4789  0.2470
19240W        W32654   8.994  16.262   4.630  0.2157  0.0089 -0.2305
19241W        W32655   4.112   1.968   9.908  0.3081 -0.0672  0.2096
19242W        W32656  13.557   2.774  12.727 -0.0384  0.0453 -0.0200
19243W        W32657  15.989  11.802  15.746 -0.1603  0.1758 -0.3512
19244W        W32658  10.052  17.229  13.194  0.1154 -0.0364 -0.2987
19245W        W32659  13.033  10.463  11.725 -0.0281  0.2105  0.1103
19246W        W32660   0.130   5.322   5.076 -0.1474  0.0751 -0.2399
19247W        W32661  13.844   7.841  12.822  0.1889 -0.0529  0.4707
19248W        W32662  11.243   0.541  11.643 -0.1133  0.0034  0.2782
19249W        W32663   1.390   8.260  13.281 -0.1692  0.3243 -0.0643
19250W        W32664  14.599  17.724  13.634 -0.0181  0.1455  0.1501
19251W        W32665   9.566   6.270   0.667  0.1593 -0.0962  0.0665
19252W        W32666  12.658   3.677  15.360  0.0003 -0.2986  0.0517
19253W        W32667   2.966   8.647  12.919 -0.2037  0.1763  0.1933
19254W        W32668   6.600  14.244  15.341 -0.0180 -0.0055 -0.0491
19255W        W32669   9.678   5.660  14.945  0.3946 -0.0797  0.3334
19256W        W32670   2.921  11.043   1.476  0.0806 -0.0523 -0.0827
19257W        W32671  18.080   1.645  12.298 -0.0453  0.2961 -0.2080
19258W        W32672   0.522   0.607  13.191 -0.1560 -0.0867  0.0251
19259W        W32673   0.544   5.043   4.613  0.0484 -0.4666  0.1098
19260W        W32674  17.027  16.992   3.216  0.1224  0.0459  0.4175
19261W        W32675  13.359  15.630  15.643 -0.2053 -0.1086  0.2162
19262W        W32676  17.804   1.303   4.750  0.0490  0.2496  0.2315
19263W        W32677  10.156   6.221   3.325  0.1787 -0.1020 -0.0461
19264W        W32678  14.679  15.528  15.110 -0.0387  0.0774 -0.1443
19265W        W32679   2.859   0.330  14.769 -0.0155  0.3028  0.2538
19266W        W32680   2.413   3.246   4.640  0.2943 -0.0808  0.4788
19267W        W32681  17.595   8.791   0.067  0.3070 -0.0283  0.1235
19268W        W32682  11.999   1.669   1.021 -0.2727 -0.1625  0.0235
19269W        W32683  11.839  10.362  15.821  0.1194 -0.2372 -0.0617
19270W        W32684   1.822  17.880  12.168 -0.1825 -0.0476 -0.4147
19271W        W32685  13.773  11.265   1.439 -0.0473 -0.1109 -0.1728
19272W        W32686   5.706   5.094   5.679  0.0449  0.0558  0.1524
19273W        W32687  13.635  18.175   4.848 -0.0574 -0.1152 -0.3593
19274W        W32688  13.001  13.370  11.386 -0.3310  0.0478 -0.1325
19275W        W32689  10.924  12.525  14.743 -0.0253 -0.3228  0.1965
19276W        W32690  15.586  12.856  15.107  0.1013  0.0502  0.1039
19277W        W32691  11.690  15.786   9.430 -0.0293  0.1410  0.1665
19278W        W32692   3.558  10.114  15.426  0.1595 -0.0812  0.0528
19279W        W32693   1.532  17.368  14.496  0.2894 -0.3145 -0.3441
19280W        W32694  17.599  12.046   1.276 -0.1178  0.1025 -0.4884
19281W        W32695   8.890   7.809   4.572 -0.1383 -0.1997  0.1951
19282W        W32696  10.271   9.405  10.942 -0.1540  0.1443 -0.1356
19283W        W32697   9.996   2.316   5.242 -0.2193  0.1241 -0.0301
19284W        W32698   8.788   6.582  11.551  0.3478 -0.3318  0.2683
19285W        W32699   0.990  17.949  14.261  0.3996  0.0596  0.5426
19286W        W32700  13.220   9.354  13.492 -0.3668 -0.0257 -0.0676
19287W        W32701  10.847  14.664  14.311  0.1901  0.3577 -0.0766
19288W        W32702  16.384  10.284  11.143  0.0539  0.1227  0.0113
19289W        W32703   1.971   7.136   3.722  0.0508  0.1681  0.1777
19290W        W32704   9.408  11.970   5.881  0.0258  0.1388  0.0386
19291W        W32705   1.782   5.531  13.804  0.2845 -0.2334  0.1596
19292W        W32706  16.881   1.486  12.244  0.1728  0.1225 -0.1865
19293W        W32707   0.447  18.392  11.723  0.0932 -0.0889  0.0294
19294W        W32708   2.004   1.913   0.795 -0.2916 -0.0880  0.0983
19295W        W32709   7.981   0.033  11.803 -0.1006 -0.1604  0.0591
19296W        W32710   7.886   6.304   0.075  0.1652  0.1576 -0.2363
19297W        W32711   0.601   0.042   1.536 -0.1549 -0.1882 -0.1476
19298W        W32712  13.432   3.579  11.867  0.4307 -0.1460 -0.1801
19299W        W32713  13.986  11.842   5.289  0.2386  0.1037 -0.1078
19300W        W32714  14.671  10.958   3.667 -0.1439 -0.2996 -0.0877
19301W        W32715   9.591   1.671  15.936  0.1768  0.2595 -0.2101
19302W        W32716   2.494   3.021   5.129  0.0794  0.2808  0.1819
19303W        W32717   5.592   0.541  13.507 -0.1767 -0.0482 -0.3189
19304W        W32718  10.851   7.104   1.443  0.2484 -0.0291  0.1216
19305W        W32719   0.637   6.796   0.024  0.0856  0.1002  0.0049
19306W        W32720  17.814  15.833  11.859  0.3927  0.1560  0.4193
19307W        W32721  10.564  13.738   2.358  0.4659  0.0854  0.0714
19308W        W32722  12.000   3.114  16.113 -0.0060  0.3024 -0.0349
19309W        W32723  11.785  11.214  13.242  0.2839  0.2248  0.0198
19310W        W32724   8.249   8.994   2.079 -0.1847 -0.0119  0.2997
19311W        W32725   7.645   1.765  15.638 -0.1234 -0.2006  0.0340
19312W        W32726   2.105  16.076   3.560  0.1817 -0.1355  0.1334
19313W        W32727   7.040   6.418   6.174  0.0159  0.1209  0.2201
19314W        W32728  14.738   4.207  14.833 -0.0673  0.1170 -0.0208
19315W        W32729   6.248   5.164  11.366 -0.1541 -0.0653 -0.0353
19316W        W32730   6.714   1.234   0.514 -0.1029 -0.0380  0.2390
19317W        W32731   4.049   5.237   2.973  0.0637  0.0741 -0.2572
19318W        W32732   9.582   6.365  12.807  0.1385  0.2005  0.0100
19319W        W32733  14.337  13.901  14.944  0.0082  0.2135  0.0642
19320W        W32734  12.752  17.154   4.991  0.0302 -0.0959 -0.0775
19321W        W32735   4.946   5.534  14.752  0.1878 -0.0871 -0.0207
19322W        W32736  13.221   5.949  12.319 -0.1117  0.2398  0.1508
19323W        W32737  13.253  14.578  15.013 -0.2238  0.2330 -0.3102
19324W        W32738  14.219   1.607  13.218  0.1230  0.0173 -0.1096
19325W        W32739  14.514   6.108   3.260 -0.0734  0.0193  0.0285
19326W        W32740   2.398  10.170  10.187  0.1689  0.0912  0.0259
19327W        W32741  17.558   8.355  11.974  0.0672 -0.0680 -0.0724
19328W        W32742  11.377   9.457   2.802  0.1754  0.1745 -0.1519
19329W        W32743  10.993   6.381   1.878 -0.0445 -0.2720  0.0482
19330W        W32744  11.575   2.678  13.488  0.1069  0.0993  0.1318
19331W        W32745  14.172   2.052   0.008 -0.3422  0.3824 -0.1929
19332W        W32746  11.068  12.325   0.331  0.0260 -0.0747 -0.0585
19333W        W32747   6.817  17.500   0.607 -0.2571 -0.0987  0.1875
19334W        W32748   1.938  18.046   4.333 -0.1323  0.4766  0.1433
19335W        W32749  13.009  17.319   3.913 -0.0247 -0.0856  0.0508
19336W        W32750  11.147  17.567   1.945  0.2430  0.0379 -0.1486
19337W        W32751   3.928  17.904   6.387 -0.1606 -0.1324  0.3971
19338W        W32752   3.487   7.362   0.496 -0.1225 -0.1040 -0.1480
19339W        W32753  10.809  10.977  13.158  0.1409 -0.1429 -0.0660
19340W        W32754   8.572   8.716  15.215 -0.1962 -0.1884 -0.0683
19341W        W32755  15.359  17.712  11.921 -0.1782  0.3587  0.0762
19342W        W32756  12.634   2.447   3.095  0.0547 -0.2500 -0.2499
19343W        W32757   1.487   7.553  11.100  0.0978 -0.0209 -0.0234
19344W        W32758   5.053   0.907   0.041 -0.4198 -0.0759  0.0921
19345W        W32759   0.803  10.643  14.480  0.1487 -0.0214 -0.3561
19346W        W32760   1.066  12.512  10.748 -0.0250 -0.2328 -0.0154
19347W        W32761   0.625   0.250  10.722 -0.1460 -0.2079 -0.2053
19348W        W32762  16.649  11.485  12.913 -0.0920  0.0059  0.1266
19349W        W32763   6.832   2.617  11.741  0.1059 -0.1434 -0.0344
19350W        W32764  17.002  10.997   0.368 -0.4665 -0.0372 -0.0055
19351W        W32765   5.605  13.046   5.189 -0.0906 -0.0307  0.0444
19352W        W32766  18.071  10.838  12.215  0.3167 -0.2130 -0.2723
19353W        W32767  10.388  18.290  11.712  0.3653  0.0315  0.1858
19354W        W32768  17.917  18.383   0.756  0.0670 -0.2138  0.3644
19355W        W32769  14.303   2.514  14.179  0.0850 -0.1011 -0.1294
19356W        W32770   1.676  15.043   3.852  0.1006 -0.2084 -0.0170
19357W        W32771   4.639   4.661   5.074 -0.4340 -0.2331  0.0065
19358W        W32772  16.226  16.954   0.841  0.0752 -0.0891  0.0768
19359W        W32773   4.918  11.029  11.265  0.1787  0.0275  0.1352
19360W        W32774   8.713   0.298  14.498  0.0074 -0.1662 -0.0464
19361W        W32775   4.798  15.403   4.963  0.1573 -0.3396 -0.0390
19362W        W32776  15.225  13.569  11.954 -0.1072  0.2632  0.0693
19363W        W32777  13.702   1.022  12.530  0.0646  0.1776  0.0752
19364W        W32778  11.218   7.897  13.149 -0.1985  0.0179 -0.2652
19365W        W32779   9.664   7.031   4.644  0.0061  0.1617  0.0287
19366W        W32780   3.051   6.003   0.744 -0.2531 -0.0526 -0.3309
19367W        W32781  17.978   9.089   1.147  0.0171 -0.1038  0.2142
19368W        W32782   8.349  17.372   3.866 -0.3692  0.2099 -0.0941
19369W        W32783   2.434   1.982  15.264 -0.5290  0.1972 -0.1360
19370W        W32784  17.686  15.023   1.915 -0.0249  0.1324  0.2761
19371W        W32785   9.836   4.710  12.022  0.0004 -0.2427 -0.0350
19372W        W32786  13.739   0.744   2.718  0.0637  0.2418 -0.1816
19373W        W32787   0.136   3.623   6.424 -0.2439  0.3064  0.2796
19374W        W32788   5.117   4.021   4.770  0.1193 -0.0267  0.4333
19375W        W32789  16.978  17.638   3.301 -0.1195 -0.2246 -0.0529
19376W        W32790   2.489   4.806  12.390 -0.0896 -0.0987  0.0826
19377W        W32791  13.681   1.015  14.444  0.3343 -0.0633 -0.1335
19378W        W32792  15.695   0.700   0.379  0.0104  0.0170 -0.0765
19379W        W32793  16.454  15.117   5.103 -0.2641  0.0162 -0.0172
19380W        W32794   8.844  11.743   0.957  0.2226 -0.1747 -0.1705
19381W        W32795  17.465   9.158  10.323 -0.1637 -0.0081 -0.0055
19382W        W32796   2.806   7.911   3.018 -0.3350 -0.0919  0.0234
19383W        W32797   2.738   8.324   0.588  0.0616 -0.1352 -0.1375
19384W        W32798  17.540   2.567  15.240  0.1092  0.0008  0.0330
19385W        W32799   8.014   6.995  11.369 -0.0179 -0.0239  0.0463
19386W        W32800   5.512   4.338  12.122  0.1395  0.0377 -0.0339
19387W        W32801  18.440   9.540  11.955 -0.2317 -0.0748 -0.2870
19388W        W32802   3.502  18.284  15.200  0.1035 -0.1832 -0.1889
19389W        W32803  11.918   3.799   0.731 -0.1043 -0.2230  0.0430
19390W        W32804  13.511   9.934  15.230  0.1203  0.4894  0.1186
19391W        W32805   5.889   3.605   2.562  0.5046 -0.0896  0.1096
19392W        W32806   7.481   0.801  14.254 -0.1147 -0.4022 -0.2799
19393W        W32807   0.655  10.511  13.266  0.2085 -0.4257  0.0226
19394W        W32808   5.857  11.001   4.917 -0.0275 -0.1231  0.0487
19395W        W32809   4.421   4.192  15.330  0.0974 -0.0222 -0.1078
19396W        W32810  10.321  11.795  11.732 -0.0074  0.2284  0.1321
19397W        W32811   1.630   9.586  13.521 -0.1810 -0.1115  0.2352
19398W        W32812   2.659   0.935  13.878 -0.1087  0.2069 -0.1541
19399W        W32813   4.482   3.216  10.990  0.0642  0.0056  0.0089
19400W        W32814   8.093   8.505  12.970 -0.3206  0.0314 -0.1051
19401W        W32815  13.224   6.010   4.326  0.2035 -0.3509  0.1869
19402W        W32816   6.777   1.807   2.329  0.2047  0.1816 -0.2866
19403W        W32817   8.845  16.455   3.533 -0.0164  0.0991  0.0809
19404W        W32818   8.946   4.725  14.199  0.1643 -0.1009 -0.0085
19405W        W32819   7.073   3.159  13.162 -0.0733 -0.1383  0.0412
19406W        W32820  16.573   3.597  14.451 -0.0013  0.1280  0.0441
19407W        W32821   3.989  17.201  11.417  0.3775 -0.0216  0.2120
19408W        W32822  16.964  13.562   4.156 -0.2036 -0.0857 -0.3404
19409W        W32823   6.890  12.207  12.336 -0.1969  0.0544 -0.4195
19410W        W32824  10.279  10.670   2.159  0.3298 -0.0335 -0.1171
19411W        W32825   9.370  14.762   2.851  0.0502 -0.3447 -0.1518
19412W        W32826   2.292  10.048  11.630  0.0267  0.2404  0.0124
19413W        W32827   5.407  14.208  13.499  0.0808  0.1109  0.2895
19414W        W32828  15.443   8.920  13.867 -0.1065  0.2810 -0.1638
19415W        W32829   7.408   2.147  13.649  0.0057  0.1731  0.1577
19416W        W32830   7.546   6.256   3.801  0.4627 -0.1278 -0.0182
19417W        W32831   4.070  16.123  12.867 -0.3166 -0.2942 -0.0026
19418W        W32832  11.198   7.721   1.267  0.0847  0.4496 -0.1577
19419W        W32833  11.054   6.221  14.599  0.4097  0.3398 -0.0136
19420W        W32834  16.024  17.735   3.951 -0.0041  0.0765  0.0981
19421W        W32835  14.950   3.815   5.758  0.2496 -0.0207  0.0111
19422W        W32836  17.361   0.032   0.859 -0.0505  0.1654 -0.4108
19423W        W32837  15.311   7.929  10.614  0.0745  0.2313  0.0949
19424W        W32838   3.194  16.151  10.601  0.0666  0.1566 -0.0693
19425W        W32839   6.608  18.363  16.036  0.2329  0.0635 -0.1949
19426W        W32840  12.732   8.714  13.961 -0.1284  0.0498 -0.1334
19427W        W32841   5.056   8.723  12.620  0.0182  0.0559 -0.0000
19428W        W32842  13.450   7.227  15.772  0.0287 -0.2021 -0.0875
19429W        W32843  12.392   4.014   3.194 -0.4752  0.2808 -0.1471
19430W        W32844   1.949  16.269   0.947  0.2411 -0.0854 -0.1746
19431W        W32845  11.255   4.639   3.284  0.0307  0.2641  0.0644
19432W        W32846  11.822   3.790   3.843  0.0098  0.4956 -0.0050
19433W        W32847   1.290   9.093  10.357  0.2731 -0.2293  0.0051
19434W        W32848  15.559  13.766   1.964 -0.0805 -0.0788  0.0477
19435W        W32849  15.487   1.024  12.321  0.2852 -0.0344  0.3135
19436W        W32850   5.699   9.465   5.729 -0.2039 -0.0243  0.2924
19437W        W32851   7.899   8.574   4.062  0.5798 -0.1264  0.1771
19438W        W32852   7.411  12.753   0.562 -0.0656  0.0593 -0.0500
19439W        W32853   5.748   2.295   3.848  0.0943  0.0363 -0.1023
19440W        W32854  10.725  10.277   5.145  0.3382 -0.1315  0.3033
19441W        W32855   6.004  16.882  11.300 -0.4670 -0.0580  0.1853
19442W        W32856  16.472  15.662   2.613  0.0093  0.0753  0.0114
19443W        W32857   9.695  11.827  14.721 -0.2472  0.0640  0.3714
19444W        W32858   8.751   0.916  15.180 -0.0542  0.0579  0.1387
19445W        W32859   3.772   5.050   5.483 -0.1951 -0.1815 -0.0344
19446W        W32860   4.991   6.897  12.271 -0.2014  0.1154 -0.0681
19447W        W32861   6.892   2.865   2.758  0.1361 -0.1840  0.1309
19448W        W32862  12.887  12.083  11.223  0.2061 -0.0350 -0.1626
19449W        W32863  17.112  12.301   4.875  0.1551 -0.3261  0.0011
19450W        W32864  15.785  13.506  11.073 -0.1564 -0.1083  0.0498
19451W        W32865   3.467   2.493   1.142  0.3408 -0.2923  0.2445
19452W        W32866  13.049   4.818  15.759 -0.0083 -0.1931 -0.1402
19453W        W32867   8.155  13.288  11.760 -0.0547 -0.0345  0.1508
19454W        W32868   5.353   4.360  11.478 -0.3195 -0.3266  0.2348
19455W        W32869   5.596  14.392   2.047 -0.0706  0.1792  0.0881
19456W        W32870   5.244   8.131  11.387  0.0968 -0.0930 -0.0258
19457W        W32871   1.527  10.112  15.141  0.1547 -0.1640  0.1554
19458W        W32872  14.912  13.179  12.628  0.2258 -0.0905 -0.0178
19459W        W32873   7.471   3.243  11.915 -0.0262 -0.1842 -0.0134
19460W        W32874   1.381  11.364   2.817  0.0208  0.1519 -0.2923
19461W        W32875  14.456  13.340   0.134  0.3427  0.3867 -0.1938
19462W        W32876  13.661   4.302  12.961 -0.0097  0.0214 -0.1306
19463W        W32877   1.848   5.959  15.838 -0.1286  0.0436  0.0940
19464W        W32878  13.893   1.625   9.611  0.1557 -0.0587  0.0714
19465W        W32879  14.938   1.766  14.226 -0.0609  0.3147  0.0036
19466W        W32880  12.210   7.502  12.055  0.1873  0.0287 -0.1163
19467W        W32881   6.450   8.833  11.477  0.0885 -0.2559  0.0871
19468W        W32882  17.070   9.397  12.490 -0.2188 -0.0463 -0.0128
19469W        W32883   4.307   4.979   5.280  0.1955 -0.0248  0.3755
19470W        W32884  16.810   3.798   0.289 -0.0536  0.1208  0.0751
19471W        W32885  14.743  10.246  15.506  0.2867  0.0744 -0.0208
19472W        W32886   0.092  18.046  10.513 -0.1132  0.2269  0.1942
19473W        W32887   1.767   5.833   3.151  0.2277 -0.2704 -0.3105
19474W        W32888  11.127   3.217  11.084 -0.2184  0.2725  0.2035
19475W        W32889   6.467  15.738  12.548  0.1333  0.0526 -0.2115
19476W        W32890  18.052   6.978  11.113  0.1269 -0.0786 -0.1695
19477W        W32891  14.232   0.822  13.231 -0.2736 -0.3834  0.0854
19478W        W32892  10.975  11.178   5.140  0.0617  0.0193 -0.0813
19479W        W32893  16.892   1.188  14.462  0.1808 -0.1283 -0.0294
19480W        W32894   9.738  16.821   5.832 -0.0014 -0.0730 -0.2435
19481W        W32895  16.942   9.628   4.572 -0.3970 -0.1490  0.0497
19482W        W32896   7.562  12.809  13.732 -0.1380 -0.1124 -0.3135
19483W        W32897   0.339  15.476   1.457 -0.2443  0.1648 -0.1243
19484W        W32898   7.438   2.483  15.938  0.4512  0.0464 -0.0869
19485W        W32899  16.127   5.948  15.736 -0.4719 -0.4341  0.0550
19486W        W32900  14.106   6.146  13.558 -0.0243  0.3133 -0.0776
19487W        W32901   7.989   7.754   2.605 -0.0836  0.2337 -0.0718
19488W        W32902   6.917   7.278   5.396 -0.1527 -0.0283  0.0449
19489W        W32903   6.032  11.560  12.743 -0.0800  0.2073 -0.0251
19490W        W32904  16.155   8.515  15.242 -0.1211  0.3153 -0.2450
19491W        W32905  11.140  13.574  15.929 -0.0911 -0.0691 -0.0314
19492W        W32906  17.861   0.750   0.954 -0.1456 -0.2325  0.0300
19493W        W32907   6.344  15.792  15.959 -0.1521 -0.0789  0.2306
19494W        W32908  15.806   2.694  14.690  0.2041  0.1846 -0.0425
19495W        W32909   5.703   9.186   5.304 -0.1540 -0.0821 -0.0556
19496W        W32910   5.266   3.681  11.334  0.1344 -0.1784  0.1503
19497W        W32911  14.046  12.620  14.261  0.0044  0.1270  0.0248
19498W        W32912  14.846   8.047   2.341 -0.0036  0.0393  0.2731
19499W        W32913  17.073   1.148   3.853 -0.0139 -0.3344 -0.0502
19500W        W32914  11.902   1.896  10.259  0.1073 -0.0780 -0.0518
19501W        W32915   7.408   6.461  14.089  0.3367  0.0416  0.3036
19502W        W32916  17.998   6.614  16.052  0.0174  0.1146  0.1110
19503W        W32917   2.378   9.601   4.105  0.0488 -0.0761 -0.2131
19504W        W32918   9.295  11.040   0.530  0.1543 -0.1556 -0.2002
19505W        W32919   8.707   5.071  10.384 -0.2638 -0.2526 -0.0062
19506W        W32920   9.584  13.831   3.119  0.2544  0.0004  0.0859
19507W        W32921  17.456   9.562   1.896  0.1587 -0.0612 -0.4033
19508W        W32922   5.076   8.408   4.254  0.4324  0.0394 -0.0578
19509W        W32923  10.848   5.122  15.284  0.0261 -0.2306  0.2364
19510W        W32924   4.559   5.856  14.770 -0.3520 -0.0375 -0.0588
19511W        W32925  17.550   4.010  11.556  0.1141 -0.1266  0.0659
19512W        W32926   2.988   1.337  14.627 -0.0022 -0.0682 -0.1584
19513W        W32927  12.427  12.121   2.929  0.0869  0.3080  0.2567
19514W        W32928   5.455   7.816   5.163 -0.0241 -0.0769  0.2382
19515W        W32929   6.916  11.307  15.441  0.1749  0.0765 -0.1047
19516W        W32930   2.258  10.811  15.263  0.1809  0.0638  0.2716
19517W        W32931  11.628   5.098   5.571 -0.1380  0.0758 -0.0412
19518W        W32932  18.228   6.306   4.164 -0.0368  0.0446  0.1687
19519W        W32933  11.521   1.491  10.578  0.0992  0.2649 -0.0278
19520W        W32934   6.973  14.171  11.103  0.1196  0.1585 -0.2990
19521W        W32935   8.983   9.352  13.452 -0.2115  0.0743  0.2297
19522W        W32936   0.516  13.133   2.814 -0.1233  0.2962 -0.2389
19523W        W32937  11.094  10.796   1.624  0.2186  0.1472  0.0157
19524W        W32938  17.547   7.239   0.592  0.0181  0.1334  0.1092
19525W        W32939  16.880   9.368  14.786 -0.0770  0.0635 -0.0770
19526W        W32940   0.476  17.999   0.162 -0.2739  0.0632 -0.0870
19527W        W32941  11.277  17.798  16.116 -0.2879  0.1923 -0.1300
19528W        W32942   8.786   2.026   0.835 -0.0533  0.0686  0.0580
19529W        W32943   7.622   5.916   2.293  0.2462 -0.3685 -0.1739
19530W        W32944  10.272   7.411   2.902 -0.1073 -0.0124  0.1030
19531W        W32945  15.801   8.281  12.730  0.3891 -0.3313  0.0857
19532W        W32946   0.074   7.721   5.601  0.0072  0.1677  0.0477
19533W        W32947   4.973   5.727   0.551 -0.1207  0.1687 -0.0929
19534W        W32948   4.953   0.585   2.349 -0.0309 -0.0462 -0.0376
19535W        W32949   3.296  16.333  11.055 -0.0137  0.1566 -0.0710
19536W        W32950  15.823   1.691   4.799  0.0446 -0.2220  0.0120
19537W        W32951  15.662  17.829  13.385 -0.1163 -0.0796 -0.3344
19538W        W32952   2.788  18.231   2.090 -0.0127  0.2872 -0.0183
19539W        W32953   7.344   2.023   0.347 -0.2258  0.2036  0.1646
19540W        W32954   3.805   5.173  13.150  0.2783  0.1729 -0.0808
19541W        W32955   2.753  16.267  16.158  0.1088  0.1322  0.1472
19542W        W32956   1.729   0.752   5.490  0.3233 -0.0674  0.0394
19543W        W32957  12.313  12.064   1.309 -0.0138  0.0345 -0.2048
19544W        W32958   5.325  11.976  15.597  0.1727 -0.2176  0.3515
19545W        W32959  16.037   2.581  11.684  0.3426 -0.0662 -0.2175
19546W        W32960  11.218  17.292  11.221 -0.0985 -0.0700  0.0122
19547W        W32961  14.998   7.031  10.569  0.1127 -0.0985 -0.0360
19548W        W32962   2.440   4.274   1.893  0.0349  0.2129  0.0475
19549W        W32963  15.464  13.184   4.531 -0.0104  0.0737 -0.4814
19550W        W32964   8.092  13.872  13.451  0.3638 -0.0126  0.0243
19551W        W32965  17.587  14.417   2.528  0.0015  0.1088  0.1095
19552W        W32966  14.858   9.689   3.510 -0.0069  0.1295 -0.3429
19553W        W32967   4.466   4.852   4.622 -0.0313 -0.0054  0.3128
19554W        W32968   6.697   7.710   6.101  0.0021  0.0161  0.1043
19555W        W32969  12.595  11.360  15.592  0.1463  0.3160 -0.1619
19556W        W32970  10.247  17.915   1.680  0.3017 -0.2502  0.0138
19557W        W32971  17.310  18.044  12.350 -0.0452 -0.0820  0.0653
19558W        W32972  18.153  11.429   5.671 -0.1188 -0.0593 -0.0282
19559W        W32973  16.356  11.391  12.416  0.0849  0.1458 -0.1379
19560W        W32974  15.353   5.356   4.865  0.0400 -0.0899  0.0279
19561W        W32975  13.589   7.481   6.202  0.3064 -0.0883 -0.2703
19562W        W32976  15.484   1.268   2.515 -0.3527  0.0641  0.5343
19563W        W32977  12.792   6.267   3.583 -0.0267  0.2574  0.2170
19564W        W32978   3.322   3.110   0.434  0.0128 -0.0302  0.1540
19565W        W32979   3.958   4.161   0.036  0.0148  0.0554 -0.0920
19566W        W32980   0.881  14.665  15.571 -0.0583 -0.1660  0.1746
19567W        W32981   1.208   2.058   1.406 -0.1340  0.1902  0.0676
19568W        W32982  16.821   2.587   0.028  0.1359 -0.2822 -0.0338
19569W        W32983  13.807  14.574  15.374 -0.0200 -0.0369  0.3045
19570W        W32984  15.520  10.534   2.462 -0.0757 -0.0235  0.0481
19571W        W32985  13.899   1.747   2.757  0.2330 -0.4675  0.1003
19572W        W32986  11.703  16.273  11.046  0.0514  0.1901 -0.1150
19573W        W32987  15.716   4.518  14.962 -0.2045  0.0964 -0.0341
19574W        W32988  16.319   8.320  12.867  0.1028  0.0121  0.1386
19575W        W32989   5.091  14.219   4.605  0.2027  0.2928 -0.1486
19576W        W32990  13.288  14.715   6.044  0.1759  0.2082 -0.4624
19577W        W32991   8.018   9.927   0.133  0.1256  0.3392 -0.0701
19578W        W32992  11.548   4.479  15.493 -0.0026  0.0963 -0.0023
19579W        W32993  18.165   4.895   4.477  0.0800 -0.0079  0.0802
19580W        W32994   8.592   2.953   2.263 -0.3607 -0.1587  0.0817
19581W        W32995   1.771   0.902  12.036 -0.0893  0.3242 -0.0343
19582W        W32996  13.294   6.783  12.005  0.0871 -0.2712 -0.0404
19583W        W32997   9.524   0.090   2.534  0.2096  0.0364  0.1359
19584W        W32998  13.612  12.059   1.550  0.2594 -0.3347 -0.2785
19585W        W32999  10.579  10.982   3.598 -0.1326 -0.1350 -0.1684
19586W        W33000   6.867   1.311   2.103 -0.0177  0.0596 -0.0777
19587W        W33001   1.401  17.964  10.692 -0.1067  0.0350 -0.0957
19588W        W33002   4.609   8.457  13.822 -0.3404  0.1413 -0.2215
19589W        W33003   1.674   6.089  12.957  0.0450  0.2621 -0.0860
19590W        W33004   9.324  14.646  13.152 -0.0497 -0.1607 -0.1700
19591W        W33005   9.588   3.094   3.215 -0.1895  0.2005  0.0985
19592W        W33006  16.059  15.854  13.041 -0.0418  0.1551  0.1102
19593W        W33007   0.783   8.948   0.352  0.1279 -0.2788  0.1041
19594W        W33008   1.280   0.746   5.654  0.0314 -0.1309 -0.0949
19595W        W33009  18.258  15.206   0.942  0.2284  0.3070  0.0558
19596W        W33010  13.155   0.183   0.743  0.1104 -0.0002  0.0719
19597W        W33011   9.306  13.359   6.068 -0.1474  0.1572  0.5336
19598W        W33012   5.619   2.113  15.556  0.1302 -0.3100  0.1989
19599W        W33013  15.834   4.722   2.523 -0.1175 -0.1382 -0.0807
19600W        W33014   8.965  14.317   2.900  0.1149  0.1538  0.2487
19601W        W33015   3.692   7.301  15.058  0.1010 -0.2650  0.2800
19602W        W33016  17.560   5.457   1.676 -0.0381  0.0806  0.1981
19603W        W33017  12.086  15.261  11.795 -0.2296 -0.0162 -0.3948
19604W        W33018   9.030  17.484  12.914  0.0714  0.0224 -0.0649
19605W        W33019  16.964  11.473   4.035 -0.3520  0.1792  0.2142
19606W        W33020  10.343  10.825   4.030 -0.0758 -0.1275 -0.0745
19607W        W33021  11.354   3.934   1.843  0.2549 -0.1163  0.2302
19608W        W33022   7.257   8.668   3.008 -0.1075  0.2880  0.4168
19609W        W33023  10.822   7.275  15.547  0.0392 -0.1973  0.3096
19610W        W33024  16.348   9.583  12.122 -0.1408 -0.0315 -0.2934
19611W        W33025  13.487   9.303  14.666  0.1315 -0.1395  0.1340
19612W        W33026   5.475  18.218   2.204 -0.0982 -0.3311 -0.1503
19613W        W33027   6.079   8.146   0.150  0.3350  0.2418 -0.1382
19614W        W33028   8.458  17.373   2.150  0.1832  0.0095  0.1192
19615W        W33029   3.766   4.979  11.277 -0.2700 -0.2459 -0.0287
19616W        W33030   4.111   5.387   2.425  0.3564 -0.1228  0.0640
19617W        W33031  10.866   4.847  11.598 -0.0909  0.3600 -0.1605
19618W        W33032  16.253  17.277   6.389 -0.3271 -0.1027 -0.1444
19619W        W33033   7.377  18.014  12.537  0.0823 -0.0014  0.1490
19620W        W33034  10.742  11.536  11.866 -0.0618 -0.0088 -0.0117
19621W        W33035   1.320  10.846   5.587  0.0193  0.2825 -0.1272
19622W        W33036   5.028  16.874   3.558  0.1685  0.0204  0.1561
19623W        W33037   1.767  14.646  13.926 -0.2042  0.1102 -0.4566
19624W        W33038  12.401  15.666  13.912  0.0326  0.3873  0.2790
19625W        W33039   6.743   9.849  10.608  0.0376  0.1281 -0.0628
19626W        W33040   0.733  16.914   6.393 -0.0208 -0.0420  0.0833
19627W        W33041  17.202   2.051  13.402  0.0270 -0.2828 -0.0070
19628W        W33042   3.104  18.123   5.050 -0.2402  0.1987  0.2623
19629W        W33043   4.212  15.704  13.573  0.0613  0.0653 -0.1723
19630W        W33044  17.338  15.241  15.394  0.1471 -0.0775 -0.1820
19631W        W33045   6.745  17.726   5.758  0.1545  0.3439 -0.0170
19632W        W33046   5.517  12.254   3.396  0.2298 -0.0400 -0.0171
19633W        W33047   2.287   2.470   0.626  0.1989  0.1028  0.0175
19634W        W33048   8.651  14.747  16.091 -0.2347 -0.1520  0.0677
19635W        W33049   7.515   8.732   2.244 -0.2777  0.2231  0.0730
19636W        W33050  11.863   1.351   5.133 -0.0422 -0.1306  0.0971
19637W        W33051   6.840  11.946  14.449 -0.0099 -0.1068  0.0542
19638W        W33052  14.469  11.554   1.405  0.1188 -0.0505  0.0574
19639W        W33053  11.119   8.463  13.299  0.3459  0.2020 -0.1814
19640W        W33054  12.855   9.136   1.129  0.1272 -0.0579 -0.0768
19641W        W33055   4.786  15.719   0.322 -0.0019  0.1801  0.0492
19642W        W33056  16.127  14.163  11.868  0.1663  0.1756  0.2079
19643W        W33057   1.625  16.424  14.439 -0.0540  0.1365  0.2843
19644W        W33058  12.823  14.559  10.442  0.0495 -0.2502  0.0186
19645W        W33059   4.240   7.236   1.033 -0.0942  0.2084  0.1526
19646W        W33060   8.331   2.096   9.984 -0.0171  0.0459 -0.3644
19647W        W33061   1.649   5.153   2.832 -0.1470  0.0789  0.0145
19648W        W33062   5.761   6.355  12.267  0.0991 -0.0101 -0.0866
19649W        W33063  15.916   6.989  12.332 -0.2148  0.0109 -0.0150
19650W        W33064  18.311  13.484   3.322  0.0003  0.1718  0.0468
19651W        W33065   8.362   0.518   1.567 -0.2097 -0.3284 -0.0361
19652W        W33066   3.874  14.804  15.483  0.0927 -0.1963 -0.0606
19653W        W33067   0.291   6.581   4.170 -0.3086 -0.2430  0.0216
19654W        W33068  13.338   2.267  11.071 -0.1803  0.0162  0.0647
19655W        W33069   7.021  17.331   5.744  0.0181  0.1641 -0.3688
19656W        W33070  14.815   7.867  13.101  0.2026  0.2951 -0.0359
19657W        W33071   0.532  12.372   2.816  0.0212  0.2193  0.3469
19658W        W33072   8.315   6.348  13.396 -0.2847 -0.1347  0.1859
19659W        W33073   3.445   6.186  12.003  0.1735 -0.2591 -0.0578
19660W        W33074   9.117   8.738  10.895 -0.1046 -0.1561 -0.1712
19661W        W33075   4.259   8.385  11.354  0.1094  0.0355 -0.1859
19662W        W33076  13.722  16.578   1.193  0.0776 -0.3163  0.0718
19663W        W33077  14.612   6.513   5.379 -0.1034  0.2779  0.2408
19664W        W33078   2.877   3.123   1.760  0.1169  0.0204 -0.2285
19665W        W33079  17.525  12.323  12.092 -0.1868 -0.4169 -0.0974
19666W        W33080  17.896   7.504   3.486  0.2132  0.3434 -0.1461
19667W        W33081  10.669  15.373   5.143 -0.2877 -0.2383  0.1233
19668W        W33082   1.120   7.889  14.151  0.4064  0.3604 -0.0598
19669W        W33083   1.033   3.804  12.821 -0.0513 -0.0421 -0.1953
19670W        W33084   3.391   5.812   2.794 -0.0302 -0.1813  0.0449
19671W        W33085   4.573  10.699  14.358 -0.1689  0.2853  0.1211
19672W        W33086  16.199   3.470  11.608  0.2739 -0.0745  0.1097
19673W        W33087   7.858   1.980   3.276 -0.1403 -0.0051  0.3439
19674W        W33088   1.784  17.540   1.515 -0.0732 -0.3237 -0.2730
19675W        W33089  13.393   6.542   5.587 -0.2505  0.0467 -0.0044
19676W        W33090  14.070  12.069  15.704 -0.2106 -0.2648  0.5446
19677W        W33091  11.860   1.450   6.086 -0.2626 -0.0991  0.0211
19678W        W33092  12.078  14.774  13.520  0.3066 -0.1203  0.0507
19679W        W33093   3.898  13.551  15.530 -0.0313 -0.0225  0.1196
19680W        W33094   5.898   1.828   4.788 -0.0536 -0.0369  0.0297
19681W        W33095   6.460   2.180   5.241  0.1462  0.0001  0.2004
19682W        W33096   3.581   0.683   2.891  0.2485 -0.1787  0.0280
19683W        W33097  12.143   0.571   9.562  0.5133 -0.2667 -0.1329
19684W        W33098  13.696  10.395   1.551 -0.1302  0.1511  0.2230
19685W        W33099  10.103   8.168  12.493 -0.0522  0.1998 -0.0822
19686W        W33100   1.995   5.075  15.720  0.2505  0.1096 -0.0211
19687W        W33101   7.084   8.205   2.085  0.0971 -0.0341 -0.1992
19688W        W33102   4.920  15.652  10.579  0.2830 -0.1973 -0.3267
19689W        W33103  13.689   4.189  13.766 -0.0755  0.1363  0.0409
19690W        W33104  18.187   9.945   0.325 -0.2755 -0.2074  0.2451
19691W        W33105  18.261   1.751   0.429  0.0287  0.0203 -0.4053
19692W        W33106   5.712   4.392  10.650  0.0236  0.0563 -0.1425
19693W        W33107   8.647  13.160   9.859 -0.0702  0.3290 -0.1535
19694W        W33108  13.454  18.226   2.312 -0.0127  0.0773  0.0692
19695W        W33109   8.913   2.702  15.597  0.0391 -0.3254  0.1426
19696W        W33110  15.582   9.428   4.668 -0.0397  0.0808  0.3483
19697W        W33111   0.507  13.260   2.294  0.3838 -0.1719  0.0744
19698W        W33112  16.568  10.954  10.206  0.0421 -0.2535 -0.1275
19699W        W33113  11.470   8.373  14.741 -0.2048 -0.1164  0.0613
19700W        W33114   4.256   0.764  13.851  0.1874 -0.0481  0.0049
19701W        W33115  14.701   9.767  14.603  0.0083 -0.0209  0.0513
19702W        W33116   1.975  17.736   3.394 -0.1067  0.0504  0.1862
19703W        W33117  14.737   1.545  13.585  0.2663  0.3557 -0.0954
19704W        W33118  12.432   9.510   2.307 -0.1081  0.3825  0.2293
19705W        W33119  16.705   5.809   3.162  0.1119 -0.2602  0.2465
19706W        W33120  15.457  15.821  10.199 -0.1009 -0.4028  0.2071
19707W        W33121  16.646   8.237   0.875 -0.1716 -0.1048 -0.0737
19708W        W33122   2.560   9.445   3.110  0.0830  0.2377  0.1846
19709W        W33123  11.299  15.277  10.451  0.0533  0.1283  0.3833
19710W        W33124  10.176  12.590  12.131 -0.0938 -0.1118  0.3693
19711W        W33125  14.629  12.911   1.158  0.1055 -0.4281  0.0687
19712W        W33126   6.206   2.783  15.040 -0.0237 -0.0392 -0.2002
19713W        W33127   5.009  15.442  13.506 -0.0191 -0.2173 -0.2628
19714W        W33128   0.237  12.517  12.562  0.0916 -0.1075  0.3242
19715W        W33129   6.571  10.052   3.984 -0.0651 -0.3207 -0.1747
19716W        W33130   9.518  13.950  10.865  0.1343 -0.1723  0.0274
19717W        W33131   4.659  13.527  11.828 -0.0923  0.2591 -0.1789
19718W        W33132  17.833   2.043   0.227  0.2499  0.0880 -0.0806
19719W        W33133   6.303  12.266   5.528  0.1033 -0.1431  0.2027
19720W        W33134  13.919   0.391  11.227  0.1662  0.0647 -0.0707
19721W        W33135  11.487  10.178   3.633 -0.2818 -0.0378 -0.1181
19722W        W33136   2.500  16.894  10.733  0.1224  0.0505  0.1757
19723W        W33137   0.275   2.373  11.141  0.0736 -0.0064 -0.1901
19724W        W33138   5.851   4.913  12.918  0.1401 -0.1255  0.3496
19725W        W33139  16.978   6.896   0.419 -0.3671 -0.3420  0.2821
19726W        W33140  18.377   3.046  11.457  0.3319 -0.4663 -0.2610
19727W        W33141   2.204   2.063   5.936  0.0633  0.0943 -0.1868
19728W        W33142   7.268   4.654  16.254  0.2840  0.1357  0.0058
19729W        W33143  16.887   4.744  15.067 -0.1306 -0.2762 -0.0554
19730W        W33144  14.452   5.275  15.941 -0.2790  0.2032  0.0499
19731W        W33145   6.495  15.991   4.718  0.4774 -0.3368 -0.0840
19732W        W33146   3.506   5.227   6.115  0.0006 -0.0535 -0.0270
19733W        W33147  11.150   5.840  12.039 -0.0280  0.1834 -0.0143
19734W        W33148   1.327   9.698  15.725  0.0691  0.2718  0.0793
19735W        W33149   3.112  13.905  14.165  0.3102 -0.1116 -0.0302
19736W        W33150  10.666  15.239   1.659  0.2151  0.1013  0.0158
19737W        W33151   1.448  12.120  13.787  0.1881  0.4559 -0.0843
19738W        W33152   5.076  17.010  14.284 -0.0719 -0.1501  0.0440
19739W        W33153   1.071  11.979  10.829  0.1352 -0.0783 -0.0371
19740W        W33154  16.877  17.183  14.883  0.2744 -0.4990 -0.1042
19741W        W33155   5.659  10.381  16.237 -0.0014  0.0247 -0.0471
19742W        W33156  15.863  12.421   0.943 -0.0227  0.2197  0.1354
19743W        W33157  16.914  18.402   6.002  0.0257 -0.4676 -0.4511
19744W        W33158  11.606  14.531   1.990 -0.1746 -0.0521 -0.2961
19745W        W33159   1.323   6.429  13.771 -0.5924 -0.0620 -0.2144
19746W        W33160  15.960   8.726  10.438 -0.1355  0.0154  0.1671
19747W        W33161  17.799  14.034   2.827 -0.0817  0.0845  0.0400
19748W        W33162  11.036  10.229   5.509 -0.0600 -0.0364 -0.0393
19749W        W33163  12.260  10.739  14.492 -0.0138  0.1541 -0.1146
19750W        W33164   4.149   7.376  12.360 -0.0049 -0.0117  0.3621
19751W        W33165   2.671   2.864   2.284  0.0561  0.1869  0.0437
19752W        W33166   9.863   0.816  14.218 -0.0292 -0.0902  0.3140
19753W        W33167   6.645   1.704  14.856  0.0126  0.4488 -0.2835
19754W        W33168   1.701   2.287  13.048 -0.0350 -0.2415  0.1547
19755W        W33169  18.015  15.361  10.881  0.0508 -0.1129  0.1722
19756W        W33170  12.306  12.418  10.998  0.1457  0.0386 -0.0041
19757W        W33171   3.662   0.316  10.783  0.0134  0.0042  0.0883
19758W        W33172  12.501   6.621   5.566  0.0460 -0.1218  0.0221
19759W        W33173   1.415  14.005   0.938  0.0514 -0.0081  0.2465
19760W        W33174  12.470   8.385   4.696  0.2028  0.0663  0.1237
19761W        W33175   8.450  17.027   1.769  0.1969  0.1400  0.2464
19762W        W33176  12.307   4.320  12.509 -0.0281 -0.1000 -0.2534
19763W        W33177  13.664   9.332  12.655 -0.2376 -0.3706  0.0557
19764W        W33178   9.488   1.768   4.864 -0.1071 -0.0381 -0.2104
19765W        W33179  10.985   1.456  15.592  0.0504  0.0451  0.2117
19766W        W33180   2.547  12.329   0.038 -0.0142 -0.0698 -0.1598
19767W        W33181  17.982  13.074  15.895  0.1440 -0.2730 -0.1082
19768W        W33182  16.596  16.996  11.217  0.2416 -0.2114 -0.1510
19769W        W33183   0.375  11.066  10.793  0.1200  0.2222 -0.0322
19770W        W33184   1.940   5.099   0.084 -0.1324 -0.1912 -0.3388
19771W        W33185  17.610   0.923  13.420  0.1903 -0.0859  0.2312
19772W        W33186   8.663   6.905   4.595 -0.3675  0.1510  0.0444
19773W        W33187   4.471  17.366  12.720  0.0532  0.2389 -0.0726
19774W        W33188  12.407  18.403   4.337 -0.0479  0.1999  0.1840
19775W        W33189   7.865  14.663  14.903 -0.0737  0.0491  0.2532
19776W        W33190  12.085  13.949  10.546 -0.3100  0.1962 -0.3050
19777W        W33191   9.420  14.993   4.939 -0.0446 -0.2905  0.0781
19778W        W33192   9.542  12.044  10.760  0.0094 -0.0515 -0.0297
19779W        W33193  11.654  13.258  13.551  0.4020 -0.1138 -0.3420
19780W        W33194   9.258   1.318  13.659  0.0625 -0.3166  0.1138
19781W        W33195  10.610   7.310   6.155  0.1291 -0.0219  0.1224
19782W        W33196   7.218  15.919   1.407  0.0623 -0.1097  0.0787
19783W        W33197  17.865  17.436  16.254 -0.0526  0.1819 -0.2025
19784W        W33198   8.555  11.116  15.116  0.3591  0.0447 -0.1311
19785W        W33199  14.104  12.196   9.899 -0.0452 -0.3316 -0.1089
19786W        W33200   7.212  11.021   0.980  0.1127 -0.2609 -0.3331
19787W        W33201   8.067   4.574  16.268 -0.1458  0.1207 -0.1038
19788W        W33202  17.383   1.176  14.423 -0.1296  0.0016 -0.4137
19789W        W33203   8.497   6.076   1.813  0.1672  0.0608  0.1808
19790W        W33204   9.601  15.308   3.952  0.2173 -0.1311 -0.0790
19791W        W33205   7.895  17.280   2.693  0.1534 -0.1597  0.1962
19792W        W33206  18.352   6.806   3.044  0.0916 -0.4394 -0.3540
19793W        W33207   9.205  17.370  14.600  0.0609  0.2266  0.1910
19794W        W33208   3.025  17.760   4.464  0.4163 -0.0075 -0.0315
19795W        W33209  10.818   4.023   5.555  0.0941  0.0606 -0.0047
19796W        W33210  17.361  12.118  16.203 -0.1442 -0.0522 -0.2431
19797W        W33211  10.175   2.033   9.566 -0.2380 -0.1614 -0.0894
19798W        W33212  15.360   8.520  12.709 -0.1678  0.1632  0.1680
19799W        W33213   4.455   3.533   3.287 -0.0529  0.1329 -0.1169
19800W        W33214   6.785  14.537   1.477 -0.1444  0.1063  0.0504
19801W        W33215  17.544   2.321  13.704 -0.0312  0.0330  0.2118
19802W        W33216  11.906  12.270   4.111 -0.5061 -0.0153 -0.0975
19803W        W33217  12.509  15.418   2.952  0.0449  0.0788 -0.0669
19804W        W33218   7.208   7.040   1.037 -0.1627  0.1419  0.0070
19805W        W33219   4.675   3.245  11.752  0.0366 -0.1373  0.0630
19806W        W33220   7.483  17.732  12.086 -0.0979 -0.2737  0.3652
19807W        W33221  14.387   1.863  13.686 -0.1189 -0.0477 -0.0772
19808W        W33222   4.171   1.374   4.746 -0.2379  0.3931  0.3140
19809W        W33223   7.575  15.483   3.176 -0.1039 -0.2851  0.1800
19810W        W33224   5.893   0.521  14.381  0.2847  0.3643  0.1771
19811W        W33225   4.138   9.724  10.364  0.0643  0.2135 -0.0457
19812W        W33226   0.608  17.861  12.757 -0.2474  0.3022 -0.2656
19813W        W33227  16.412  12.795   5.800  0.0328 -0.1221  0.1975
19814W        W33228  15.366   0.339  11.561 -0.0567 -0.0690 -0.0297
19815W        W33229  12.168  16.962   3.883 -0.1112  0.2040 -0.2168
19816W        W33230   6.542   1.708  11.676 -0.2220 -0.1693 -0.0530
19817W        W33231   2.702   2.661  13.708  0.0523 -0.0674  0.0841
19818W        W33232   4.658  15.224  15.666 -0.0475  0.3564  0.0645
19819W        W33233   4.139   2.604   4.293 -0.2656  0.2808 -0.1322
19820W        W33234   0.255  18.065  15.961 -0.0587  0.0973 -0.1024
19821W        W33235   4.142  12.126   4.299 -0.2251  0.0091 -0.0698
19822W        W33236   2.726   8.694   5.178  0.0603 -0.0572 -0.0314
19823W        W33237   7.980  12.104   0.541  0.0018  0.1477  0.2336
19824W        W33238  15.320   0.823  11.250 -0.2922 -0.2890  0.0361
19825W        W33239   1.703   4.177  15.868  0.2118 -0.2786  0.1947
19826W        W33240   2.451   7.065  13.248 -0.1800 -0.1011 -0.0234
19827W        W33241  12.449   7.745   2.023 -0.0969 -0.1752  0.2014
19828W        W33242  16.664   7.377   1.471  0.5084 -0.3765 -0.3883
19829W        W33243   5.128  15.132   1.004  0.1203  0.0793  0.1362
19830W        W33244  10.890   8.847   5.402 -0.2284  0.2257 -0.0213
19831W        W33245  14.838  15.983   0.255  0.0793  0.3344  0.2146
19832W        W33246   9.824   5.505   0.324 -0.1597  0.0127  0.0624
19833W        W33247   6.873   6.838  10.148 -0.3106 -0.1641  0.0133
19834W        W33248   4.101  15.290   4.465 -0.0984 -0.0334  0.3027
19835W        W33249  12.405   0.403   3.935  0.1758  0.0654  0.0088
19836W        W33250  12.271   5.292  16.198  0.1311 -0.0018  0.3608
19837W        W33251   2.081  13.834   4.654  0.1256 -0.1579 -0.1257
19838W        W33252   9.005   7.978  15.733 -0.2021  0.0594 -0.0389
19839W        W33253   1.360  13.126  13.890 -0.0553 -0.0168  0.3935
19840W        W33254  12.149  15.488   0.816  0.0247 -0.1078  0.1461
19841W        W33255  17.375   2.469   2.976 -0.1504 -0.1618 -0.3212
19842W        W33256  18.018   2.072   1.222  0.1693 -0.1303 -0.1847
19843W        W33257   6.300   7.959   3.354  0.0142  0.3076  0.1602
19844W        W33258   9.148   1.026   1.922  0.0980 -0.1362  0.0341
19845W        W33259  16.152   5.914   3.286 -0.1388 -0.2174  0.1975
19846W        W33260   8.358  15.713   4.882  0.0556  0.0525 -0.0004
19847W        W33261   9.797  14.070  15.880 -0.0465  0.2036 -0.1534
19848W        W33262  15.007  15.199  14.204  0.0664 -0.1091  0.2869
19849W        W33263  12.116   7.309   2.933  0.0691  0.0315 -0.1534
19850W        W33264   4.308   7.101   1.505  0.1660  0.0381 -0.0480
19851W        W33265   3.383   1.333   4.504  0.0230 -0.2513  0.0476
19852W        W33266  10.659   0.875  16.231  0.0473  0.2041  0.2022
19853W        W33267  17.993  13.006   3.882 -0.1388 -0.1194 -0.1466
19854W        W33268   7.588  14.328  11.650  0.3037 -0.0121 -0.2391
19855W        W33269  13.123  17.232  12.820  0.2385 -0.3083  0.1179
19856W        W33270  14.783  11.188   4.382 -0.4093  0.0053 -0.0630
19857W        W33271  15.574  11.866   5.798 -0.0149 -0.1179  0.0414
19858W        W33272   8.660   4.515   1.538 -0.3383  0.2233  0.0405
19859W        W33273   6.111   7.661   3.785 -0.0931 -0.0276  0.0669
19860W        W33274  13.631   1.340   1.654  0.3087 -0.2935 -0.1044
19861W        W33275  14.754   5.537  12.928 -0.1792 -0.2432  0.1922
19862W        W33276  11.278   0.881  11.296  0.2874  0.2943 -0.1816
19863W        W33277   0.588   7.220  10.893 -0.0245  0.2048 -0.0337
19864W        W33278  14.486   4.375  13.324 -0.2260 -0.0625  0.0307
19865W        W33279  15.626  13.795  15.663  0.4100  0.0375 -0.3980
19866W        W33280  15.112   6.514  12.445  0.0572 -0.1255 -0.1335
19867W        W33281   2.915   6.611   4.551 -0.1607 -0.0406  0.1004
19868W        W33282  18.403   2.470   5.735  0.1760 -0.0738  0.1949
19869W        W33283  10.423   1.360  13.309  0.0157 -0.1810  0.0308
19870W        W33284   3.496  15.734   5.720 -0.0732  0.1642 -0.0806
19871W        W33285  14.443  11.491  15.077 -0.0123 -0.4465  0.0972
19872W        W33286  12.280   2.041  13.241 -0.1411  0.1718 -0.1702
19873W        W33287  16.179   4.158   1.402  0.2625 -0.0479  0.0011
19874W        W33288  15.733  13.218  13.179 -0.0712 -0.0808 -0.2807
19875W        W33289  14.691  10.379   2.126  0.0246 -0.3429 -0.1661
19876W        W33290   1.306  10.237  13.001 -0.0162 -0.0070 -0.1569
19877W        W33291  13.139  18.071   4.593 -0.0881 -0.0562 -0.0637
19878W        W33292   0.093   8.760  10.930 -0.0331  0.1168 -0.3143
19879W        W33293   7.449  18.290  10.528 -0.1120  0.0587  0.2836
19880W        W33294  10.557  10.830   0.841  0.0154 -0.2811 -0.0974
19881W        W33295   9.145  15.989  14.939  0.0601  0.0646  0.1849
19882W        W33296   7.438  10.585  14.367 -0.0198  0.1675 -0.1405
19883W        W33297  17.076   1.709   6.583 -0.0161  0.3566 -0.3786
19884W        W33298   1.114   4.427   1.507  0.1225  0.0085 -0.0148
19885W        W33299   1.352   5.009  11.923  0.2871  0.2707  0.3488
19886W        W33300  10.762  17.525  13.513  0.0087  0.0958 -0.0183
19887W        W33301   8.263   6.972   4.967 -0.0602 -0.0456 -0.3159
19888W        W33302  13.496   3.619  11.316 -0.1383  0.1320  0.3238
19889W        W33303  15.369   0.997   2.967 -0.1854  0.2488  0.0876
19890W        W33304  13.183   1.136   3.450  0.1405  0.0371  0.3719
19891W        W33305  12.632   9.553   1.837  0.0286  0.1174 -0.1866
19892W        W33306  13.622  11.178   0.942 -0.1205  0.0381 -0.0656
19893W        W33307  16.857   7.308  12.266  0.0706  0.1232 -0.1724
19894W        W33308   2.803  15.056  11.339  0.0294  0.0003 -0.3957
19895W        W33309   0.542   9.431  14.718 -0.1172  0.0166  0.0794
19896W        W33310   4.331   2.277   0.831 -0.1193 -0.0647  0.0559
19897W        W33311  16.498  12.916  14.736 -0.0530  0.1456  0.0141
19898W        W33312  17.648   7.446  15.054  0.0912 -0.0436  0.0045
19899W        W33313  12.734  12.082  14.463 -0.2611  0.0223  0.0454
19900W        W33314  11.917  15.065   3.656 -0.0788 -0.3075  0.0811
19901W        W33315  13.052   9.502   5.322  0.0944  0.0161  0.4458
19902W        W33316   2.427   6.991   3.626  0.1664  0.1914  0.1626
19903W        W33317   7.817  11.311  11.685 -0.1313 -0.0324 -0.0619
19904W        W33318   6.080  17.024  10.762  0.0353 -0.2393 -0.0031
19905W        W33319   1.072   8.787  11.771  0.1286  0.0667 -0.0685
19906W        W33320   8.271   6.686  14.623 -0.1666  0.2590 -0.1498
19907W        W33321  17.622   3.764  11.067  0.0188 -0.2266 -0.2384
19908W        W33322   2.531   2.767  15.058 -0.2008  0.0075  0.1597
19909W        W33323   9.457   2.461   0.764  0.1216  0.0944  0.0260
19910W        W33324   0.044   5.242   0.367  0.2636 -0.0709 -0.1605
19911W        W33325   0.864  17.813  12.252 -0.0025  0.0829 -0.3386
19912W        W33326  18.373   6.731   6.296 -0.1301 -0.2277  0.0767
19913W        W33327  10.972   1.409  11.980 -0.1871  0.0872 -0.0148
19914W        W33328   6.939  16.381   5.300  0.0475  0.1934 -0.0216
19915W        W33329   2.319  13.819   0.953  0.0400  0.2978 -0.1905
19916W        W33330  18.393   7.758  14.965  0.0908  0.0874  0.2743
19917W        W33331  15.322   3.943  13.118  0.1343  0.2806 -0.0809
19918W        W33332  17.253   9.073  15.075  0.0988 -0.0080 -0.0142
19919W        W33333  14.770   2.427   4.995 -0.0298  0.1651  0.2598
19920W        W33334   8.677  15.385   1.796 -0.3410 -0.0882  0.0206
19921W        W33335  16.275  13.764   2.857  0.1864 -0.1493  0.0550
19922W        W33336  12.512  11.868   4.996 -0.0627  0.0579  0.0926
19923W        W33337  15.968   4.907  16.007  0.0903 -0.0844 -0.1571
19924W        W33338   5.505   4.219  16.183  0.0387  0.0355 -0.2008
19925W        W33339  11.842  12.937  15.053  0.2418  0.1152  0.0091
19926W        W33340   5.274   6.520  11.288 -0.3523 -0.0944 -0.1676
19927W        W33341   5.262   8.061  15.335 -0.2625  0.1676 -0.3194
19928W        W33342  12.365   0.524  11.391 -0.1151 -0.0333  0.1666
19929W        W33343   0.558   8.259   5.240  0.0512  0.0062 -0.0428
19930W        W33344   2.290  18.047  12.397 -0.2221  0.0138 -0.1460
19931W        W33345   9.398   6.852  14.519  0.1919  0.1769 -0.0705
19932W        W33346   3.759  13.696  13.641 -0.2899 -0.0259 -0.0916
19933W        W33347  14.777   1.621  12.880 -0.2124  0.1586 -0.1502
19934W        W33348  12.659  10.568   4.746 -0.0281  0.0592 -0.1188
19935W        W33349   1.124   1.804  12.497 -0.0704  0.1829  0.1798
19936W        W33350  10.048   2.693   5.859 -0.1140  0.0368  0.1439
19937W        W33351   1.110  15.742  14.049  0.0196  0.2926 -0.0407
19938W        W33352   7.868   7.918   5.213  0.0259 -0.0591 -0.3929
19939W        W33353   1.018   8.260   5.095 -0.3325 -0.0056  0.2266
19940W        W33354   3.462  13.801  12.247 -0.0414  0.1533  0.0564
19941W        W33355   9.787   8.165  12.038 -0.1463  0.4004  0.0454
19942W        W33356   6.802   7.301  12.478  0.2740 -0.2364  0.1971
19943W        W33357  17.345   2.381   2.444  0.5990  0.0289  0.4076
19944W        W33358   9.206   2.028   3.255 -0.1598 -0.3561  0.1435
19945W        W33359  14.146   8.705   0.829 -0.2995 -0.0253  0.3819
19946W        W33360  13.381  18.436   0.314 -0.1873 -0.1989 -0.0409
19947W        W33361   3.580   1.168  12.606 -0.2913 -0.0725  0.1992
19948W        W33362  18.202  15.755  15.179 -0.0898 -0.1546  0.1297
19949W        W33363  13.885   4.708  11.904 -0.3248  0.0835 -0.1323
19950W        W33364  11.596   6.006   0.592  0.0494  0.3750 -0.0785
19951W        W33365   9.086  16.561   0.134 -0.0557  0.0461 -0.2248
19952W        W33366   2.504  11.339  12.450  0.0270  0.1736 -0.2067
19953W        W33367   4.882   7.470  15.980  0.5530 -0.3541  0.0455
19954W        W33368   7.451   9.633   1.319  0.0214  0.0615 -0.1620
19955W        W33369  11.629  16.164  15.883  0.0747 -0.0995  0.4068
19956W        W33370   5.895   2.880   0.270 -0.3260  0.2169  0.3197
19957W        W33371   5.970   4.402  14.865 -0.2669 -0.0241  0.4401
19958W        W33372  13.567  17.137  12.573 -0.0770  0.1413  0.0549
19959W        W33373  11.365   7.626   3.939  0.1365  0.1962 -0.0076
19960W        W33374  11.761   9.503  10.568 -0.2172 -0.1235 -0.1015
19961W        W33375  15.047   7.520  15.606  0.2733 -0.0466  0.0274
19962W        W33376   4.193  10.829   0.132  0.3717 -0.0907  0.0687
19963W        W33377  18.344  13.597   0.198 -0.2081  0.2105 -0.0198
19964W        W33378   7.659  13.894   6.055  0.0855 -0.0112 -0.1291
19965W        W33379   1.307  14.869  13.493 -0.0171  0.2413 -0.2144
19966W        W33380  16.811  17.056   2.419  0.0810 -0.1754  0.2130
19967W        W33381  11.575  16.821  11.663 -0.0125  0.1012 -0.0111
19968W        W33382  16.834   0.232  12.808  0.1162  0.2589 -0.0896
19969W        W33383   6.971   4.644  12.406  0.0951 -0.5788 -0.2026
19970W        W33384   0.618  18.311  13.567 -0.1627  0.0416 -0.0567
19971W        W33385  16.936   6.992   1.336 -0.0776  0.3510 -0.1779
19972W        W33386  11.411  13.320   5.187  0.2159  0.0493 -0.0398
19973W        W33387   8.850   1.424   1.855 -0.0003 -0.0975 -0.0789
19974W        W33388  12.055   6.761  14.234  0.0691  0.1890  0.0673
19975W        W33389   9.287  11.083  13.531  0.0354 -0.1744 -0.0570
19976W        W33390  12.811  10.258   2.113 -0.2183  0.2594 -0.0944
19977W        W33391   3.017   0.385  12.991 -0.0947 -0.1817  0.2191
19978W        W33392   4.311   6.653   2.030  0.4926 -0.0072  0.1181
19979W        W33393   9.872  14.042   3.957  0.2528 -0.1183  0.0828
19980W        W33394   5.621  12.572   2.946 -0.1283  0.0107 -0.2429
19981W        W33395   9.565   7.288   4.161  0.1415  0.0923  0.2876
19982W        W33396   4.130  12.544   0.460  0.0361  0.0953  0.0919
19983W        W33397   0.698   0.452   0.259  0.1376  0.2219  0.1675
19984W        W33398  16.764  18.108   6.432 -0.1161 -0.2464 -0.0598
19985W        W33399   0.475  11.844   3.810 -0.3565 -0.3902  0.1089
19986W        W33400   1.804  17.934   1.889  0.2639 -0.0146  0.0273
19987W        W33401   1.132  17.638  15.824  0.0024 -0.2105 -0.1055
19988W        W33402   0.193  11.080  12.733  0.2744  0.1915  0.1934
19989W        W33403  18.355  17.237   0.091  0.2405 -0.3156 -0.2518
19990W        W33404  12.693  10.250   6.322  0.0630  0.2564  0.1833
19991W        W33405  10.474   5.066  14.044 -0.0344  0.2315 -0.0422
19992W        W33406  12.386   2.021   5.181  0.0825 -0.4594 -0.3071
19993W        W33407   2.934  15.746  12.302 -0.2681  0.2260 -0.2099
19994W        W33408  14.149   4.030  13.016  0.2597 -0.0587 -0.2349
19995W        W33409  12.716   1.660   3.914  0.0129 -0.3732  0.1039
19996W        W33410   9.919  17.098  10.803 -0.1232  0.3081  0.1053
19997W        W33411  11.407  12.058   3.923  0.1635  0.1633 -0.1859
19998W        W33412   6.128   4.206  14.388 -0.1028 -0.2276 -0.0791
19999W        W33413   6.359   0.758   1.202  0.2201 -0.3122 -0.3558
20000W        W33414  16.741   2.138  13.762  0.0531 -0.1319  0.0923
20001W        W33415  11.311   9.231  16.107  0.0167  0.0064 -0.1188
20002W        W33416  13.027  18.171   0.567  0.0287  0.1949 -0.2500
20003W        W33417  15.331  14.881   1.998  0.2103 -0.1599  0.0436
20004W        W33418  11.261  14.310   3.574  0.2141 -0.3530 -0.0002
20005W        W33419   1.275   3.356  14.512 -0.0227 -0.0004 -0.0537
20006W        W33420   6.285  10.486   4.710  0.1406 -0.0396  0.0380
20007W        W33421   8.191   4.979   3.641  0.1256 -0.1477  0.1125
20008W        W33422   4.563  12.083   3.462  0.0193  0.0319 -0.1056
20009W        W33423   1.156  13.190   4.423 -0.1583  0.1048 -0.3635
20010W        W33424   6.642   2.187  13.070  0.3442  0.2654  0.1205
20011W        W33425   9.144   0.584  13.653  0.1394  0.0803  0.1524
20012W        W33426  15.217   6.305  16.003 -0.1443 -0.0971 -0.2696
20013W        W33427   9.825   9.260  10.431  0.2754  0.2984 -0.2403
20014W        W33428   1.403   0.388   5.289 -0.2609 -0.1211  0.2548
20015W        W33429   9.626   3.920  13.919  0.2161 -0.1577  0.0205
20016W        W33430  13.652   1.136   3.470 -0.0552 -0.0859 -0.0007
20017W        W33431  13.027   8.155  11.832  0.0898  0.1943 -0.0819
20018W        W33432   2.357  17.297  10.929  0.0978 -0.2306 -0.0748
20019W        W33433   1.496   5.873   6.055 -0.0910  0.0086  0.1615
20020W        W33434   9.382  15.185  16.077 -0.2228 -0.0480  0.3042
20021W        W33435  13.943   4.409  13.359  0.2400  0.0811  0.1707
20022W        W33436  11.056  17.578   0.650  0.0144 -0.0833 -0.0781
20023W        W33437  11.037   0.019   2.918  0.0407  0.0765  0.1403
20024W        W33438   1.232   7.804  13.126 -0.0780 -0.1934  0.1477
20025W        W33439  15.078  17.475   3.524  0.0491 -0.0257  0.0109
20026W        W33440   4.117   1.613   3.142  0.0927  0.0977  0.0189
20027W        W33441  10.631   1.832  11.087  0.0522  0.0681  0.4237
20028W        W33442  10.151  10.450  14.415  0.1652 -0.1653 -0.1846
20029W        W33443   6.660  16.700  15.691 -0.2467 -0.2461  0.2681
20030W        W33444   2.157  16.151  10.584  0.0663  0.1581 -0.2618
20031W        W33445  18.364   8.374   1.817  0.1442  0.1048 -0.3701
20032W        W33446  17.270  11.417   4.610  0.0570 -0.4145  0.3320
20033W        W33447   1.779   3.948  11.778  0.1219  0.2097 -0.0730
20034W        W33448  12.964  15.017  12.951 -0.1818  0.2483 -0.1875
20035W        W33449  16.559   4.405  13.365 -0.2482 -0.0460 -0.0484
20036W        W33450  17.863   0.842  14.883  0.2292 -0.1795 -0.0993
20037W        W33451   9.957  16.681   3.970  0.0347  0.3171 -0.2502
20038W        W33452  16.724   2.532  10.655  0.4057  0.0676  0.1982
20039W        W33453  15.832  14.364  13.444 -0.1114  0.4429 -0.1761
20040W        W33454   9.404   5.040   3.223  0.0339  0.0621 -0.0094
20041W        W33455   0.943   4.322   5.446 -0.0933 -0.0965 -0.1346
20042W        W33456  12.055   6.412  13.875  0.2156 -0.3590  0.0114
20043W        W33457   0.885  16.680  13.889  0.2564 -0.2093  0.0636
20044W        W33458   0.198  10.166  13.293 -0.1278 -0.0493  0.1702
20045W        W33459  17.758  10.097   2.562  0.1233  0.1524 -0.2673
20046W        W33460   6.438   8.930  15.705 -0.0342 -0.1868 -0.1664
20047W        W33461   4.868   9.712   5.268  0.3675 -0.2665 -0.2259
20048W        W33462   8.153  14.073   6.052  0.0382 -0.2324 -0.1063
20049W        W33463  10.067   6.935  13.637  0.0263  0.3493  0.1535
20050W        W33464  10.136   1.630   2.405  0.0122  0.0225 -0.4111
20051W        W33465   4.534   3.373   1.621 -0.0558 -0.0301 -0.0235
20052W        W33466  17.839   3.033   1.840 -0.0668 -0.2085  0.2009
20053W        W33467   9.774   4.119   4.823  0.0562  0.1302  0.1847
20054W        W33468  12.622   8.051   1.162 -0.1595 -0.0110 -0.1947
20055W        W33469   1.267   5.992  11.086 -0.2200  0.2150  0.1195
20056W        W33470   8.108  12.011   3.200  0.0365  0.0739 -0.2621
20057W        W33471  12.843   6.375   1.491 -0.0182 -0.0378 -0.2887
20058W        W33472  13.534   4.998  14.932  0.0461  0.2029  0.0133
20059W        W33473  13.506   5.678   2.436 -0.3621  0.3194  0.0334
20060W        W33474   9.053  15.120   4.179 -0.1848 -0.0726  0.2054
20061W        W33475   6.794   2.724   3.423  0.0909 -0.1105  0.2535
20062W        W33476   2.062   0.520   6.365 -0.3856  0.1648  0.0458
20063W        W33477   4.103   4.269  13.307  0.0511 -0.1091  0.0071
20064W        W33478  10.507  15.187   4.336  0.0917 -0.0738 -0.0683
20065W        W33479   3.408   9.336  10.022  0.0445 -0.0277  0.0628
20066W        W33480  13.550  15.959  14.588 -0.0115 -0.0801  0.0585
20067W        W33481   0.762  16.880  14.296 -0.0411 -0.0802 -0.6195
20068W        W33482   6.642   6.633  14.435  0.0226  0.1703 -0.0215
20069W        W33483   0.738   8.676  15.353 -0.2035  0.0715  0.0502
20070W        W33484   7.359   7.104   5.034  0.1293  0.1655  0.0509
20071W        W33485   6.548   4.715  13.621  0.1448 -0.1403  0.2142
20072W        W33486  17.285  13.670   4.941  0.0386 -0.1849  0.2020
20073W        W33487  16.119   7.905  13.812 -0.1484  0.3087 -0.1139
20074W        W33488  15.450  10.450   4.536  0.2732  0.2017 -0.2863
20075W        W33489  15.422   5.870  14.271  0.0448  0.2200  0.1993
20076W        W33490   3.550  15.771  14.968  0.2962  0.0716  0.1476
20077W        W33491  15.304  12.973  10.764 -0.1576 -0.0343  0.0606
20078W        W33492   9.108  15.121  11.420  0.0602  0.0436  0.0823
20079W        W33493   5.162  17.294  11.843 -0.0720  0.1579 -0.0269
20080W        W33494  18.066   6.980  12.863 -0.3043 -0.1376  0.2559
20081W        W33495  18.396   8.436   5.790  0.2010  0.0038 -0.0898
20082W        W33496   9.442  13.470  14.512  0.1401  0.0989  0.2831
20083W        W33497   2.126  11.949  13.086  0.3403 -0.0854 -0.2542
20084W        W33498   3.270   9.127   1.580  0.0009 -0.2739 -0.2922
20085W        W33499   8.834   9.375  15.856  0.1574 -0.0981 -0.0548
20086W        W33500   1.279   4.007   2.536  0.3307 -0.4043  0.0102
20087W        W33501  16.350   0.858  11.644 -0.0526  0.3811  0.0214
20088W        W33502  11.797   9.749  12.251 -0.0417  0.1533  0.1463
20089W        W33503   8.106   1.744  15.832  0.0869  0.1201 -0.1276
20090W        W33504   6.021   4.818  13.543  0.0607  0.1363 -0.3299
20091W        W33505   5.337  13.905   3.321 -0.3949  0.0903  0.1261
20092W        W33506   6.320  16.248  16.232  0.0214 -0.1245 -0.2278
20093W        W33507   3.564  13.034  10.926 -0.1590  0.0209  0.0053
20094W        W33508   2.050   4.170  16.246 -0.0552 -0.0593  0.0064
20095W        W33509  16.714   7.742  13.908 -0.1829 -0.1158  0.0072
20096W        W33510   9.113  14.243  11.185  0.1488 -0.1499 -0.1883
20097W        W33511   2.155  12.435  15.966 -0.1636  0.1935 -0.0988
20098W        W33512   6.328  17.641   1.402 -0.0321  0.0109  0.1828
20099W        W33513   7.376   9.396  15.925 -0.0953  0.0399 -0.0219
20100W        W33514   8.113   7.089  10.880 -0.3472  0.1334  0.1958
20101W        W33515   3.953   7.546   0.753 -0.0551 -0.2647  0.1797
20102W        W33516  15.664  16.810  15.035 -0.4532 -0.1976  0.1864
20103W        W33517   8.903  17.175  16.238 -0.1468  0.1387  0.3048
20104W        W33518  14.287  13.787   2.492 -0.2272 -0.0420 -0.2555
20105W        W33519  14.257   9.468   3.020  0.1299  0.2891 -0.2022
20106W        W33520   8.729  15.971   5.464 -0.1675 -0.0210  0.1404
20107W        W33521   9.136   5.562  15.729  0.1999 -0.0536  0.2804
20108W        W33522   8.737  12.628   0.886  0.3146  0.0455  0.0585
20109W        W33523  15.959  11.045  16.217 -0.0669 -0.0766 -0.1517
20110W        W33524  12.566   3.255   2.394 -0.1319  0.1558 -0.5140
20111W        W33525  10.519   0.857  12.087 -0.0841  0.0347 -0.1430
20112W        W33526   5.639   0.048   3.188  0.0965  0.1795 -0.2258
20113W        W33527   3.356   4.891   5.188  0.0016  0.0496 -0.0598
20114W        W33528   1.596   2.608  12.543 -0.2955 -0.0295  0.2977
20115W        W33529   8.096  13.300   5.623  0.0958  0.0909  0.0819
20116W        W33530   8.893   4.094   5.800 -0.0969  0.0747  0.1152
20117W        W33531  11.263   1.402   2.857  0.1106  0.3063 -0.0306
20118W        W33532  15.255   9.677  13.390  0.0788  0.2397 -0.0209
20119W        W33533   9.794   5.156  10.511  0.0119 -0.1186  0.2707
20120W        W33534   0.541   8.763  13.379 -0.3277  0.0007  0.0348
20121W        W33535  17.472   2.893  15.732 -0.0286 -0.2836 -0.4041
20122W        W33536   2.686  12.514   4.192  0.0819  0.0546  0.0555
20123W        W33537   9.859   5.528  13.049  0.2161  0.0116  0.2410
20124W        W33538   6.604   2.381  16.236  0.0025  0.1367 -0.2665
20125W        W33539  14.319   9.703   0.823  0.3321 -0.0265  0.0414
20126W        W33540  10.142   4.515   5.906  0.1308  0.0685 -0.0857
20127W        W33541   1.617  15.304  12.561  0.1820 -0.1037  0.0255
20128W        W33542  16.118  15.532   4.256 -0.5601  0.0871  0.4001
20129W        W33543   5.408  16.333  12.391 -0.0472 -0.2737 -0.0230
20130W        W33544   3.340   0.021   1.182  0.2115  0.0155  0.1365
20131W        W33545   4.059   3.782  13.460 -0.1884  0.0275 -0.2470
20132W        W33546  16.921  14.964  13.428  0.2388 -0.1369 -0.1809
20133W        W33547   1.893   6.235   1.264  0.0379 -0.0599  0.1337
20134W        W33548   9.160  15.629  16.182 -0.0111 -0.0713 -0.1223
20135W        W33549  15.965   0.141   4.307 -0.2098  0.0517 -0.1444
20136W        W33550  14.518  13.023  11.777 -0.2868 -0.2303 -0.1819
20137W        W33551   8.075  14.013   4.371 -0.2149 -0.0486  0.0489
20138W        W33552   0.536   5.517   4.887 -0.0407  0.4161 -0.0304
20139W        W33553   3.186  11.653   2.894 -0.1439  0.1832  0.0084
20140W        W33554  11.916   0.576   2.605  0.1782 -0.0118 -0.0920
20141W        W33555   1.239  11.393   2.262  0.0595 -0.0000 -0.3233
20142W        W33556  12.313  15.100  14.050  0.1176  0.1116  0.3573
20143W        W33557  16.164   0.520  13.623 -0.1174  0.1611  0.1769
20144W        W33558   3.045  12.643  13.111  0.1692 -0.0807 -0.0067
20145W        W33559   9.381  13.341  12.595  0.1285  0.2156 -0.1529
20146W        W33560   5.472   8.342  15.803  0.1069  0.3782 -0.0576
20147W        W33561   4.781   5.162   2.850 -0.0473  0.1005 -0.3115
20148W        W33562  14.288   1.506  12.740  0.0060  0.1146 -0.0119
20149W        W33563   9.357   0.986  14.004 -0.2145 -0.3627  0.0907
20150W        W33564   8.904   2.094  16.144 -0.1944 -0.0566 -0.1030
20151W        W33565  17.180   0.142  13.996  0.1794 -0.5402  0.2332
20152W        W33566  16.795   0.681  14.702 -0.0816  0.0663  0.2821
20153W        W33567   9.714  16.349  13.209  0.2512 -0.1268 -0.0982
20154W        W33568  18.312   2.988  15.299  0.0704 -0.0354 -0.3991
20155W        W33569  15.565  12.359  16.144  0.3522 -0.2195 -0.1357
20156W        W33570   5.951   5.044  10.860  0.0520  0.1130 -0.0727
20157W        W33571  11.154  12.845   4.390  0.0492 -0.3493 -0.2773
20158W        W33572  15.509  14.885  10.741 -0.0775 -0.0253  0.1209
20159W        W33573  13.213   1.499   1.838  0.0021  0.1072 -0.0595
20160W        W33574   5.299   6.105  12.563  0.0294  0.2874 -0.2071
20161W        W33575   1.887   7.858   2.102  0.0724 -0.0531 -0.3711
20162W        W33576   2.248   6.615  14.853  0.1780 -0.1365 -0.1446
20163W        W33577  12.859  16.383   4.093  0.0716  0.1794  0.2092
20164W        W33578   5.565   3.916  10.469  0.1608 -0.0277 -0.1438
20165W        W33579   9.847  13.717   3.561 -0.0992 -0.0365 -0.1088
20166W        W33580   8.697   5.575  12.399  0.1559 -0.0259  0.0521
20167W        W33581  10.903   5.743  11.550 -0.0662  0.1917 -0.2381
20168W        W33582   0.041   5.676   2.664 -0.0841  0.1638 -0.4202
20169W        W33583  10.532   7.728  11.347  0.1424 -0.1891  0.2149
20170W        W33584   4.158  13.051  14.700  0.5190  0.1992 -0.2320
20171W        W33585   2.264  16.953  11.742 -0.1553 -0.0412  0.0343
20172W        W33586   3.368   2.134  11.631  0.1419 -0.0437  0.2240
20173W        W33587   1.611  10.023   1.231 -0.4261 -0.0667 -0.0641
20174W        W33588   1.235  17.871   6.202 -0.0906 -0.1645  0.3851
20175W        W33589   2.304   6.056  14.964  0.2227 -0.1153 -0.2662
20176W        W33590  11.601   4.884   3.002  0.2734  0.4174 -0.0089
20177W        W33591   3.919   1.133   1.651  0.3536  0.2564 -0.0042
20178W        W33592  10.881  18.369   3.415 -0.0812 -0.1302  0.4099
20179W        W33593   7.236   3.223   0.308  0.0092  0.0647 -0.0110
20180W        W33594   6.788   9.249  11.736 -0.3205  0.0661 -0.1211
20181W        W33595   6.640   7.481  15.620 -0.0621 -0.3052 -0.1523
20182W        W33596  12.252   6.363  12.820  0.2937 -0.2354  0.2329
20183W        W33597  17.701  11.730   0.907 -0.0327 -0.0002  0.1810
20184W        W33598   2.165   6.409   6.382 -0.1224 -0.3990  0.1343
20185W        W33599  12.726   5.578   5.997  0.0568 -0.0557 -0.3353
20186W        W33600   7.069  18.142  14.361  0.1335 -0.1775 -0.3016
20187W        W33601   1.683   1.365   4.117 -0.1576 -0.0929 -0.1355
20188W        W33602   7.072   6.262  12.387 -0.1797  0.0361 -0.3613
20189W        W33603   1.817   8.025  13.219 -0.1650  0.0618 -0.0812
20190W        W33604   5.011  14.777  12.218  0.1681  0.2505  0.2993
20191W        W33605   1.361  15.831   2.486 -0.0763 -0.0914 -0.0111
20192W        W33606   6.567  17.325   5.988 -0.0416 -0.0208 -0.2059
20193W        W33607   9.529  16.957   2.040  0.2051 -0.1463  0.0608
20194W        W33608  18.309  10.415   3.491  0.1735 -0.3174 -0.3972
20195W        W33609  14.010   8.612  13.283 -0.0505 -0.0590  0.0642
20196W        W33610   5.078   8.183   3.279 -0.1856 -0.3024 -0.1149
20197W        W33611  13.845  16.134   3.287  0.0807  0.1462  0.0751
20198W        W33612   8.694   2.025   3.635 -0.1749  0.2130  0.1618
20199W        W33613   8.388  16.733   3.498 -0.1718  0.0384  0.0242
20200W        W33614   8.932   1.077   0.553  0.2020  0.2954  0.0239
20201W        W33615  17.585   0.409  11.315 -0.0462  0.3234  0.3043
20202W        W33616  16.422  12.754  11.230  0.2880  0.0226 -0.2997
20203W        W33617   9.842   6.070  15.581  0.1317  0.0928  0.1938
20204W        W33618  12.310   6.213  10.771 -0.0306  0.1262 -0.1319
20205W        W33619   8.052   3.569  10.124  0.2262 -0.0436  0.1943
20206W        W33620   7.412   8.969   1.111 -0.1828  0.0743  0.2373
20207W        W33621  13.553  11.767  10.694 -0.4837 -0.1559  0.2147
20208W        W33622   7.254  17.342  11.638  0.3395  0.0577  0.1809
20209W        W33623   6.760   9.324  10.780  0.0573 -0.0028 -0.1473
20210W        W33624  16.981   6.082   2.815  0.1073  0.0034  0.2554
20211W        W33625   2.566   5.813   0.305 -0.1124 -0.3075 -0.0237
20212W        W33626   3.979   3.327  15.147  0.0226  0.2238  0.0630
20213W        W33627   4.627   3.735   0.559  0.2633  0.1987 -0.2224
20214W        W33628  17.158   1.894  15.803  0.1310  0.0851 -0.2367
20215W        W33629  12.679   2.014   3.506  0.0965 -0.0953  0.0058
20216W        W33630   1.239   6.164   3.946  0.0779  0.0909 -0.0868
20217W        W33631  13.330   4.139   6.209 -0.0941 -0.1420 -0.1853
20218W        W33632  16.669   2.212   1.342 -0.2334 -0.2429 -0.3172
20219W        W33633  15.682   1.700   4.253 -0.0716 -0.0371 -0.1570
20220W        W33634  13.909   0.601   4.768 -0.1172 -0.2485 -0.0368
20221W        W33635   2.118   0.572  12.286  0.1001 -0.1993 -0.2179
20222W        W33636   3.857   1.383   3.557 -0.4162 -0.0379  0.1654
20223W        W33637   3.024   2.307  14.421 -0.0616  0.0563 -0.1517
20224W        W33638  13.009  11.867  13.067  0.0312  0.2314  0.0358
20225W        W33639   6.884   1.721   1.823 -0.1832  0.4367  0.0222
20226W        W33640   8.634   1.019   1.321  0.4501 -0.2669 -0.1492
20227W        W33641   9.530   1.788   3.515 -0.0540  0.3149  0.2353
20228W        W33642   3.938  17.182  14.637 -0.1273 -0.3410  0.0904
20229W        W33643   9.063   0.639   5.218 -0.0062  0.1728  0.0095
20230W        W33644  14.907  12.954  13.149 -0.1041 -0.1247 -0.1933
20231W        W33645   2.077   8.365  15.338 -0.0310 -0.2078 -0.0675
20232W        W33646   4.340  17.423  11.107 -0.1357  0.1410  0.3025
20233W        W33647   1.194  15.112   3.261  0.0822  0.0606 -0.0894
20234W        W33648   5.830   4.545  11.695 -0.0671 -0.1043  0.3049
20235W        W33649   9.057   5.305  14.128  0.3173 -0.0307  0.1209
20236W        W33650  15.290  13.353   0.675  0.0440 -0.0346 -0.1359
20237W        W33651  16.423   6.253   6.040  0.0656 -0.0574  0.0052
20238W        W33652  17.022  17.040  10.884  0.2308 -0.0728  0.0074
20239W        W33653  12.233  15.258   2.391  0.1570  0.0758  0.0132
20240W        W33654   0.246   4.668   0.515 -0.3184 -0.1366  0.0768
20241W        W33655  16.990  11.634   5.389  0.3747  0.4142  0.0073
20242W        W33656   5.210  12.172  13.623 -0.1389  0.0411 -0.0861
20243W        W33657  15.161   3.047  12.630  0.1040 -0.0898  0.0446
20244W        W33658   7.387   1.454  14.328 -0.1027  0.0147 -0.1065
20245W        W33659   6.359  16.066   3.322  0.2211 -0.1171  0.2038
20246W        W33660  15.513  11.124   5.087 -0.3876 -0.2396 -0.1402
20247W        W33661  11.646  14.053  15.091  0.2973  0.2858  0.1155
20248W        W33662   0.381  14.777   0.260  0.0609  0.0782  0.3182
20249W        W33663   9.010   8.393   4.834 -0.1332  0.2706  0.0087
20250W        W33664  18.247  12.201  14.036 -0.5572 -0.1793  0.0436
20251W        W33665   2.821  10.712  12.771  0.1502  0.2136 -0.2273
20252W        W33666   8.706  16.639  13.673 -0.0269  0.2790  0.0446
20253W        W33667   4.225  17.705  11.487  0.0382 -0.0801  0.1322
20254W        W33668  14.492  13.969   0.880 -0.1649 -0.0739 -0.1735
20255W        W33669   1.173  14.688   4.552 -0.0816  0.2111  0.1193
20256W        W33670  17.983  13.166  14.408 -0.3202 -0.1246  0.1871
20257W        W33671  15.794   3.005   5.292  0.3059  0.4059  0.0137
20258W        W33672   7.338  14.105   1.886 -0.0840 -0.0970 -0.1586
20259W        W33673  17.222  18.439  14.880  0.0203  0.0177  0.1592
20260W        W33674   6.660   3.347   1.557 -0.0450  0.2150  0.0809
20261W        W33675   2.846   1.071   2.630 -0.0969  0.4313  0.0266
20262W        W33676  15.265   8.951   2.350 -0.0914  0.1541 -0.2751
20263W        W33677  18.202   8.906   1.969  0.0983  0.0403 -0.3081
20264W        W33678   6.469   7.424  13.384  0.1288 -0.1924  0.1285
20265W        W33679  18.294  17.284  11.956 -0.1484  0.0928  0.0621
20266W        W33680   5.929  15.619  11.439 -0.0182 -0.2127  0.0518
20267W        W33681  17.898  14.997  13.342 -0.0088 -0.3919 -0.0703
20268W        W33682   6.168   9.695  15.168  0.0872  0.1998  0.0264
20269W        W33683  18.006  14.665  15.775  0.1464 -0.0122 -0.2534
20270W        W33684  12.531  16.603   2.003  0.0971  0.1615  0.3673
20271W        W33685   2.217   0.686   5.768  0.0341 -0.1573 -0.1418
20272W        W33686  17.113  16.878   1.330 -0.5927  0.1436 -0.2669
20273W        W33687   4.568  13.728  12.737 -0.0292 -0.0081  0.1585
20274W        W33688   9.147  12.474  11.526  0.1058  0.0947  0.1538
20275W        W33689   6.299   9.229   4.217 -0.1869 -0.0463 -0.2592
20276W        W33690  12.170   3.087   2.707  0.1430  0.0034 -0.1614
20277W        W33691   7.714  15.870  11.909  0.0559 -0.2139 -0.0130
20278W        W33692  17.217   8.789  10.787 -0.1524 -0.0882 -0.1349
20279W        W33693  15.126  13.023   2.236  0.2981 -0.2618 -0.0838
20280W        W33694   2.819  16.591   3.738  0.0319 -0.1506  0.1007
20281W        W33695  13.278   2.735   0.257  0.2206  0.2454 -0.3284
20282W        W33696   4.978  17.033   3.004  0.0105 -0.1989 -0.2055
20283W        W33697   7.466   9.561   4.599  0.1280 -0.0160 -0.0214
20284W        W33698   5.220   9.928  13.074  0.0295  0.1808 -0.2192
20285W        W33699   6.336   6.467   4.072  0.2104 -0.0129  0.4136
20286W        W33700  12.533   1.723  15.909  0.1258  0.1382  0.5470
20287W        W33701  18.099   8.180   5.120 -0.0891 -0.1304  0.1197
20288W        W33702   1.370   6.752  11.532  0.0571  0.0176 -0.1392
20289W        W33703  16.244   6.466  10.567  0.0347 -0.0753  0.0917
20290W        W33704  10.798   5.229   3.161 -0.0861 -0.1082  0.0257
20291W        W33705   6.927  16.641   1.750  0.0742  0.0282  0.1065
20292W        W33706   7.563  12.708  15.699  0.0523 -0.2062 -0.2196
20293W        W33707   4.571   7.184   2.795 -0.0529  0.0289  0.1873
20294W        W33708  17.565   0.928   3.451  0.0976 -0.1398  0.1759
20295W        W33709   2.616  16.098   3.814  0.1338 -0.2113 -0.2055
20296W        W33710   8.787   2.014   2.011 -0.0281  0.1464  0.0160
20297W        W33711  18.101  16.941  13.309 -0.0352  0.1164 -0.1876
20298W        W33712  17.985  15.634  11.420  0.1983  0.2602  0.3091
20299W        W33713  17.792   9.595  12.116 -0.0284 -0.1231 -0.0176
20300W        W33714  17.592   3.491  14.874  0.0072 -0.3406 -0.0744
20301W        W33715  17.110   8.111  15.074  0.0466  0.2654 -0.1082
20302W        W33716  10.716  17.621  12.580 -0.1349  0.1967 -0.0435
20303W        W33717  11.401   8.679   2.140 -0.0966 -0.0311  0.0331
20304W        W33718   7.122  14.283  14.719  0.1122  0.3504  0.1546
20305W        W33719  17.157   5.604   2.908  0.0799  0.0944  0.0838
20306W        W33720   7.414   7.266  15.400  0.1353 -0.2450  0.0949
20307W        W33721   8.854   3.490  16.040  0.1217  0.0585  0.1471
20308W        W33722   5.936   8.230  12.020 -0.2004  0.0194  0.2581
20309W        W33723   4.654   7.027   2.316  0.0641 -0.1332  0.1563
20310W        W33724  17.589  15.494   5.847  0.0457  0.4509  0.0276
20311W        W33725   8.039  15.351  13.632 -0.0179 -0.0537 -0.4364
20312W        W33726   7.920  11.191  13.775 -0.4239  0.0465  0.5992
20313W        W33727   8.779   6.147  14.145  0.1391  0.2181 -0.0196
20314W        W33728   5.559   1.383  14.906 -0.1784  0.0754 -0.0253
20315W        W33729   6.145  16.073   0.551  0.0269 -0.1358 -0.0261
20316W        W33730   4.749  14.603  10.593  0.0176  0.0926 -0.1140
20317W        W33731  14.913  17.238   1.002  0.3029 -0.2328 -0.3021
20318W        W33732  18.436   4.349   2.632 -0.2329  0.0738 -0.0218
20319W        W33733  10.393   5.706   2.058  0.1026 -0.2830  0.1399
20320W        W33734  16.110  12.383  11.023  0.1805 -0.2179 -0.1758
20321W        W33735  10.759   2.103  13.470  0.2000 -0.2056  0.3051
20322W        W33736  12.345  13.042  12.805 -0.0254  0.1698  0.1266
20323W        W33737   5.007  13.315   3.190  0.0533 -0.0714 -0.1963
20324W        W33738  15.340   8.689  15.703  0.1331 -0.0726 -0.2049
20325W        W33739   1.578   1.679   4.586  0.0150 -0.0391 -0.3537
20326W        W33740  18.214  13.798  15.518 -0.1083 -0.1792 -0.3043
20327W        W33741  17.223  12.429   1.514 -0.2821  0.0633  0.2895
20328W        W33742  17.734  12.872   2.670  0.0475 -0.0086 -0.0059
20329W        W33743   7.308  11.927   5.515 -0.2343 -0.1302  0.0628
20330W        W33744  12.863   5.521   1.237 -0.0807 -0.0662 -0.0280
20331W        W33745  11.538   7.059   2.773  0.1218  0.1549  0.0231
20332W        W33746   0.261   1.416  11.357  0.1973  0.3583  0.1156
20333W        W33747  11.971  10.756   2.167 -0.2065  0.1271  0.1797
20334W        W33748   6.308  17.123  15.683 -0.0427 -0.0661 -0.0726
20335W        W33749   1.770  14.919   3.364  0.1875 -0.2987 -0.1965
20336W        W33750  11.824   6.992  12.777 -0.0577 -0.2343  0.0938
20337W        W33751   1.033   9.130   4.288  0.1549  0.2046 -0.0833
20338W        W33752   6.580   3.831  12.695  0.1582  0.1743  0.0859
20339W        W33753   5.434   5.621   4.678  0.0464  0.0017 -0.2785
20340W        W33754   3.757  15.760   3.636  0.0843 -0.1679  0.1400
20341W        W33755  13.611  13.205   6.195 -0.0612 -0.0627 -0.1536
20342W        W33756   3.187  15.774  11.837  0.1714 -0.1465  0.0859
20343W        W33757   2.163  10.095  12.937  0.0887  0.3036 -0.4487
20344W        W33758   1.553   6.022  10.520  0.1979  0.2763 -0.1321
20345W        W33759  16.365   2.324   2.562 -0.2198  0.0244  0.3392
20346W        W33760  14.840   9.131   4.199  0.1149  0.1050  0.0989
20347W        W33761   3.175   7.620   1.806 -0.3594  0.1591  0.2138
20348W        W33762  14.567  13.617  13.912  0.0357 -0.0880 -0.0841
20349W        W33763   7.718  15.496  14.683 -0.1352  0.1495  0.0068
20350W        W33764  10.395  11.813   4.931  0.2144  0.0078  0.0677
20351W        W33765   2.260   1.005  12.913 -0.1988 -0.3031  0.0328
20352W        W33766   4.452  10.120  14.343 -0.0717 -0.3248  0.0598
20353W        W33767   2.142  15.404   1.121  0.0635 -0.0844 -0.0108
20354W        W33768  10.126   8.731   5.148  0.0391  0.1374 -0.0879
20355W        W33769  10.377  14.823   4.691  0.0520  0.1484  0.3447
20356W        W33770  11.785   5.132   3.706 -0.1661 -0.1013  0.1433
20357W        W33771   0.385   4.775   2.846 -0.2559 -0.0389  0.0082
20358W        W33772  12.275  14.311   0.841 -0.0902  0.0833 -0.0959
20359W        W33773   2.229   8.474   5.094  0.0620 -0.0470 -0.0003
20360W        W33774  16.317   0.684   4.569  0.1865  0.0792  0.0019
20361W        W33775  10.560   7.929  12.337  0.0378 -0.0499  0.1223
20362W        W33776   3.532   4.463  15.596 -0.1626  0.2107 -0.0203
20363W        W33777   5.642   5.222  12.514  0.1781 -0.0435 -0.1465
20364W        W33778  17.913   6.526  11.691 -0.0600 -0.0407  0.0849
20365W        W33779  12.380  13.525  10.421 -0.2390 -0.1153  0.1458
20366W        W33780  10.742   2.007   4.848  0.5905  0.0053 -0.1324
20367W        W33781  14.606   1.628   4.331 -0.0202  0.2051  0.0237
20368W        W33782   5.041   2.286  10.823 -0.0985  0.0785 -0.2740
20369W        W33783   2.668  17.668  14.491 -0.0255  0.1152 -0.1302
20370W        W33784  11.777   5.145  10.902 -0.2170 -0.0179  0.0515
20371W        W33785  12.881  11.736  13.524 -0.0902  0.3342  0.2503
20372W        W33786   8.452   8.366  14.858  0.1778  0.0087 -0.2009
20373W        W33787   9.168   5.486  14.703 -0.0114  0.0176 -0.0449
20374W        W33788   5.622  11.197  12.781  0.2161 -0.2055  0.2598
20375W        W33789   1.874   4.312   3.929  0.0678 -0.0267  0.1548
20376W        W33790  17.018   8.377  12.258 -0.0423  0.0073  0.2735
20377W        W33791  17.104   3.567   0.618  0.0419  0.0071 -0.1128
20378W        W33792   8.215   5.202  10.518  0.1782 -0.0155  0.1470
20379W        W33793   9.287   0.692  14.496 -0.1315 -0.1677  0.1736
20380W        W33794   7.864   2.340  12.220 -0.0018 -0.1719  0.0800
20381W        W33795   0.929  13.253  15.689 -0.1184 -0.3569 -0.3485
20382W        W33796   5.859  14.740   3.919 -0.1527 -0.1807 -0.1685
20383W        W33797  14.181   0.474  15.659 -0.3059 -0.1386 -0.1419
20384W        W33798  15.569  10.821   0.183 -0.1250 -0.1064  0.2999
20385W        W33799  12.361   3.842   3.688 -0.0248 -0.0594  0.1929
20386W        W33800   9.416   7.185   3.037 -0.1604 -0.0643 -0.3026
20387W        W33801  13.077   3.986   1.679 -0.0412  0.1322  0.0939
20388W        W33802   7.090   5.109   2.652 -0.1388 -0.1810 -0.2745
20389W        W33803   3.182  11.995   1.238 -0.1691  0.0856  0.0580
20390W        W33804  12.312   8.912  10.895  0.0139 -0.3635 -0.0441
20391W        W33805   5.392  12.658   1.885 -0.1079  0.1241  0.1590
20392W        W33806   9.845  16.089   0.794  0.0682 -0.1204 -0.2446
20393W        W33807   0.329  14.083  12.502  0.4707  0.0251  0.0180
20394W        W33808  17.688   8.334  16.050 -0.1512 -0.2218 -0.1175
20395W        W33809   1.212   8.949   5.253  0.0836  0.0940  0.0011
20396W        W33810   9.419   0.778   0.072  0.1001 -0.4415  0.0992
20397W        W33811   1.886   2.090  11.740  0.2605 -0.2012 -0.0461
20398W        W33812   6.595   3.667   1.021 -0.1284  0.0271  0.0011
20399W        W33813  11.294   2.683   2.426  0.0219 -0.0451  0.0202
20400W        W33814  10.635   0.412  16.138  0.0566 -0.1122 -0.1421
20401W        W33815   5.726  14.595  13.618 -0.0763  0.0055  0.0131
20402W        W33816   4.877  10.056  10.406  0.5055  0.3045 -0.1041
20403W        W33817  16.222   0.259   0.868  0.0115  0.0621 -0.0374
20404W        W33818  14.686   8.458  14.068  0.3327  0.2970  0.4350
20405W        W33819  15.334  12.335  14.548 -0.2219 -0.0469 -0.0390
20406W        W33820   5.002  11.540   1.169  0.1381  0.0689 -0.1061
20407W        W33821   0.809  17.255   0.378 -0.1737 -0.0615  0.1841
20408W        W33822   3.886   7.678  14.770  0.2273 -0.4407  0.0018
20409W        W33823   1.975  14.101  12.597 -0.0761  0.1102  0.1406
20410W        W33824  10.531  13.818   0.845  0.0583 -0.0256 -0.1321
20411W        W33825   5.547  12.450  15.574 -0.1830  0.2043  0.2477
20412W        W33826  11.940  17.368   0.976  0.1796  0.0428  0.0063
20413W        W33827  12.200  13.267  15.130  0.1516  0.2673 -0.0004
20414W        W33828  14.689  14.230  11.653  0.0170 -0.3299 -0.2837
20415W        W33829  13.038   4.944   3.179  0.0076  0.0897  0.1198
20416W        W33830   7.701   0.294  11.348  0.3870 -0.3529 -0.0563
20417W        W33831  13.296  13.643   3.916  0.3095  0.1890 -0.1406
20418W        W33832   2.048   5.096  13.779 -0.3218  0.1040 -0.0501
20419W        W33833  11.637  15.659  10.314  0.3868  0.1518 -0.3847
20420W        W33834   0.856   7.827   5.146 -0.1665 -0.3234  0.1157
20421W        W33835   8.572  11.213  12.160 -0.0692  0.1754  0.1146
20422W        W33836   9.389   3.350  10.421 -0.1979 -0.2656 -0.0785
20423W        W33837   6.088   5.051   4.347 -0.0371 -0.2793 -0.1872
20424W        W33838   5.561   8.692  12.801 -0.0315  0.5843 -0.0873
20425W        W33839  11.703  12.538  12.256  0.1889  0.1530  0.1116
20426W        W33840   8.309   9.767   5.782  0.0653  0.1845  0.2121
20427W        W33841  10.336   3.211   2.991 -0.3516 -0.1497 -0.0361
20428W        W33842  16.119  17.037   4.363 -0.1513  0.3337 -0.0614
20429W        W33843  13.886   1.804  14.666 -0.2388 -0.1546  0.1111
20430W        W33844   3.551  17.371  15.342 -0.0734 -0.2499  0.1473
20431W        W33845   6.393   1.103  16.007 -0.1330  0.0497 -0.2950
20432W        W33846  18.414  13.307  13.107  0.1940  0.0329 -0.0835
20433W        W33847  11.396   3.395   1.047 -0.3393  0.1648  0.1740
20434W        W33848  11.358  15.135   4.558 -0.0990  0.0437 -0.0743
20435W        W33849   0.553  17.657  14.510 -0.0656 -0.1393 -0.1574
20436W        W33850  17.639   8.950   3.543  0.0596  0.1446 -0.1754
20437W        W33851  17.254   7.885   5.156 -0.5152 -0.0859 -0.0456
20438W        W33852  14.280   1.116   3.479 -0.5318  0.0373 -0.0277
20439W        W33853   9.722   4.811   3.542  0.0069 -0.0919  0.0023
20440W        W33854   0.441  10.792   5.179  0.2578  0.2943 -0.0630
20441W        W33855  13.658  13.642  15.060 -0.1272 -0.3421 -0.0899
20442W        W33856   5.726   1.599  14.485  0.0762  0.1749  0.0621
20443W        W33857  16.210  16.368   0.105 -0.1875  0.2233 -0.1727
20444W        W33858  13.680  14.618   4.492  0.3016  0.0822 -0.1979
20445W        W33859   9.142   9.472   0.562  0.1451 -0.2484 -0.0778
20446W        W33860   8.458   7.092   1.340 -0.1264  0.2688 -0.0138
20447W        W33861   4.411  10.133   4.095  0.2197  0.0059 -0.2999
20448W        W33862   6.500   9.679   2.928 -0.1167  0.0221 -0.1582
20449W        W33863   5.795   5.933  11.269 -0.0490 -0.2558 -0.1673
20450W        W33864  12.358   6.184   5.262 -0.0835  0.0090 -0.0881
20451W        W33865  12.674  13.276   1.968  0.2948 -0.0918 -0.1776
20452W        W33866  16.078   9.131  15.125 -0.0129 -0.1371 -0.3182
20453W        W33867  18.008   4.489   1.246 -0.0522 -0.1591  0.0108
20454W        W33868   9.428  16.424  16.007 -0.4544 -0.0568 -0.0335
20455W        W33869   7.821   9.232  12.626 -0.1247 -0.1233  0.0670
20456W        W33870   7.549   7.969   2.819  0.0086 -0.1733 -0.1794
20457W        W33871   4.941  13.113   5.677 -0.1291  0.0859  0.2912
20458W        W33872   5.630   5.361   1.465  0.0477 -0.1841  0.1657
20459W        W33873  16.908   8.811  14.046  0.2644  0.0085  0.1781
20460W        W33874  14.671   7.164   2.439 -0.5313  0.1852 -0.0030
20461W        W33875  15.640   1.184  15.602 -0.1948 -0.2198 -0.2470
20462W        W33876   3.043   9.404  13.112  0.1404  0.0429  0.1451
20463W        W33877  16.189   0.621   2.236 -0.1430  0.1236 -0.3355
20464W        W33878   3.964   6.235  10.626  0.0277 -0.2160  0.2599
20465W        W33879  12.248  12.181  15.323  0.1654  0.0455  0.1389
20466W        W33880   6.297  10.609   2.210  0.1839  0.0115  0.0717
20467W        W33881  14.952   6.114  10.882 -0.1148  0.2339 -0.1524
20468W        W33882   9.843   4.947  10.960 -0.2948 -0.0728  0.2306
20469W        W33883   6.345  13.524   5.968 -0.0720 -0.0996  0.1951
20470W        W33884  14.619   7.956   0.392 -0.1668  0.0576  0.0321
20471W        W33885  12.859  12.110  11.851  0.4018 -0.3715 -0.0926
20472W        W33886  12.274  17.738  10.360 -0.0673 -0.0570 -0.3465
20473W        W33887  10.446   4.309  15.533  0.0987  0.1103 -0.1253
20474W        W33888   3.851  17.702   0.992 -0.0681  0.1400 -0.0523
20475W        W33889   8.775   9.160  14.940 -0.1036 -0.0180  0.0402
20476W        W33890   6.387   3.783   2.968 -0.2145  0.1741 -0.0082
20477W        W33891   4.565   5.146   0.148 -0.0813  0.1171  0.1351
20478W        W33892   6.573   4.726   1.881  0.2819 -0.1976  0.0747
20479W        W33893  11.957   0.370  10.074 -0.2233  0.1993  0.1614
20480W        W33894   0.355   2.848  15.104  0.2057 -0.1558 -0.1611
20481W        W33895   0.159   8.717   4.966 -0.1832 -0.2008  0.3886
20482W        W33896   7.525  18.243  14.634  0.0249 -0.0934  0.0504
20483W        W33897   4.249  14.679  14.703  0.0372  0.0013 -0.0283
20484W        W33898   5.176   4.453   0.648  0.1390  0.0131  0.0076
20485W        W33899   1.408  14.828   0.999 -0.0965 -0.1092  0.0838
20486W        W33900   9.613   3.793  15.169 -0.0251  0.0403  0.0643
20487W        W33901   2.531   5.377   4.973  0.2232  0.0005 -0.0622
20488W        W33902   3.333   4.040   2.758  0.1971  0.0126  0.0814
20489W        W33903   9.663   1.115  15.176  0.1628 -0.3087 -0.1560
20490W        W33904   2.615   1.961  11.054  0.0692  0.1904  0.1433
20491W        W33905  16.030   0.753   4.988  0.1319  0.1198 -0.1996
20492W        W33906   2.177   8.508  14.413  0.0224 -0.0797 -0.3089
20493W        W33907   2.426  17.624  15.605  0.0986  0.2437  0.1645
20494W        W33908   7.743   5.982   5.241 -0.1133  0.0489 -0.1646
20495W        W33909   1.467  14.238   2.811 -0.1434  0.0297  0.2721
20496W        W33910   1.145   2.704   4.604 -0.0631  0.1426  0.0709
20497W        W33911   6.697  13.727   3.009 -0.2287 -0.0241  0.0084
20498W        W33912   2.944   4.618  11.302  0.1353  0.0759  0.2690
20499W        W33913  11.097   3.023   2.800 -0.0686 -0.1710  0.0738
20500W        W33914   7.610   6.395   2.400  0.0245  0.1165  0.0223
20501W        W33915   7.420   1.328  11.894 -0.4131  0.0607  0.0624
20502W        W33916  14.183   7.688   5.405  0.1574 -0.1967  0.0686
20503W        W33917   1.448  15.597  12.996 -0.0482 -0.0092  0.1715
20504W        W33918   7.173  13.546  11.958 -0.2357  0.0626 -0.1465
20505W        W33919   4.138  10.347  12.233  0.3625 -0.0844 -0.3513
20506W        W33920   7.236  13.807   2.337 -0.1343  0.3992 -0.2568
20507W        W33921   6.332  16.568   1.673  0.1244 -0.1729  0.2061
20508W        W33922  10.458   3.588   2.354 -0.1669 -0.0026  0.1866
20509W        W33923  16.221   3.386   2.287 -0.2395  0.2761 -0.1178
20510W        W33924  17.922  15.623   0.788  0.4111 -0.0307 -0.1134
20511W        W33925   1.188  13.609  14.958  0.1286  0.2589 -0.1970
20512W        W33926  18.103   6.111  11.453 -0.1378 -0.1635 -0.0572
20513W        W33927  17.752  10.610   1.050  0.2313 -0.0468 -0.2436
20514W        W33928   6.251   0.774   1.732  0.1491  0.2471  0.2848
20515W        W33929  13.889   6.674   0.386  0.1333 -0.0628 -0.2325
20516W        W33930  10.154   5.889  14.688  0.1256  0.3753  0.3099
20517W        W33931   8.185  11.893  15.174 -0.1395 -0.1049 -0.0387
20518W        W33932  17.843  15.901  13.711 -0.1031 -0.0256 -0.0798
20519W        W33933   3.357  12.094   3.051  0.2397 -0.0227  0.0622
20520W        W33934   3.985   0.628  14.391 -0.0562  0.1303 -0.2151
20521W        W33935  15.121   0.945   3.890 -0.1279 -0.1765 -0.1124
20522W        W33936   5.474   7.534  15.367 -0.1432 -0.0948  0.1050
20523W        W33937  14.846   0.552  14.667 -0.1313 -0.0429  0.0352
20524W        W33938   0.164   3.971  12.372 -0.0389  0.3072  0.1013
20525W        W33939   8.662  16.049   3.921 -0.1287  0.0231 -0.2132
20526W        W33940  18.039  14.927  16.191 -0.0776 -0.0540  0.2908
20527W        W33941   6.614  12.884  11.024  0.3414  0.0205  0.0546
20528W        W33942   0.583   2.915  12.759  0.2114  0.0209 -0.0876
20529W        W33943   0.010  14.493  15.640 -0.0054 -0.0422 -0.3875
20530W        W33944  16.060   4.590  13.523  0.1666 -0.1237 -0.0032
20531W        W33945  13.551  10.022  12.360 -0.1501 -0.1651 -0.2641
20532W        W33946  16.820  11.636   1.547 -0.0016  0.3801 -0.0438
20533W        W33947   4.750  18.143  10.668 -0.1703 -0.1568  0.2413
20534W        W33948  10.767   8.126  10.350 -0.3413  0.0007 -0.0361
20535W        W33949   6.334  16.669  13.578 -0.2570  0.0125 -0.0350
20536W        W33950   4.112  12.735  15.787  0.0068 -0.0351  0.0053
20537W        W33951  17.191   7.640   2.265  0.0773 -0.3202  0.0423
20538W        W33952   8.303  13.918   1.945  0.1037  0.0187  0.0572
20539W        W33953  16.940   4.682  11.614 -0.0518  0.1198 -0.0468
20540W        W33954  15.624   1.756   5.823  0.2488 -0.1817 -0.0781
20541W        W33955   4.473   4.031  13.535  0.3758 -0.0590 -0.0536
20542W        W33956  14.935   1.260   4.288  0.1901  0.0009  0.1389
20543W        W33957   0.023   8.562   4.393  0.1501 -0.0985 -0.2159
20544W        W33958  13.758   8.891  16.153 -0.1436 -0.1132 -0.1792
20545W        W33959   8.313   9.290   5.419  0.1732 -0.2361 -0.3279
20546W        W33960   1.872  15.845  11.963 -0.0449 -0.1098  0.1696
20547W        W33961   1.399  18.059   4.248 -0.2551  0.1565 -0.1576
20548W        W33962  16.492  11.046   0.495  0.2992 -0.1122 -0.0187
20549W        W33963   6.441   0.783  15.570 -0.1861  0.1384  0.1616
20550W        W33964   8.866   4.744   2.337 -0.1115 -0.1238  0.2469
20551W        W33965  18.227   9.208   2.662  0.0313 -0.1258  0.0788
20552W        W33966   2.041   5.132   0.671 -0.1385  0.1166 -0.0825
20553W        W33967   2.556   0.680  12.511  0.2805  0.1356 -0.2140
20554W        W33968   8.299  10.065   0.743 -0.1683 -0.1438  0.1954
20555W        W33969  10.109   7.128  14.104 -0.0498 -0.0184  0.1007
20556W        W33970   7.304  16.061   5.415  0.0079 -0.1012 -0.0495
20557W        W33971   0.766   4.935   3.204 -0.2100 -0.1865 -0.1497
20558W        W33972   5.944   8.415   4.166  0.4375 -0.1127  0.1028
20559W        W33973   1.977   3.858   4.131  0.2676 -0.2461 -0.1576
20560W        W33974   3.039   1.394   5.353 -0.1960 -0.3696  0.2551
20561W        W33975  17.016   6.992   5.363 -0.0692 -0.2977 -0.3901
20562W        W33976   9.293  16.092   2.616 -0.2939 -0.0554  0.1976
20563W        W33977   9.337   7.626   1.537  0.2824  0.1739 -0.0934
20564W        W33978  12.214   8.519  16.180  0.0100  0.0492  0.0410
20565W        W33979   9.311  17.436   3.906 -0.2390 -0.3509 -0.1361
20566W        W33980   0.859  16.837  14.913 -0.0534 -0.1733 -0.2250
20567W        W33981  16.512   5.316   6.005  0.3045 -0.0852  0.4446
20568W        W33982   8.292   3.864   3.438 -0.3711 -0.1469 -0.0624
20569W        W33983  14.979  12.866   1.508 -0.0256  0.2417 -0.6274
20570W        W33984   5.026  11.377  14.927 -0.1343  0.0888 -0.1065
20571W        W33985  15.315   5.454   2.633 -0.1587  0.3384 -0.0052
20572W        W33986  17.747   3.804   0.003 -0.2325  0.0991  0.0481
20573W        W33987  11.282  18.416   9.905 -0.0294 -0.0150 -0.0105
20574W        W33988   5.719  13.379  10.606 -0.0591 -0.3315 -0.3657
20575W        W33989   2.080   8.459   2.609  0.1942  0.2254 -0.1228
20576W        W33990  12.561  17.148  13.386  0.0954 -0.0900 -0.2368
20577W        W33991   6.641  11.621   4.856  0.2244  0.0743 -0.2532
20578W        W33992  12.869  11.176   3.839 -0.2671 -0.0422  0.2049
20579W        W33993   1.220   1.534  10.711 -0.1880 -0.2799 -0.3106
20580W        W33994  13.028   1.074   2.780 -0.0099 -0.1345  0.1130
20581W        W33995  17.745  12.629   3.627  0.0565 -0.0259 -0.3461
20582W        W33996   7.732  16.217   5.248  0.1017  0.0307 -0.2108
20583W        W33997  13.677   9.467   1.425 -0.1575  0.0235  0.1246
20584W        W33998  14.632   6.873   5.724 -0.0776  0.1238 -0.1408
20585W        W33999  13.380  16.427  10.887 -0.0551  0.0565 -0.0187
20586W        W34000  18.283   9.734   1.344  0.0407 -0.2341  0.0626
20587W        W34001   4.041   2.183   1.661 -0.2190 -0.0349  0.0925
20588W        W34002  11.954   4.494   0.175  0.0796  0.0299  0.1795
20589W        W34003  13.382  14.047   3.507  0.1954 -0.1746  0.1723
20590W        W34004  14.265  10.180  10.196  0.1238  0.0219 -0.1451
20591W        W34005  12.157   2.910  13.831 -0.3628 -0.2878 -0.0103
20592W        W34006   9.870   1.019   5.484  0.1575 -0.0116  0.1553
20593W        W34007   1.820   6.445   0.074  0.1586 -0.1651  0.0466
20594W        W34008  15.649   3.188  13.537 -0.1172 -0.1523  0.0894
20595W        W34009  13.538  17.198   0.117 -0.3526 -0.4074  0.0265
20596W        W34010   3.069  15.967  14.734 -0.1832 -0.0904  0.1126
20597W        W34011   8.489   4.784  12.918 -0.0335  0.3387 -0.1077
20598W        W34012  12.686  15.471   1.499 -0.2579 -0.1706 -0.2258
20599W        W34013  11.762   0.911   1.421 -0.0602  0.1529 -0.3790
20600W        W34014   2.829   5.145   3.400 -0.0756 -0.2293  0.1044
20601W        W34015   2.246  17.556  12.385  0.0984 -0.3149 -0.3775
20602W        W34016   9.385   1.783  12.892 -0.0844  0.0769  0.2333
20603W        W34017  10.938   5.569   3.615 -0.0179  0.0212 -0.1547
20604W        W34018  16.343  17.658   4.315  0.2260  0.2043  0.2357
20605W        W34019   0.392  10.857  14.345  0.1283 -0.0705 -0.2032
20606W        W34020  13.623   5.051   0.221 -0.0424 -0.0740 -0.3984
20607W        W34021   3.526  10.406   2.001  0.1680 -0.1082 -0.0576
20608W        W34022  17.149  17.565   1.379  0.0788  0.0795 -0.1433
20609W        W34023  16.294   8.361   2.323  0.0920  0.1792  0.1053
20610W        W34024  16.236   2.384  14.386 -0.1247 -0.1724 -0.2466
20611W        W34025   4.778   8.245  15.174  0.1208 -0.2167  0.4897
20612W        W34026  12.204   9.512  14.597  0.0757  0.1630 -0.1142
20613W        W34027  18.055   1.565   3.769  0.0792  0.1120 -0.0398
20614W        W34028  15.175   4.979   1.556 -0.0319  0.1026 -0.0338
20615W        W34029   5.858   9.783  10.169 -0.0937 -0.1465 -0.0350
20616W        W34030   2.009  13.755  12.999 -0.0549 -0.0075 -0.2342
20617W        W34031   6.506  16.595  12.702  0.0008  0.2426  0.1203
20618W        W34032   1.037  15.254   0.899 -0.1866  0.3759 -0.0326
20619W        W34033  17.294  17.729   1.820 -0.0630 -0.1180  0.4303
20620W        W34034   4.702   7.651  11.149 -0.0763  0.2980  0.2338
20621W        W34035   0.851  14.968  13.911  0.0686  0.0156  0.1484
20622W        W34036   0.261   9.032  11.359  0.2071 -0.0569  0.1342
20623W        W34037   2.191   9.483  10.951 -0.1827  0.2764 -0.2484
20624W        W34038  11.665   9.628  16.094  0.0417 -0.2822 -0.1548
20625W        W34039  13.414  13.114  11.686  0.0029 -0.1750  0.2162
20626W        W34040  11.859   9.409   4.795 -0.2167  0.0581  0.0301
20627W        W34041   1.989  15.238  13.888  0.0026  0.1412 -0.1258
20628W        W34042  10.544   2.699   0.035 -0.0562  0.2335  0.0128
20629W        W34043  12.408   9.180   0.671  0.2340  0.5596 -0.3376
20630W        W34044   0.057   7.393   0.834  0.1909 -0.2050 -0.3085
20631W        W34045   4.449   6.135   1.964  0.0869 -0.4361 -0.1977
20632W        W34046  16.834  12.217   1.178  0.0811 -0.2023 -0.1337
20633W        W34047  15.786  13.114   0.559  0.0690  0.1149  0.0446
20634W        W34048  10.279  10.241  14.932  0.1118  0.0533  0.2506
20635W        W34049  10.364  14.743  10.040  0.1579  0.2405  0.0083
20636W        W34050   9.307   1.261  16.151  0.3142  0.0119  0.1130
20637W        W34051  10.516   9.189  15.054  0.0467 -0.0106 -0.1368
20638W        W34052  13.555  14.055  12.604 -0.0916 -0.2465  0.0140
20639W        W34053   6.640  14.911  13.798  0.1839 -0.2270 -0.3485
20640W        W34054   3.990   2.121  15.347 -0.4227 -0.1085  0.3404
20641W        W34055  13.165   6.167  12.786 -0.1251 -0.2188 -0.0201
20642W        W34056  15.589  16.914  16.134 -0.3587  0.1117  0.2690
20643W        W34057   3.428  15.125   1.402  0.0211  0.0791  0.0820
20644W        W34058   4.599   6.637   0.097  0.2511  0.1539 -0.2208
20645W        W34059   1.541   0.983  11.475  0.2772 -0.1184  0.1640
20646W        W34060   0.489   0.646  12.603 -0.0384 -0.1501 -0.1073
20647W        W34061   8.087   7.490  12.451  0.1610  0.0344 -0.0031
20648W        W34062  12.564  10.921  10.501  0.1701 -0.0238  0.0481
20649W        W34063   6.513   2.642  13.494 -0.2312  0.4239 -0.1776
20650W        W34064  13.339  16.730   5.887  0.0727 -0.0065 -0.3148
20651W        W34065  13.506   8.503   4.720  0.0686  0.3393 -0.1960
20652W        W34066  11.644   1.101   4.733 -0.1344  0.1678  0.0515
20653W        W34067  16.470   8.903   2.123  0.1493  0.0600  0.1520
20654W        W34068   9.629  12.429  11.242 -0.0396 -0.2074  0.2744
20655W        W34069   7.564  16.907  15.119  0.1305  0.1117  0.1042
20656W        W34070   8.472   1.896  15.316  0.0828 -0.0940 -0.2691
20657W        W34071  10.687  13.492  15.307  0.0969  0.1104 -0.0921
20658W        W34072  11.838  13.527  14.728 -0.3605 -0.0938 -0.0413
20659W        W34073   5.117  16.122  11.239  0.1013  0.1357 -0.5064
20660W        W34074   6.743   4.133   1.166  0.1794 -0.2083 -0.2584
20661W        W34075   3.761   5.908  14.819  0.0736  0.1137  0.3599
20662W        W34076   9.974  16.941   1.691  0.0322  0.2104  0.0783
20663W        W34077   1.239  10.846  13.083 -0.1505 -0.0346 -0.0481
20664W        W34078   3.693   1.775   0.615 -0.0376 -0.0395 -0.0058
20665W        W34079   2.117  17.225  15.394  0.2700  0.1259  0.2731
20666W        W34080  15.164  16.020  15.390  0.4787  0.3103  0.0363
20667W        W34081  16.346   9.807  14.085 -0.0224 -0.0474 -0.0103
20668W        W34082   1.585  15.928  11.401  0.3280  0.1109 -0.1790
20669W        W34083  14.028   9.920  12.254  0.1181  0.1388 -0.0634
20670W        W34084  18.312   0.185  12.500  0.5132  0.2635  0.3175
20671W        W34085  17.529   1.857  14.543  0.0056  0.0529  0.0929
20672W        W34086  13.753  16.162   1.476 -0.1138  0.0696  0.0201
20673W        W34087  12.427   4.710  16.239  0.2468 -0.1075  0.0854
20674W        W34088  12.680  12.517  15.503 -0.1736 -0.0023  0.0018
20675W        W34089  16.147   8.976  16.156 -0.1070  0.1992 -0.1425
20676W        W34090  15.883   7.686   1.902 -0.0018 -0.5001 -0.1614
20677W        W34091   1.250   4.982  16.169  0.1131  0.0370  0.3844
20678W        W34092  15.605   9.036   5.999 -0.2635 -0.2122 -0.0113
20679W        W34093   0.173  10.290   6.062  0.1713 -0.1425  0.2613
20680W        W34094  15.336   8.599   4.756 -0.0588 -0.1035 -0.0813
20681W        W34095   6.916   5.277   6.258 -0.1635 -0.3462  0.2406
20682W        W34096   4.618   9.175  11.439 -0.0348  0.2921 -0.2933
20683W        W34097   9.221   2.851  10.352  0.4565 -0.0088  0.1873
20684W        W34098   2.814  16.174  14.298 -0.1846  0.1004  0.0176
20685W        W34099   2.262   0.712  15.576  0.1852  0.0640 -0.1467
20686W        W34100   8.726  12.723   1.405  0.3600 -0.2601  0.2680
20687W        W34101   7.267   4.146   2.669 -0.0608  0.0335 -0.0464
20688W        W34102  17.625   2.369  10.506  0.0331 -0.1136 -0.1559
20689W        W34103  15.392   2.235  12.736  0.0847  0.2554  0.1876
20690W        W34104  16.684   3.658  12.740 -0.0903  0.1366  0.0954
20691W        W34105   0.254   1.725   0.106  0.3810 -0.1207 -0.3836
20692W        W34106  10.306  17.636   3.993 -0.0209  0.0285  0.1538
20693W        W34107   7.406   1.129   2.186 -0.0414  0.0196 -0.1261
20694W        W34108   7.076   6.827  12.989 -0.3650  0.0298  0.0640
20695W        W34109   8.512   1.581   0.762 -0.1909  0.0855  0.1428
20696W        W34110   4.427   4.456  11.902  0.0748 -0.1570 -0.0493
20697W        W34111   0.238  13.549  10.883 -0.0831  0.1983 -0.0877
20698W        W34112   7.923   1.078   0.276  0.0434 -0.0351 -0.0253
20699W        W34113  17.740   4.408   3.806  0.1855 -0.0082 -0.0504
20700W        W34114  16.379   4.959  15.766 -0.0198  0.0779 -0.0133
20701W        W34115   7.208   8.218   1.627  0.0066 -0.2326 -0.1526
20702W        W34116   5.638  10.362   2.812 -0.2615  0.2184 -0.0298
20703W        W34117  16.245   4.664  15.380  0.0713 -0.0988  0.0051
20704W        W34118  18.051  14.681  10.418 -0.1130 -0.0786  0.1630
20705W        W34119  11.800   8.995  13.985  0.2129  0.0061 -0.2901
20706W        W34120   8.632  12.302  13.784  0.4722  0.0774 -0.0760
20707W        W34121   3.932   1.100  14.194  0.2142 -0.0534  0.1349
20708W        W34122   8.347   6.470  14.188  0.3054  0.2797  0.2282
20709W        W34123  15.335  13.525  14.721  0.0464  0.0310 -0.1582
20710W        W34124   3.976   8.922  14.719  0.0974 -0.1441  0.0964
20711W        W34125  14.448  17.909  11.986 -0.3756  0.2267  0.2033
20712W        W34126   7.101   5.221   5.446 -0.2576 -0.2104 -0.1939
20713W        W34127  11.248   0.740   5.775  0.2775 -0.5400 -0.0708
20714W        W34128   9.486  15.034   2.454 -0.1538  0.0327 -0.1234
20715W        W34129  12.159   5.422  11.185  0.2337 -0.0748  0.1750
20716W        W34130  15.061  12.000   6.009  0.0944  0.1281 -0.1638
20717W        W34131  17.599   0.320  14.721 -0.1010  0.0863 -0.2819
20718W        W34132   0.685   7.153   2.552 -0.5596 -0.5668 -0.3088
20719W        W34133   4.976  14.014  13.643 -0.3103 -0.0405  0.0303
20720W        W34134  15.562  10.480   0.539 -0.0045  0.0989 -0.0265
20721W        W34135  17.881   8.993  11.408  0.3414 -0.1058  0.0657
20722W        W34136  17.521   3.079  12.818 -0.2847 -0.0231  0.0157
20723W        W34137   2.959  11.194   3.860 -0.0509 -0.0980 -0.0334
20724W        W34138   0.181  17.276  13.312 -0.4222 -0.0547 -0.2916
20725W        W34139   2.202   4.574  12.762 -0.2028 -0.0518  0.3229
20726W        W34140   7.539  16.055  11.465  0.2581  0.0095 -0.0430
20727W        W34141   1.917  13.041  12.309 -0.1002 -0.0912  0.0538
20728W        W34142   3.147   7.545  12.857 -0.3308  0.3017 -0.1161
20729W        W34143   3.250  15.846   5.276  0.1923 -0.0917 -0.1671
20730W        W34144   4.497  18.304   1.310  0.1904  0.0130 -0.0543
20731W        W34145   8.225  15.786  13.855 -0.1413  0.0307 -0.2131
20732W        W34146   8.139   0.962  15.387 -0.0714 -0.0204  0.0258
20733W        W34147   8.769  11.379   0.084  0.2359  0.2699 -0.1190
20734W        W34148  14.074  15.826   2.529 -0.0057  0.0624 -0.1879
20735W        W34149  15.801   7.552  11.631  0.2122  0.1913 -0.0387
20736W        W34150  16.005  12.591  16.252  0.1893  0.2692  0.2078
20737W        W34151   2.970   2.061  12.939  0.2295  0.0776  0.1838
20738W        W34152  10.865  10.099  14.931  0.1597 -0.0444  0.0865
20739W        W34153  10.634   6.934  13.968 -0.3299  0.0367  0.2424
20740W        W34154  10.231   9.267   2.427  0.1987 -0.2232  0.3361
20741W        W34155  13.338   1.543   0.468 -0.1132  0.4154 -0.2085
20742W        W34156   9.160   4.870   6.013  0.0724 -0.0869  0.2401
20743W        W34157  18.222   5.291   3.727  0.0922  0.2056 -0.2119
20744W        W34158  10.381  15.013   5.284 -0.2055  0.0678 -0.0819
20745W        W34159   8.159  11.195   2.330  0.2023 -0.2349  0.0368
20746W        W34160   1.523  15.466  11.322  0.0893  0.1091 -0.1086
20747W        W34161   4.000   7.415  13.006 -0.1637  0.1846 -0.0947
20748W        W34162   7.065  12.558  15.586  0.4151 -0.0376  0.2706
20749W        W34163   8.831   2.517   2.259  0.2388 -0.1563 -0.0262
20750W        W34164  17.047   0.378  11.565  0.3470  0.1232  0.1088
20751W        W34165   1.946   3.739   4.766 -0.0722  0.1334  0.0396
20752W        W34166   4.627   4.936   4.178 -0.0413  0.0307  0.1468
20753W        W34167  13.783   6.796   4.974 -0.1009  0.3160 -0.1018
20754W        W34168   5.884   2.992   1.756 -0.1779  0.1016 -0.3090
20755W        W34169   6.879   3.481  10.395  0.2015 -0.0606  0.0051
20756W        W34170  17.707  14.025  14.911  0.1767 -0.1973 -0.0382
20757W        W34171  18.199   6.305   6.549 -0.2266 -0.1263  0.0676
20758W        W34172   0.034  11.560  15.597  0.0561  0.0950  0.1676
20759W        W34173  12.056   7.154   1.436 -0.2640  0.3376 -0.1305
20760W        W34174   8.535  12.893  13.269  0.2030 -0.1083 -0.2647
20761W        W34175  14.841  18.370  15.527 -0.1380  0.0434 -0.1712
20762W        W34176   7.370   4.902  12.453 -0.3093 -0.2410 -0.0406
20763W        W34177  13.447   7.586   2.233 -0.0141  0.3377 -0.1881
20764W        W34178   0.575  13.125   0.559 -0.1281 -0.1194 -0.0455
20765W        W34179   5.451   8.046  10.520  0.0623  0.2859  0.0730
20766W        W34180   4.193   0.101  11.817 -0.2557 -0.0711 -0.1686
20767W        W34181   6.643   4.766  12.750 -0.0243 -0.0238  0.1657
20768W        W34182  17.691   1.000  15.335 -0.0649 -0.2591  0.1602
20769W        W34183  12.813   8.419  11.413  0.2990 -0.0771  0.0020
20770W        W34184  17.734  16.873  13.688  0.1956  0.0616  0.0370
20771W        W34185   1.482  13.165  14.901  0.2545 -0.3599  0.0242
20772W        W34186   2.031   4.095  10.411 -0.2626  0.1132 -0.1101
20773W        W34187  11.197   2.880   5.416 -0.0724 -0.1455 -0.0422
20774W        W34188  12.159  12.679  12.351 -0.2714  0.0163  0.0465
20775W        W34189   0.985   5.362   3.347  0.1546 -0.0858  0.0404
20776W        W34190  18.027   5.371   0.431  0.1113  0.2217  0.1435
20777W        W34191  14.629   5.522   0.853 -0.0128 -0.2355  0.1223
20778W        W34192  18.174   2.747   4.968 -0.0982  0.1748  0.0486
20779W        W34193  17.450   4.914   5.991  0.1674 -0.0435  0.0551
20780W        W34194   2.491   4.244  12.374 -0.0019 -0.5339  0.1123
20781W        W34195   2.337  11.901   2.679  0.1515 -0.1409 -0.0083
20782W        W34196   0.577   3.271   2.266 -0.0258 -0.1286  0.2080
20783W        W34197   5.277  15.464   5.598 -0.1548  0.4155 -0.0145
20784W        W34198   9.382   9.445  14.579  0.2127  0.0178  0.1206
20785W        W34199   0.006  13.000   4.159 -0.1073 -0.0058 -0.0164
20786W        W34200   1.633  13.012   4.559  0.0507 -0.1482  0.1651
20787W        W34201  17.720   7.757   5.205  0.0617  0.2531 -0.0895
20788W        W34202  15.312  14.239   0.819  0.2049  0.0933  0.2970
20789W        W34203  15.618   7.734   0.509  0.0290 -0.0926  0.1530
20790W        W34204   2.698  11.290  10.994  0.1969 -0.1872  0.1765
20791W        W34205   6.649   7.744   2.533  0.1186 -0.0158  0.1576
20792W        W34206  17.383  16.666  10.558 -0.0320 -0.3220  0.0564
20793W        W34207  12.539  12.596  10.588 -0.1158 -0.1846 -0.0301
20794W        W34208   2.847  12.862   1.533  0.0561 -0.0086 -0.1360
20795W        W34209   9.344   9.980  13.027  0.1982  0.2336 -0.1109
20796W        W34210   7.391   3.334   3.492 -0.0100 -0.0208  0.1124
20797W        W34211  13.288   3.521   6.085  0.1140 -0.1128  0.2039
20798W        W34212   8.324  13.243  16.110  0.1531 -0.0620 -0.0804
20799W        W34213  17.858   7.562   0.403 -0.1570 -0.0051 -0.0414
20800W        W34214  11.078   3.090  15.807  0.3836 -0.0366  0.2657
20801W        W34215   1.494  18.090   3.348 -0.3004 -0.0361 -0.1014
20802W        W34216   9.342   3.402   0.646  0.3025 -0.2053 -0.1603
20803W        W34217   9.887  15.730  10.167  0.0359 -0.1932 -0.1009
20804W        W34218  11.078  12.701   0.015 -0.3430 -0.0576  0.2261
20805W        W34219  13.459   6.178   5.244 -0.1084  0.1241 -0.4191
20806W        W34220  16.648   0.027  11.865  0.1497  0.1543  0.3199
20807W        W34221   4.512  16.091   3.973 -0.3154  0.1193 -0.1854
20808W        W34222  14.089  13.246  13.651  0.2293  0.0053 -0.0793
20809W        W34223  17.577   6.163  11.581  0.0547  0.0568  0.3064
20810W        W34224   5.317   1.148  10.947 -0.2162  0.1471  0.1444
20811W        W34225   3.257  14.855   4.869 -0.2093 -0.1771 -0.1527
20812W        W34226   6.916  10.197  16.172 -0.1469 -0.1462 -0.2366
20813W        W34227   5.756  17.626  12.140 -0.1430  0.0982  0.0679
20814W        W34228  13.431  10.220  11.441 -0.0589 -0.1250  0.0015
20815W        W34229   2.762   3.219  12.922 -0.3401 -0.4286 -0.1044
20816W        W34230  12.504  15.864   1.012  0.2671 -0.0274  0.5114
20817W        W34231   5.064   6.665   0.190  0.0039 -0.2384 -0.0307
20818W        W34232  11.850  13.593   2.543 -0.1412 -0.0495 -0.1177
20819W        W34233   1.957  18.402   6.447 -0.1613 -0.1099  0.4176
20820W        W34234  16.484  11.874  11.049  0.3602 -0.0064 -0.1552
20821W        W34235  14.069  14.076   0.702 -0.2150 -0.1790  0.3596
20822W        W34236   7.877  18.258   0.489 -0.1803 -0.2988 -0.1128
20823W        W34237   8.263   9.102  12.000  0.0307 -0.1997  0.2522
20824W        W34238  13.863  10.674  15.029  0.2535 -0.0766  0.0410
20825W        W34239  10.349  13.765  13.455  0.1103 -0.2000 -0.2979
20826W        W34240   1.052   9.849   5.505 -0.1516  0.0043  0.0384
20827W        W34241  14.968  14.460  11.149  0.1323  0.0711  0.0616
20828W        W34242  12.297   5.042  13.030 -0.1403  0.0835  0.1235
20829W        W34243   8.086   3.693   2.273 -0.2454 -0.1144 -0.1960
20830W        W34244   3.406  18.154  12.436  0.0282 -0.1026 -0.0406
20831W        W34245   0.827   0.941   5.346  0.4509 -0.0446  0.1619
20832W        W34246   1.720   3.757   2.079 -0.1400 -0.0251  0.3369
20833W        W34247  12.237   4.982  13.869 -0.0695 -0.2776  0.1154
20834W        W34248   0.254   8.817  15.533 -0.0445 -0.2703 -0.0346
20835W        W34249   7.884  13.160  11.384  0.1939 -0.0785 -0.1179
20836W        W34250   9.623   3.279  13.355  0.3009 -0.1352  0.1334
20837W        W34251  11.734   5.948  12.081  0.0658  0.3862  0.0111
20838W        W34252  16.321  16.725  13.851  0.0566 -0.1876  0.3395
20839W        W34253   9.120   3.521  12.172 -0.1820 -0.0563  0.1490
20840W        W34254  17.895   0.413   6.306  0.0681  0.0080  0.0130
20841W        W34255   5.049   5.985  14.953  0.0259 -0.0783 -0.0462
20842W        W34256   6.852   6.299   5.641  0.0157 -0.3792 -0.4918
20843W        W34257  18.378  14.022  14.268  0.1260 -0.0658  0.0086
20844W        W34258  14.169   5.967  11.366  0.0571  0.1637 -0.0064
20845W        W34259   8.616   5.374  13.820  0.1536 -0.0056  0.0596
20846W        W34260  13.338  13.448   0.401  0.2583 -0.1666  0.0541
20847W        W34261   3.402  11.970   2.582  0.1749 -0.4306  0.2698
20848W        W34262  11.828  11.158   4.829  0.0322  0.1131  0.1646
20849W        W34263   9.872   2.490  12.044  0.1113 -0.3593 -0.2649
20850W        W34264  15.737  16.581  11.885 -0.4344  0.2755 -0.0515
20851W        W34265   3.772   8.708  13.333 -0.1083 -0.0327 -0.0025
20852W        W34266   8.435   5.338  13.080 -0.0259 -0.1522 -0.0908
20853W        W34267  11.157   3.744   2.314  0.2020  0.4649 -0.0410
20854W        W34268  15.173  11.531  14.254  0.1802  0.2488  0.2676
20855W        W34269   9.929   9.295  12.097  0.0272  0.1720  0.0582
20856W        W34270  16.287   8.642   5.399 -0.2244  0.0606  0.3474
20857W        W34271  14.907  14.021   3.695  0.0405 -0.2790  0.2375
20858W        W34272  15.393  14.338  16.122 -0.1123 -0.2288  0.0054
20859W        W34273   5.471  13.350   0.767  0.0393  0.0384 -0.0427
20860W        W34274   3.031   9.444  12.531 -0.0735 -0.0775  0.1571
20861W        W34275   6.470   5.849   2.611  0.0146 -0.0405  0.0835
20862W        W34276  14.070   3.222  12.882 -0.0177 -0.1320 -0.0767
20863W        W34277   6.835   1.959  13.993  0.1016 -0.0227 -0.1471
20864W        W34278   0.862  11.133  11.422  0.1383  0.1941  0.0668
20865W        W34279  18.173  16.025   0.529 -0.1398  0.0319 -0.0690
20866W        W34280  12.666   7.233  14.840 -0.0360 -0.0730  0.0178
20867W        W34281  14.085   2.306  11.559  0.0211  0.0189  0.3153
20868W        W34282  12.150   3.745  12.790  0.0202 -0.1769  0.1175
20869W        W34283   6.530  12.377   3.452  0.1645  0.2625  0.0377
20870W        W34284   9.918   3.304   1.924  0.0206 -0.0408 -0.0066
20871W        W34285   2.516   6.020  13.011  0.0439  0.0157  0.0234
20872W        W34286  17.713  12.473  15.305  0.2249 -0.3403  0.1059
20873W        W34287  14.875  13.181  14.657  0.1967 -0.2999  0.1809
20874W        W34288   8.389   8.425   2.477 -0.0241 -0.1439 -0.0687
20875W        W34289  16.621   9.933   3.779 -0.1261  0.3648 -0.0343
20876W        W34290  17.906   2.252  15.253  0.0382  0.0917  0.1801
20877W        W34291  14.274   3.349   3.670 -0.0817  0.0745  0.0877
20878W        W34292   4.009  16.758   2.972 -0.0489  0.0648  0.2947
20879W        W34293   4.814   4.126  15.622 -0.1634  0.1304 -0.2211
20880W        W34294   6.565  16.807   2.075 -0.2086  0.1532 -0.0540
20881W        W34295  11.893   0.433   3.962 -0.2059  0.0155  0.1024
20882W        W34296   9.756   9.589  12.995  0.1708  0.2435 -0.3021
20883W        W34297   6.136  15.381   5.065 -0.0690  0.1036  0.2123
20884W        W34298  13.752  11.760   0.632  0.1492  0.0386 -0.1654
20885W        W34299   7.169   3.114   5.811 -0.1049  0.0077 -0.1905
20886W        W34300  10.987   9.097  14.915  0.1390  0.0707 -0.3161
20887W        W34301  18.434   6.408  10.551  0.0345 -0.0047  0.3497
20888W        W34302  12.085  14.446   3.717  0.2058  0.3643  0.1942
20889W        W34303  15.195   2.391   5.363 -0.2505  0.4480  0.1990
20890W        W34304   7.479  14.353  13.400  0.0096  0.2501 -0.2830
20891W        W34305  11.820   4.705  14.651 -0.1636 -0.1464  0.1330
20892W        W34306  14.621  17.109  14.255 -0.0898 -0.3459  0.2496
20893W        W34307  13.106  15.205   1.899  0.1328 -0.0622  0.1064
20894W        W34308   0.278  12.342  14.953 -0.2513 -0.1542  0.0960
20895W        W34309  18.150  11.818  11.692 -0.3757 -0.0763  0.0809
20896W        W34310   7.401   0.809  15.226 -0.0040  0.1438 -0.1014
20897W        W34311  12.861   1.476  12.681  0.1989 -0.0457  0.0216
20898W        W34312  17.152   7.426  15.259  0.1236  0.0331  0.0233
20899W        W34313   5.115   1.962   0.875  0.2101  0.1804 -0.0257
20900W        W34314   9.106  11.490  13.348  0.0717  0.1402 -0.0616
20901W        W34315   7.635   4.944  16.071 -0.1058  0.0542  0.1661
20902W        W34316  13.835   8.090   5.332 -0.2052  0.0054  0.0192
20903W        W34317   2.165  14.244  10.368  0.2468 -0.0057  0.2985
20904W        W34318  10.003  10.762  13.978 -0.0454 -0.1733 -0.1969
20905W        W34319   4.391  15.614   2.395  0.2666 -0.3342 -0.2149
20906W        W34320   8.907  18.255   1.327 -0.0057  0.1524  0.2571
20907W        W34321   0.382  17.504   0.317  0.0502  0.2387 -0.1378
20908W        W34322  15.163  16.284   5.712 -0.0269 -0.3885 -0.2324
20909W        W34323   4.692   6.422  13.606 -0.1080 -0.0160  0.1317
20910W        W34324   3.836   5.117   1.100  0.2459 -0.0855 -0.0707
20911W        W34325  11.767   4.880  12.336 -0.1388 -0.0972  0.1945
20912W        W34326  10.422   0.354   0.342 -0.4049 -0.0422 -0.1191
20913W        W34327  15.664   4.746  10.743 -0.0951  0.1883 -0.0234
20914W        W34328  14.149   5.442   6.655 -0.0552  0.2380 -0.0278
20915W        W34329   9.993   8.285  15.631  0.1690  0.2500  0.0470
20916W        W34330   7.863   2.613   9.538 -0.1724 -0.1617 -0.1773
20917W        W34331   1.111  11.532  11.611  0.1353 -0.2155 -0.1147
20918W        W34332   3.104  15.467  14.812 -0.2174 -0.0655  0.1336
20919W        W34333  18.166   7.423   4.162  0.0224 -0.2195 -0.3475
20920W        W34334  15.945  10.328  12.701  0.1646  0.1144  0.0015
20921W        W34335   4.766  10.079  14.934  0.2747 -0.2305  0.1472
20922W        W34336  13.408  10.360   6.173 -0.1383  0.0786 -0.0598
20923W        W34337   7.240  10.523   1.604 -0.2280  0.0947  0.0460
20924W        W34338  10.909  15.348  10.687 -0.0132 -0.0760 -0.0484
20925W        W34339   9.651  16.362   1.202  0.1066  0.2905 -0.2617
20926W        W34340   7.466   1.728  13.247  0.1148  0.1678  0.1642
20927W        W34341   4.507   1.524  10.225 -0.0957 -0.0415  0.1680
20928W        W34342   4.929   8.108  15.710  0.0373  0.3370  0.2233
20929W        W34343   3.600  10.015   1.150 -0.0768 -0.0466 -0.0272
20930W        W34344   8.012  17.450  10.766  0.0299  0.0565  0.0111
20931W        W34345   6.636   2.130   0.944  0.1924 -0.1292 -0.2430
20932W        W34346  16.651   4.209   1.488  0.1963  0.0452  0.1044
20933W        W34347  11.741   6.643   5.989  0.2808 -0.1146  0.0425
20934W        W34348   3.778   5.590   1.402  0.0886 -0.2160  0.2351
20935W        W34349  15.001  12.624   3.383 -0.0621  0.1661 -0.0004
20936W        W34350   6.432  15.014   1.378  0.1735  0.1017 -0.1762
20937W        W34351   7.211   7.834  14.979 -0.0044  0.2511 -0.0463
20938W        W34352   1.205   2.151  13.371  0.0326 -0.0959  0.0466
20939W        W34353   1.650  17.754   0.785  0.1802  0.2190 -0.0643
20940W        W34354   2.104  17.265  13.777  0.0063 -0.2521 -0.2405
20941W        W34355  10.679   3.645  13.073  0.2188 -0.0114 -0.1783
20942W        W34356  17.015   9.347   0.234 -0.0673  0.3162 -0.0151
20943W        W34357   7.447   3.085  14.718  0.0546  0.1017 -0.2460
20944W        W34358  10.663   5.270   5.538  0.0866  0.0423 -0.1121
20945W        W34359  12.886   6.584  12.840  0.2380 -0.2981 -0.0671
20946W        W34360  14.566   9.080  13.825  0.1545  0.1563  0.0319
20947W        W34361  14.874   6.788  13.586 -0.2894  0.0066 -0.1894
20948W        W34362  16.012  12.567   5.094 -0.2419 -0.1442 -0.0570
20949W        W34363   7.847   0.544  11.830  0.1702 -0.1373 -0.0953
20950W        W34364   2.309  12.907  13.186 -0.2881  0.2191 -0.3757
20951W        W34365  14.921  11.375  15.136  0.1178  0.0469  0.1685
20952W        W34366  16.448  17.430  11.463  0.0418  0.0943 -0.1648
20953W        W34367   9.655  16.356  12.689  0.1194  0.1162 -0.0926
20954W        W34368   8.443  14.806  11.528  0.0547 -0.1412  0.1898
20955W        W34369   4.284  15.252  11.726 -0.1838  0.0738  0.0070
20956W        W34370  15.535   6.975  11.505 -0.0944  0.1875  0.4637
20957W        W34371  14.845   0.307   5.289  0.0651 -0.1158  0.1875
20958W        W34372  12.654   5.501   2.280 -0.0805  0.4298 -0.1039
20959W        W34373  11.503  13.816  11.169 -0.1174 -0.4064 -0.1689
20960W        W34374   6.037   7.777   1.553 -0.0191  0.0726  0.2723
20961W        W34375   0.500  14.522  12.812 -0.2677 -0.2612 -0.0822
20962W        W34376  17.771  12.961   6.203 -0.2190 -0.0940 -0.0242
20963W        W34377   9.048  16.729   3.002  0.2078 -0.3174  0.0038
20964W        W34378   8.192   7.535  14.911 -0.0693  0.5363  0.0296
20965W        W34379   9.376   1.282   0.377  0.3579  0.1979 -0.0172
20966W        W34380   6.115  12.617   5.842 -0.4309  0.2745 -0.1500
20967W        W34381   4.778   3.645  11.080 -0.0474  0.4917  0.3651
20968W        W34382   5.284   5.258   3.371  0.3174  0.0314 -0.0846
20969W        W34383  11.324   3.292   2.100 -0.0983  0.1242  0.0933
20970W        W34384   2.771   8.655   6.205 -0.2636 -0.0437 -0.0117
20971W        W34385   2.890   4.106   5.640  0.2274 -0.2202 -0.0629
20972W        W34386  17.131   6.380  13.642  0.0691 -0.1896 -0.0779
20973W        W34387   6.209  14.349   4.202  0.0086 -0.3798 -0.3623
20974W        W34388  10.295   8.749  15.361 -0.0485  0.0938 -0.0657
20975W        W34389   1.293  12.506   4.561  0.0246  0.0558 -0.3324
20976W        W34390   5.643  12.499   2.284  0.3026  0.0778 -0.2006
20977W        W34391   1.400   7.614   2.805  0.1570 -0.2405  0.1074
20978W        W34392   8.049   1.531   6.010 -0.2025  0.1560  0.0213
20979W        W34393   7.401   3.355   1.199 -0.2085 -0.0958 -0.1719
20980W        W34394   0.312   5.312  16.160  0.0121  0.0047  0.3564
20981W        W34395  16.033   5.082   4.901  0.0550 -0.1006  0.1158
20982W        W34396   9.222   1.460  10.151  0.0656  0.1968 -0.0887
20983W        W34397  13.989   5.910  12.207  0.1062  0.2595 -0.0355
20984W        W34398  12.660  18.062   3.305  0.1843 -0.0761 -0.0171
20985W        W34399  16.092   4.349   0.885  0.2443 -0.2643  0.2128
20986W        W34400  12.516  11.536   2.631  0.2005 -0.1325 -0.1036
20987W        W34401   6.981   9.505  13.440 -0.1207 -0.0527  0.1055
20988W        W34402  13.701  16.647   5.014  0.0372  0.0776  0.0532
20989W        W34403   6.300   9.759   2.462 -0.0481  0.0243 -0.1792
20990W        W34404   7.837  12.467  12.417 -0.3375  0.0919 -0.2802
20991W        W34405  11.310  13.735   4.351 -0.2514  0.4548 -0.1061
20992W        W34406  10.403   9.030   1.621 -0.1590 -0.3782 -0.0339
20993W        W34407  17.610   3.281   5.404 -0.1351  0.0228 -0.0208
20994W        W34408   7.356   9.627   0.525  0.0172 -0.1275  0.0146
20995W        W34409   0.425   3.387   5.519 -0.0985 -0.0550  0.3615
20996W        W34410  11.240  15.132   0.085 -0.3334 -0.1911 -0.0962
20997W        W34411  16.087   6.140  14.093  0.1824 -0.2608  0.0074
20998W        W34412   4.761  15.700   0.810  0.0326  0.0945 -0.1546
20999W        W34413   9.637   7.210   5.176 -0.0192  0.0569 -0.1485
21000W        W34414   3.838  15.039  11.631 -0.3238  0.0604 -0.0723
21001W        W34415   4.538   9.125  15.553  0.2109  0.0548  0.1950
21002W        W34416  15.264  12.088   5.269  0.1562  0.0383  0.0399
21003W        W34417  11.014   3.164  12.988 -0.1048  0.0037  0.2647
21004W        W34418   3.074  13.580   4.737 -0.1950 -0.0482 -0.4878
21005W        W34419  10.408   5.315   0.347  0.2985  0.3688 -0.0647
21006W        W34420  12.537   2.863  13.408 -0.2755  0.1447  0.1002
21007W        W34421   5.857   4.731   4.798 -0.3496 -0.4362  0.0584
21008W        W34422  14.127  16.430  11.089  0.0088 -0.0038  0.0453
21009W        W34423  18.322  13.494  14.686 -0.0727 -0.2332 -0.0687
21010W        W34424  14.833  17.520  14.525 -0.1461 -0.2408  0.0306
21011W        W34425   1.486  12.195  11.774 -0.0417 -0.1116 -0.1031
21012W        W34426  11.715   1.195   4.028 -0.0972 -0.0363 -0.4218
21013W        W34427  15.245   9.361  11.701 -0.0963  0.1014 -0.0748
21014W        W34428   1.736   8.382   2.014 -0.0059 -0.0978  0.0825
21015W        W34429   0.952   6.779  10.458 -0.2270  0.3056 -0.2629
21016W        W34430   8.149   7.752  15.849  0.1224 -0.0215  0.0505
21017W        W34431   2.337   9.813   0.671 -0.1518 -0.0478 -0.3687
21018W        W34432   1.612   7.087   2.400  0.0426  0.4110  0.0379
21019W        W34433  12.874  10.162  15.708  0.2271  0.0863  0.1713
21020W        W34434  16.382   6.232  15.280  0.0695  0.0055 -0.0168
21021W        W34435   7.284   9.700  15.020  0.2290 -0.1505 -0.0812
21022W        W34436   6.169   4.566  12.605  0.3649  0.3121 -0.2779
21023W        W34437  12.742  14.544   0.855  0.0011  0.2490 -0.1749
21024W        W34438   9.966  13.710   2.182  0.0361  0.0199  0.2590
21025W        W34439  18.392   2.486  15.321  0.0322  0.0942 -0.4154
21026W        W34440  18.144  15.333   2.608  0.1097  0.1407  0.1718
21027W        W34441  10.825  13.551  11.853  0.2117  0.2283  0.1158
21028W        W34442  12.188   9.336  13.216 -0.0870  0.1647 -0.0055
21029W        W34443  13.757  14.392   9.093  0.0424  0.1963 -0.0868
21030W        W34444   1.976   3.796  13.208  0.0417  0.1924  0.3392
21031W        W34445   8.189   2.136  13.223 -0.3263  0.0396  0.0728
21032W        W34446  15.405   2.182  15.925 -0.1172 -0.1911  0.1926
21033W        W34447  12.769   4.827  11.294  0.2282 -0.2167 -0.1177
21034W        W34448   8.214  10.425  11.137 -0.0901 -0.2807 -0.1606
21035W        W34449   1.765  16.785  12.440  0.0974  0.1358 -0.0171
21036W        W34450  14.572   2.826  11.654  0.0580  0.1925  0.0276
21037W        W34451   7.843  13.523   3.057  0.0615  0.1760 -0.0429
21038W        W34452  16.818   6.559   6.215 -0.2390 -0.0206 -0.0097
21039W        W34453  15.233   7.078   1.653  0.0171 -0.1391 -0.2714
21040W        W34454   1.463  10.149   1.739  0.0669 -0.0735  0.1253
21041W        W34455  17.016   8.148   2.415 -0.0334  0.0578 -0.2039
21042W        W34456  17.895  12.457   2.372  0.1324 -0.0326 -0.2841
21043W        W34457   9.542  13.888   0.730 -0.3222  0.2415  0.0514
21044W        W34458   4.518   7.114   5.897  0.1455 -0.2057  0.1015
21045W        W34459   0.358  15.945   6.301 -0.1654  0.3181  0.0065
21046W        W34460   7.910   5.468  15.962 -0.0458  0.1930  0.0857
21047W        W34461   5.812  11.738  13.250  0.1088  0.2153 -0.2115
21048W        W34462  17.702   3.834  14.040  0.1221  0.0379  0.1349
21049W        W34463   6.535   9.609  12.806 -0.1073 -0.2040 -0.0801
21050W        W34464   7.156  15.494  15.664 -0.2949 -0.2081 -0.0581
21051W        W34465  13.931  16.173   0.301  0.0958 -0.1016 -0.1759
21052W        W34466   3.075  11.340  15.808 -0.1303 -0.2436 -0.1515
21053W        W34467   6.734  17.049  16.009  0.1196  0.0957 -0.1092
21054W        W34468   2.407  17.858   5.324 -0.0098  0.2173  0.1524
21055W        W34469  10.580   0.152  15.128  0.1811 -0.0875  0.0256
21056W        W34470   3.129   9.616   1.720  0.3144  0.1411 -0.3400
21057W        W34471  18.326   8.723  14.542  0.1747  0.1000  0.1803
21058W        W34472  16.310   8.042  15.258 -0.3937 -0.1830  0.0234
21059W        W34473  13.891   1.216  13.501  0.2736  0.0230  0.1770
21060W        W34474  18.212  11.678  12.168 -0.0116  0.1572  0.0212
21061W        W34475   4.486   4.318  14.783 -0.0861 -0.0248  0.3399
21062W        W34476   4.541   3.994  12.123  0.1771  0.2230  0.2650
21063W        W34477  11.066  16.579  12.429  0.0071 -0.2091  0.3858
21064W        W34478   1.794   8.394   4.692  0.0267  0.1797  0.1520
21065W        W34479   0.096  16.544   5.307  0.0223 -0.1887 -0.1626
21066W        W34480   1.305  18.280   4.733 -0.0900 -0.0759 -0.3908
21067W        W34481  16.522  12.335   4.431  0.1898  0.0901  0.0896
21068W        W34482  10.352  14.740   4.172 -0.1295 -0.0185  0.2377
21069W        W34483   7.498  16.151  12.530 -0.1892  0.1560 -0.1990
21070W        W34484   1.557  12.859   2.733 -0.4581  0.2754 -0.0532
21071W        W34485  17.451   8.802   3.060 -0.1450 -0.1397 -0.1344
21072W        W34486   7.619   6.305  10.649  0.3194 -0.1217 -0.1476
21073W        W34487  15.014  12.153  15.423 -0.2357  0.0963 -0.0925
21074W        W34488  18.262  13.777  11.735  0.0750  0.1325 -0.1170
21075W        W34489  11.399   1.581   6.371  0.1180 -0.0360  0.0615
21076W        W34490   8.183  14.844   2.975 -0.3285  0.2231 -0.0922
21077W        W34491   8.708   7.594   5.183 -0.1811  0.1891  0.3541
21078W        W34492   2.074   5.441  11.113 -0.1228  0.1028 -0.3096
21079W        W34493  15.260  11.776  15.191 -0.1120 -0.1042  0.4129
21080W        W34494  15.902  10.372   3.215  0.1324 -0.1187 -0.0937
21081W        W34495   7.479   7.431   4.682 -0.0822  0.1377  0.0375
21082W        W34496  12.858  12.273   4.342  0.1429 -0.2624 -0.0179
21083W        W34497   6.970   4.565   1.229 -0.2299  0.4709 -0.0562
21084W        W34498  18.383   3.910   6.785 -0.1765  0.0711  0.0911
21085W        W34499  12.580  17.600   5.123  0.0639 -0.0211 -0.1943
21086W        W34500  12.190  13.852  14.620 -0.1643 -0.2270 -0.0386
21087W        W34501  12.948  16.524   2.303 -0.0886 -0.3381 -0.1967
21088W        W34502   5.999   4.171   4.061  0.1689 -0.2243 -0.0805
21089W        W34503  10.451  14.970  12.110 -0.0734 -0.0126  0.1598
21090W        W34504   4.342   3.515  10.224 -0.3742 -0.1019 -0.1162
21091W        W34505  11.218  17.304  13.238 -0.0279  0.1674 -0.0577
21092W        W34506   3.574   5.996  13.058 -0.0869  0.1149  0.2923
21093W        W34507   0.648   8.835  12.039 -0.1143 -0.0858 -0.2360
21094W        W34508   4.568  12.568   3.584 -0.2054  0.0740  0.2996
21095W        W34509   4.036   9.532  12.038  0.0877  0.0310  0.0713
21096W        W34510  18.253   3.321  13.604 -0.2634  0.1490 -0.1474
21097W        W34511  11.430   5.491   3.390  0.0018 -0.0637 -0.1305
21098W        W34512   7.384   9.470  12.706 -0.0843  0.1909 -0.0569
21099W        W34513   1.781   8.400   5.213  0.0588  0.2067 -0.2080
21100W        W34514  13.163   6.268   3.889 -0.1121  0.1396  0.0007
21101W        W34515   5.015   7.370   3.796 -0.0413 -0.0771  0.3060
21102W        W34516   3.025   1.740  11.920  0.0207  0.4178 -0.1550
21103W        W34517   4.206  15.590   1.005 -0.2010  0.0932  0.2008
21104W        W34518   9.160  15.262   1.683 -0.0289 -0.1089  0.2251
21105W        W34519   5.225   5.362  14.363  0.0877 -0.2564  0.2011
21106W        W34520  16.587  17.378   2.144 -0.1959  0.2960  0.1509
21107W        W34521  17.482   8.175   3.916  0.0025 -0.0877 -0.1668
21108W        W34522   9.654  11.402   0.497  0.1024 -0.1204 -0.2386
21109W        W34523  17.202  13.144  13.313  0.0825 -0.1714 -0.1092
21110W        W34524  13.579   9.379   4.079  0.0393 -0.0329  0.1281
21111W        W34525  14.101   4.901  12.307 -0.0881  0.0405  0.0516
21112W        W34526  16.199  10.043  12.993  0.1057 -0.1686 -0.1051
21113W        W34527   0.818  16.149   5.645  0.0854 -0.0861 -0.1354
21114W        W34528   9.998   9.761  14.749  0.0568  0.1083 -0.1652
21115W        W34529  16.248   4.863   6.036  0.2693 -0.3100  0.1954
21116W        W34530   6.340  13.226   1.688 -0.1528 -0.4136  0.0989
21117W        W34531   3.020   8.178  11.925  0.1138 -0.1197 -0.3216
21118W        W34532   7.997  13.802   5.657  0.5211  0.0800 -0.2806
21119W        W34533   5.006  15.222   3.042  0.1318 -0.2175 -0.0720
21120W        W34534   1.371  10.639   1.819  0.0530 -0.0702 -0.2907
21121W        W34535  14.318  18.369   3.854  0.3180 -0.3122  0.0916
21122W        W34536   0.757   6.563   2.625  0.2132 -0.1763  0.2642
21123W        W34537   1.556   4.708   5.904  0.1661 -0.1563 -0.1999
21124W        W34538   1.862   5.478  12.107  0.0423  0.0263 -0.3535
21125W        W34539  11.669  14.949  11.491 -0.2618  0.0445 -0.0105
21126W        W34540   0.367   8.075  10.283 -0.0783  0.0045  0.0996
21127W        W34541  16.859  13.205   1.204  0.0975 -0.3329 -0.0492
21128W        W34542  16.049  12.972  13.967 -0.2707  0.0998  0.0493
21129W        W34543   6.649  12.209  13.063  0.0409 -0.1057 -0.0266
21130W        W34544  12.792   5.073  16.059 -0.0241  0.3337 -0.1510
21131W        W34545   8.377   7.257   4.267  0.2110 -0.1040  0.0664
21132W        W34546   3.542   5.340   0.413 -0.0093  0.2367 -0.1837
21133W        W34547   3.387   8.707   3.738 -0.2681  0.1506 -0.3553
21134W        W34548   4.776   5.756   1.427 -0.1186 -0.1929 -0.1491
21135W        W34549  12.638   9.482   5.951  0.0510  0.3122 -0.2256
21136W        W34550   7.597   2.515  14.496  0.1607 -0.0381 -0.1430
21137W        W34551   3.888   4.042  10.614 -0.2309  0.1233  0.0439
21138W        W34552   4.352  15.860  15.209  0.1635  0.0590 -0.1123
21139W        W34553   1.236  17.181   1.994  0.2224 -0.0670 -0.5824
21140W        W34554  12.868   5.913  15.650 -0.1707 -0.1387  0.1895
21141W        W34555  18.035   3.499  12.245 -0.0496 -0.0063 -0.1333
21142W        W34556  16.873   9.327   4.960 -0.0722  0.5528  0.0270
21143W        W34557   3.101   6.821   4.093 -0.1277 -0.2578  0.0638
21144W        W34558   3.604  15.382  10.802 -0.0778  0.0875 -0.0350
21145W        W34559   1.458  10.008   3.174 -0.0957  0.1447 -0.1965
21146W        W34560  14.982  13.809  13.684 -0.0067 -0.0339  0.0811
21147W        W34561  12.150   6.115  12.308 -0.3044 -0.0011 -0.0730
21148W        W34562  14.822   6.661  11.822 -0.0795  0.1444  0.2157
21149W        W34563   0.458  17.861  13.994 -0.0314 -0.2502  0.0938
21150W        W34564  13.973   6.219  11.811 -0.1644 -0.2272 -0.1997
21151W        W34565  11.398   4.654   3.866  0.1039 -0.1190  0.2371
21152W        W34566   0.574   7.096   1.573 -0.1638  0.2453  0.2530
21153W        W34567  17.819   1.557  16.206 -0.1343  0.1406  0.0730
21154W        W34568   5.176  13.669   4.740  0.1244  0.0865 -0.0796
21155W        W34569  12.737   6.810  13.678 -0.2828  0.0799  0.0572
21156W        W34570   2.598   6.688   2.227  0.0052  0.1292 -0.0660
21157W        W34571   3.413  18.387   2.960  0.0902 -0.0913  0.0092
21158W        W34572  14.216  17.737   2.373 -0.3333 -0.1583  0.1854
21159W        W34573   5.619   9.325  12.133  0.1233 -0.0273  0.3307
21160W        W34574  17.494  15.674   2.431  0.0616 -0.0154  0.0561
21161W        W34575   2.112  14.363   4.552 -0.3206 -0.1524  0.4768
21162W        W34576  12.049  11.485  14.081 -0.1321  0.1076  0.0766
21163W        W34577   6.118  12.680  12.500 -0.1096 -0.0258 -0.2521
21164W        W34578  16.211  17.517  15.710  0.0312  0.0152 -0.1100
21165W        W34579   9.848  15.171  15.171  0.1785 -0.1828 -0.0172
21166W        W34580   0.197  18.141   3.504 -0.0633 -0.0597 -0.2862
21167W        W34581  16.515  13.810  13.684 -0.1330  0.0607  0.1626
21168W        W34582   8.264   5.820  12.567  0.2213  0.2107 -0.3824
21169W        W34583   4.756  15.014  13.594  0.0255 -0.1205 -0.0984
21170W        W34584   6.503   9.495   0.250  0.1917  0.3344 -0.0047
21171W        W34585  12.869  11.367   5.082  0.1124 -0.2487 -0.1393
21172W        W34586   7.690  13.637   0.592  0.0225  0.0861 -0.0896
21173W        W34587   0.077   0.664   1.641 -0.0539  0.2204 -0.2211
21174W        W34588  15.682   3.985   4.181 -0.0538 -0.1691  0.1356
21175W        W34589  13.811   3.067  15.722 -0.1318  0.3670 -0.1370
21176W        W34590  15.248   8.806   4.082  0.0467 -0.2876  0.1166
21177W        W34591  13.832   2.388   5.263  0.2693 -0.0072  0.2403
21178W        W34592  14.446  14.124   5.710  0.0946 -0.0211 -0.0113
21179W        W34593  18.031   5.966   3.304  0.1801 -0.1929 -0.0566
21180W        W34594   8.346   5.923  13.097  0.2281  0.0151  0.0199
21181W        W34595   2.630   6.215  15.866  0.1038 -0.1082 -0.0066
21182W        W34596  17.470  18.021   0.911  0.0830  0.3520 -0.3261
21183W        W34597   1.781  10.636  12.227 -0.2174  0.3530 -0.3179
21184W        W34598  15.443  10.466  15.823 -0.3083  0.2724 -0.1785
21185W        W34599  13.199   5.846  13.193 -0.1298 -0.3963 -0.1279
21186W        W34600   6.794   4.419  11.929  0.2251  0.0237 -0.4550
21187W        W34601   7.416   8.466   3.960  0.1212  0.1162  0.0368
21188W        W34602   8.775  10.420   3.955  0.1038 -0.1906  0.2333
21189W        W34603  15.210  16.051  14.055 -0.1117  0.0345  0.0522
21190W        W34604   2.908   0.381  11.145  0.0935 -0.1649 -0.1555
21191W        W34605   3.296   4.266  16.065 -0.1030 -0.1335 -0.2024
21192W        W34606  11.760   5.647   3.021 -0.2913  0.2298 -0.0933
21193W        W34607   3.365   8.626   5.360  0.1903 -0.1772  0.0332
21194W        W34608   2.318   5.107   3.429 -0.0409 -0.1309 -0.0978
21195W        W34609   7.465  16.295   1.165  0.3114  0.1085 -0.0128
21196W        W34610  11.148  11.053  15.140 -0.1216  0.0660 -0.0632
21197W        W34611   1.097  15.699   5.652 -0.0127  0.1839  0.0819
21198W        W34612  11.053   1.701  10.801  0.2367  0.0739 -0.0794
21199W        W34613   8.477   4.170  14.610 -0.0474  0.0677 -0.1741
21200W        W34614   6.191   9.968   3.624  0.0593  0.2443  0.1479
21201W        W34615  11.215  13.600  13.755 -0.2259 -0.3839 -0.0624
21202W        W34616   3.124   3.605  12.312 -0.1268  0.0873 -0.0075
21203W        W34617  14.163   4.178   3.160  0.2271  0.2597 -0.2661
21204W        W34618  18.153  11.143  14.465  0.1199 -0.2596 -0.0835
21205W        W34619   2.569  10.361  13.469 -0.0401 -0.0052 -0.0093
21206W        W34620   6.838   3.008  14.698 -0.2880  0.0546 -0.0014
21207W        W34621  13.301   9.917   1.966  0.1867 -0.0563 -0.0273
21208W        W34622  13.117   4.328  15.608  0.3280 -0.1004 -0.2443
21209W        W34623  10.472   0.225  13.943 -0.0175 -0.0187  0.1712
21210W        W34624  10.571  17.165  15.691 -0.2885 -0.2419 -0.2351
21211W        W34625  12.944   3.805   2.630 -0.0060  0.3007  0.1509
21212W        W34626  11.183  14.170   2.783  0.0034  0.1136 -0.0664
21213W        W34627   2.559  17.082   5.163  0.0690 -0.4652  0.0682
21214W        W34628  15.479   5.219  12.225  0.0488  0.0443 -0.4565
21215W        W34629   7.087  10.216   3.787 -0.1508  0.1063  0.1305
21216W        W34630   5.313  12.894  10.702 -0.0252 -0.2343 -0.2319
21217W        W34631   0.435   2.118   3.555 -0.0070 -0.0339 -0.2582
21218W        W34632  17.315   3.878   5.814 -0.0189 -0.0226 -0.1864
21219W        W34633  10.102   2.516  10.464  0.0416 -0.0509  0.0775
21220W        W34634   2.638   2.508   2.761  0.0954  0.1399 -0.2110
21221W        W34635   3.901   0.165  11.225  0.1103 -0.4513  0.0124
21222W        W34636  13.336   1.425  12.528 -0.1184  0.3396 -0.1820
21223W        W34637  14.851   6.077   4.686 -0.3026 -0.1212  0.0065
21224W        W34638  18.175   9.126  11.010 -0.0480 -0.0002  0.0207
21225W        W34639   5.710  16.549   5.048  0.0167  0.0487 -0.1910
21226W        W34640   6.694  11.859  13.950  0.0986  0.2851  0.2186
21227W        W34641   2.588  13.441  10.614  0.0643 -0.2489 -0.0655
21228W        W34642  17.154  18.218   2.690  0.1873 -0.2057 -0.0067
21229W        W34643   9.200   6.363  14.228  0.1414  0.1101  0.0080
21230W        W34644   9.020   6.276   3.778  0.3052 -0.1053  0.1128
21231W        W34645  13.660  13.433   1.779 -0.0325  0.0496 -0.0669
21232W        W34646  16.274  11.067   2.586  0.1467 -0.0352 -0.0372
21233W        W34647   8.747  14.996  11.096 -0.0503  0.1266 -0.0121
21234W        W34648  17.568  16.204  15.236 -0.0301  0.0011  0.0143
21235W        W34649   2.282   9.530  11.949 -0.0185 -0.1141 -0.1536
21236W        W34650   6.411   3.169   1.934  0.0080  0.0807  0.3687
21237W        W34651  12.813   2.548  11.106 -0.2534  0.0258 -0.0796
21238W        W34652  14.959  10.451  15.094  0.1363  0.0035  0.1672
21239W        W34653   9.392   3.911   4.516 -0.0577  0.1624 -0.2600
21240W        W34654  12.616   7.418  15.331  0.0853  0.1493 -0.1154
21241W        W34655   0.406   9.220  14.015  0.1135 -0.0483  0.0611
21242W        W34656  10.953  10.048   3.074  0.1904 -0.0300 -0.6221
21243W        W34657  13.325   9.180  13.014 -0.0593  0.0007  0.1684
21244W        W34658  16.988   4.988   0.014 -0.0431  0.1472 -0.0342
21245W        W34659   6.917   2.796   5.500  0.0096 -0.1904  0.1549
21246W        W34660  18.441  10.179   1.673  0.0224  0.0342  0.1774
21247W        W34661  15.111   2.796   0.280  0.1469  0.0141  0.1651
21248W        W34662   6.882   2.408   3.966  0.0107  0.2111  0.1133
21249W        W34663   7.010   7.366   3.255  0.1729  0.3880 -0.0248
21250W        W34664  17.927  12.040   3.112 -0.1754 -0.3718 -0.2690
21251W        W34665   9.335   9.341   2.914  0.0035  0.0087 -0.3556
21252W        W34666  14.159   4.069   6.422  0.1557 -0.0793 -0.2542
21253W        W34667   1.636   3.805   6.026 -0.0752 -0.3159 -0.2112
21254W        W34668   6.487   2.194  12.496 -0.0147  0.2160 -0.0994
21255W        W34669   6.890  10.438  12.717 -0.2375  0.2867  0.2197
21256W        W34670   1.108   7.336   0.833  0.2190 -0.1838  0.0283
21257W        W34671   4.837   6.388  15.469  0.1690 -0.1058 -0.0153
21258W        W34672   0.785   3.133   5.272  0.2939  0.1827  0.4466
21259W        W34673   1.102  12.372   0.919 -0.3600  0.2381 -0.1467
21260W        W34674   3.894  13.351  11.209  0.0793 -0.0282  0.1178
21261W        W34675  17.097  17.600   0.704 -0.1131 -0.2053  0.0546
21262W        W34676   5.262   8.433  14.986  0.1185 -0.0328 -0.1957
21263W        W34677  15.353   7.161  16.207  0.0187  0.3163 -0.0680
21264W        W34678   5.492  16.196   1.066  0.4976 -0.1644  0.1185
21265W        W34679   9.581  12.536   1.372  0.2048 -0.1550 -0.0895
21266W        W34680  10.098   9.003   2.003  0.1735  0.1110  0.1105
21267W        W34681   2.171   0.115  15.356  0.3822 -0.1323  0.1682
21268W        W34682   9.789   3.038   1.406 -0.1585  0.1674 -0.0245
21269W        W34683  12.429  18.273  15.551  0.0937 -0.2046 -0.0314
21270W        W34684   3.307   6.024  14.604 -0.0908 -0.0385 -0.1991
21271W        W34685   0.287  15.742  14.348  0.0056 -0.4672  0.0289
21272W        W34686  13.502  18.154   3.653 -0.2549 -0.1729  0.5264
21273W        W34687  13.068  11.321   3.277  0.1486  0.3253  0.2116
21274W        W34688   0.525   0.409  15.476  0.0649 -0.0711 -0.0027
21275W        W34689   5.605   9.077  11.133  0.0429  0.0291 -0.0975
21276W        W34690  15.492  13.611  12.938  0.0719  0.1553 -0.0047
21277W        W34691   4.759   6.338  14.820  0.1683  0.0129 -0.0024
21278W        W34692   3.100  16.094  12.634  0.2097  0.1061 -0.3592
21279W        W34693  10.322   7.480   0.334  0.3161  0.0712  0.1851
21280W        W34694  16.397   4.240   3.756 -0.1392  0.0275  0.0692
21281W        W34695  18.438  13.837  12.809  0.0403  0.1245  0.1275
21282W        W34696  18.036  18.112  15.293  0.1510  0.5424  0.4101
21283W        W34697   9.654  12.571  12.851 -0.1478 -0.0262 -0.0464
21284W        W34698  12.271   2.660  10.406 -0.1658 -0.0837  0.0315
21285W        W34699  11.877   5.967   5.211 -0.1181 -0.0116  0.0198
21286W        W34700  14.852   5.955   2.569  0.2314  0.3919  0.1592
21287W        W34701   5.514  11.363   5.199 -0.3382 -0.2151  0.0120
21288W        W34702  14.384   3.060  14.219  0.2715  0.1107 -0.0096
21289W        W34703  11.279   5.810  14.701 -0.0589  0.0096 -0.1986
21290W        W34704  12.501   6.057   0.126  0.0605 -0.1347  0.1448
21291W        W34705  11.086   6.753   2.901 -0.1384  0.1093 -0.1542
21292W        W34706  15.022  17.556  16.256 -0.0223 -0.1108 -0.1568
21293W        W34707   8.342  15.149  12.714  0.0233  0.3651 -0.0333
21294W        W34708   0.280  12.023  14.255 -0.1475  0.0759  0.2049
21295W        W34709   3.618   7.832   0.316 -0.0355 -0.1143  0.2591
21296W        W34710  13.838  10.651  11.430  0.1596 -0.1402 -0.1009
21297W        W34711  17.320   5.458   3.873 -0.1407 -0.1054  0.1834
21298W        W34712  18.362   7.000  12.029 -0.0552 -0.0457  0.0797
21299W        W34713  18.304   1.323  13.038  0.1809  0.3325  0.2068
21300W        W34714   9.233   9.165   1.959  0.1709  0.2702 -0.1323
21301W        W34715  13.321   1.125  13.558  0.1595  0.3523  0.0117
21302W        W34716   1.407  15.082   4.844  0.1413 -0.1371  0.1794
21303W        W34717  10.604  13.826   5.858 -0.0633 -0.1471  0.0096
21304W        W34718  10.056  11.188   5.192 -0.1422  0.0146 -0.0595
21305W        W34719   8.665  10.821   9.707  0.1403  0.0028 -0.1510
21306W        W34720  10.899   6.684  14.320 -0.2298 -0.0771 -0.1103
21307W        W34721  10.507  12.278  14.603 -0.0366  0.5124 -0.2697
21308W        W34722  13.610  13.969   1.562 -0.2251  0.0004  0.2033
21309W        W34723  12.159  10.394  13.256 -0.1051  0.1502  0.2778
21310W        W34724  15.190  16.842   9.574 -0.0332  0.3200 -0.3572
21311W        W34725   0.265  10.468  11.057  0.1983  0.0206 -0.0755
21312W        W34726  15.629   3.503  11.189  0.0577 -0.1218  0.0036
21313W        W34727   5.741   8.510   2.095  0.1363  0.3031 -0.4557
21314W        W34728  16.017   9.500  14.600  0.0520 -0.1672 -0.0491
21315W        W34729  14.032   7.656   3.160  0.1408  0.0203  0.0136
21316W        W34730   3.219  10.722   3.800 -0.2905  0.0759  0.2068
21317W        W34731  11.118  10.756  14.729  0.0290  0.1652 -0.2520
21318W        W34732   8.452  16.646  10.441 -0.1326 -0.0892  0.0712
21319W        W34733   6.099   1.454  14.910 -0.1087  0.0057 -0.1337
21320W        W34734   5.831   7.336  14.509  0.2002  0.1116 -0.3880
21321W        W34735  12.671  18.204  16.007  0.0843 -0.0779 -0.0678
21322W        W34736  12.034   0.453   6.271 -0.0465 -0.2635  0.0536
21323W        W34737  13.819   7.709   1.242 -0.0256 -0.1014  0.0356
21324W        W34738   9.104  11.145  13.991 -0.1213  0.1813 -0.1778
21325W        W34739   8.978  17.506   4.285  0.1322  0.0358  0.1694
21326W        W34740  12.540  10.822  14.912  0.0625 -0.0022 -0.2148
21327W        W34741   2.168   5.435   1.165 -0.2178 -0.0826  0.1531
21328W        W34742  11.822  11.371  15.036  0.0042 -0.1863 -0.1803
21329W        W34743  16.986  12.486   0.042  0.2420  0.0712 -0.0522
21330W        W34744   1.294  11.947   2.552  0.1686 -0.1125  0.0582
21331W        W34745   4.046  13.842  14.012  0.1628 -0.4421 -0.2196
21332W        W34746  10.095   5.612   1.065 -0.2970 -0.4399  0.2998
21333W        W34747   2.463   8.733   2.516 -0.2974  0.2713 -0.1209
21334W        W34748  17.456   3.149   6.313  0.0368 -0.3687  0.0885
21335W        W34749   5.928   8.674  12.464 -0.1311  0.1900 -0.0049
21336W        W34750  10.763  15.234   0.201  0.1846 -0.2943  0.1946
21337W        W34751  14.880   5.115   6.691  0.3373  0.4117 -0.1531
21338W        W34752   7.227   1.781  15.254 -0.0382  0.0222 -0.1577
21339W        W34753  12.119   5.261  11.660 -0.0386 -0.0163  0.1244
21340W        W34754  10.329  11.755   0.537  0.1237 -0.2612 -0.2959
21341W        W34755   5.012   4.862   3.257  0.2442  0.1958  0.5613
21342W        W34756  15.667  15.706   2.101 -0.0410  0.0800 -0.0456
21343W        W34757  14.492   0.923  11.541  0.0467 -0.0658  0.1571
21344W        W34758  14.110   8.780   4.582  0.0345 -0.2902  0.1528
21345W        W34759  11.594   7.897  11.439 -0.2561  0.0664 -0.0765
21346W        W34760   5.647   6.844   0.783  0.1392 -0.1787 -0.1200
21347W        W34761   7.219  15.900   3.573  0.1846  0.0232 -0.2191
21348W        W34762  13.802   4.880   4.360  0.2766  0.3295 -0.1185
21349W        W34763  10.092   9.147   0.465 -0.1644  0.0455 -0.0516
21350W        W34764   0.199  17.751  13.079 -0.1163  0.1991  0.2059
21351W        W34765   7.394   6.710   6.431  0.3977  0.2581 -0.1488
21352W        W34766   6.716   3.504   4.799 -0.3436 -0.3241  0.0514
21353W        W34767   7.338   2.648  13.398  0.0505 -0.1882  0.0658
21354W        W34768   4.606  17.918  15.937  0.0604 -0.0154 -0.0082
21355W        W34769   0.101  17.930   4.017  0.2782 -0.2452  0.2123
21356W        W34770  11.061   1.295  10.493  0.0558 -0.0610 -0.1306
21357W        W34771  17.709  11.978  11.411 -0.0929  0.3305  0.0282
21358W        W34772  16.102   8.721   1.464  0.1488 -0.2072 -0.1278
21359W        W34773  17.025  13.728  15.919  0.2159 -0.1109 -0.2421
21360W        W34774  13.591  17.574   0.985  0.0521  0.1732  0.1791
21361W        W34775   7.969   3.294  16.167 -0.2687  0.0709  0.0847
21362W        W34776   7.074   0.930   0.471 -0.2415 -0.0015 -0.2960
21363W        W34777   1.784   0.662   1.620  0.0047 -0.1057 -0.0663
21364W        W34778   2.574  17.348   0.317  0.1834  0.0011  0.0276
21365W        W34779   4.206  14.772   5.194 -0.2761  0.0673  0.3401
21366W        W34780   0.239  16.768  11.166 -0.4729  0.4829  0.2657
21367W        W34781   8.708   3.963  10.663  0.1206 -0.0593 -0.1398
21368W        W34782  16.022  11.836  10.690  0.2020  0.5335 -0.0451
21369W        W34783   0.693  17.886  15.886 -0.1756 -0.0384  0.0445
21370W        W34784  11.865   8.337   0.919 -0.0128  0.0828 -0.2157
21371W        W34785   0.913  14.547   2.963  0.2709 -0.1761 -0.0680
21372W        W34786  17.365   2.845   3.592  0.3527  0.0990  0.0921
21373W        W34787  17.861  16.535  15.523 -0.1775  0.1804 -0.0982
21374W        W34788  16.812  15.208   3.659 -0.0523  0.1547 -0.1353
21375W        W34789  11.711  10.749  16.058  0.0759 -0.0385  0.2247
21376W        W34790  15.228  15.809  10.623  0.0918 -0.2323  0.0334
21377W        W34791   1.772  14.948  11.517 -0.1573  0.0090 -0.0639
21378W        W34792  12.974  12.625  12.551 -0.4139 -0.0759  0.2046
21379W        W34793  18.229  10.196   2.686 -0.3230 -0.0329 -0.0818
21380W        W34794   9.422   9.055  15.453  0.0471 -0.3408  0.1071
21381W        W34795  18.224   4.294   3.579  0.1366  0.0144 -0.0950
21382W        W34796  13.714   1.928   4.258  0.4673 -0.0100  0.2873
21383W        W34797   1.008   8.091  16.125 -0.1037  0.1876 -0.0552
21384W        W34798  18.254   7.100   2.601 -0.0966 -0.0752 -0.0547
21385W        W34799  17.959   0.132   3.137 -0.1886 -0.0470 -0.2159
21386W        W34800   3.241   4.937   2.458  0.1538 -0.1458 -0.1886
21387W        W34801   6.433  16.240  15.736 -0.1575  0.1241 -0.1038
21388W        W34802   0.262   5.067   6.182  0.0166 -0.0233  0.0558
21389W        W34803   3.552   0.825   0.896 -0.0933 -0.1981  0.4890
21390W        W34804  12.760   5.138  12.350  0.2681 -0.0298 -0.2992
21391W        W34805   2.885   2.719   0.409 -0.2020  0.1693  0.0824
21392W        W34806  18.086   2.260  14.233 -0.1215 -0.0127  0.2236
21393W        W34807  10.383   8.084   1.741 -0.0394  0.4580  0.1408
21394W        W34808  11.311  11.873   1.830  0.0636 -0.1099 -0.0328
21395W        W34809   3.735  10.294   1.550 -0.0033 -0.0218 -0.1935
21396W        W34810   5.255   3.626  15.061  0.0786 -0.1376  0.0567
21397W        W34811   9.565  11.407   4.992 -0.3844 -0.5224  0.1948
21398W        W34812   0.883   6.253   2.229  0.2036  0.1577 -0.0797
21399W        W34813   7.068  16.446  13.417  0.1854  0.0694  0.0296
21400W        W34814   0.293   5.338  12.550 -0.0039  0.2482 -0.0932
21401W        W34815  11.195  15.426  15.538 -0.2343 -0.1867 -0.0431
21402W        W34816  14.342   3.522  15.317  0.0264 -0.1700 -0.0217
21403W        W34817  14.824   3.743  14.004 -0.1781 -0.2110 -0.0430
21404W        W34818   1.423   6.378   1.379  0.3109 -0.3726  0.1180
21405W        W34819  17.014   5.472  16.202 -0.0911  0.1450  0.0756
21406W        W34820   4.761  15.599   5.710 -0.0758  0.0686 -0.2185
21407W        W34821   0.392  17.030  11.951 -0.1630  0.0147 -0.0150
21408W        W34822   1.956   7.913   4.389 -0.1891 -0.1990 -0.1569
21409W        W34823  10.183   8.223  14.196 -0.2528  0.1818 -0.0866
21410W        W34824  14.191  17.509  11.638  0.2426 -0.0554  0.1681
21411W        W34825   6.297   2.846   4.641 -0.1859 -0.0514  0.3280
21412W        W34826   2.272   5.622  15.692 -0.0162  0.1148  0.3490
21413W        W34827   0.131   0.945  12.729  0.2078 -0.2328  0.0874
21414W        W34828   1.088   3.721   3.086  0.0433 -0.1839 -0.3341
21415W        W34829  13.537  11.209   3.068  0.0051 -0.0783  0.0467
21416W        W34830  14.490  18.298  10.650 -0.2401 -0.1907 -0.1111
21417W        W34831   8.013   7.779   0.684 -0.2066 -0.1098 -0.1044
21418W        W34832   6.196   8.877  14.889  0.0356  0.4053 -0.1914
21419W        W34833  14.988   5.739  13.362  0.0159 -0.1801  0.1027
21420W        W34834  10.380   0.922  13.483  0.3605 -0.1682  0.0723
21421W        W34835   0.667   0.424  16.023  0.1495  0.1408  0.1781
21422W        W34836  11.396   0.324   1.459  0.1135  0.0549  0.4981
21423W        W34837   3.141  10.790   6.007 -0.0820 -0.0477 -0.0085
21424W        W34838  11.103  16.267  10.392 -0.0621  0.3017 -0.0167
21425W        W34839  14.721   2.415  10.528 -0.0945  0.0425 -0.0591
21426W        W34840   8.505  12.491   4.603 -0.2987 -0.1810 -0.2627
21427W        W34841   8.541   1.061   0.851  0.1182 -0.0345  0.0172
21428W        W34842   0.017  10.792  15.606  0.1569  0.5151 -0.0905
21429W        W34843  14.720  11.250  11.431  0.2204  0.0224 -0.1647
21430W        W34844   0.022  17.219  14.275  0.0836 -0.2715  0.2610
21431W        W34845   7.103   6.861  14.036 -0.1159  0.1564 -0.0773
21432W        W34846  11.215   6.137   2.325  0.5713  0.2448 -0.2173
21433W        W34847   1.061  13.226   0.964  0.1369 -0.2267 -0.5024
21434W        W34848  11.315  18.015   3.143 -0.2009 -0.2213 -0.0108
21435W        W34849  11.050   8.544   4.942 -0.0116  0.3649 -0.0979
21436W        W34850  11.726  16.153   5.484 -0.1565  0.1448  0.2064
21437W        W34851   2.204   6.316  13.958 -0.2712  0.2959  0.0441
21438W        W34852   2.813  13.994  13.074  0.2998 -0.0353  0.2919
21439W        W34853   8.355  14.378   2.847 -0.2761 -0.0064  0.0315
21440W        W34854  13.246   8.052  13.534  0.0001 -0.1466 -0.0442
21441W        W34855   3.586  11.611  14.560  0.2694  0.0417  0.2740
21442W        W34856   7.319  12.391  12.179 -0.0766 -0.0522 -0.1707
21443W        W34857   8.451  11.608   4.191 -0.2133  0.1054  0.1089
21444W        W34858   2.092  10.448  11.866  0.0072 -0.2296  0.3289
21445W        W34859  10.911  10.123  15.551 -0.1080 -0.0256 -0.2209
21446W        W34860   3.260  14.041   1.128 -0.1214  0.1000  0.2307
21447W        W34861   6.727  18.350   2.074 -0.1865  0.1525 -0.1012
21448W        W34862  10.455   4.327  12.951  0.3879  0.3164  0.0279
21449W        W34863   6.656   9.501  13.856 -0.1248  0.0170 -0.0769
21450W        W34864   7.784  14.841  15.408 -0.0369  0.1316 -0.2772
21451W        W34865   5.628   1.791  13.092 -0.4099  0.1371  0.0716
21452W        W34866  16.746  11.881  13.660 -0.1094  0.0003  0.3472
21453W        W34867   5.499  14.253  11.035 -0.0757 -0.1201 -0.1049
21454W        W34868   1.107   8.320  15.348 -0.0658  0.0152 -0.5863
21455W        W34869   2.978  14.028   5.079 -0.0538  0.3574  0.1495
21456W        W34870  11.259   1.369  15.174 -0.0382 -0.0793 -0.3100
21457W        W34871   4.343  11.717   4.742  0.2121 -0.2158  0.1384
21458W        W34872   2.124   6.581   0.489 -0.0198  0.2633 -0.0781
21459W        W34873  13.496  13.893   0.633 -0.5111 -0.4800  0.3200
21460W        W34874   1.239   7.859   0.794 -0.0551  0.2899 -0.1148
21461W        W34875   9.844  12.434  13.637 -0.1706  0.1578  0.0844
21462W        W34876  12.323   5.222   1.219 -0.2608 -0.2194 -0.0141
21463W        W34877   5.115   4.590  13.349  0.1458  0.2336  0.1137
21464W        W34878   7.138   4.830   2.166  0.1609 -0.1823 -0.0694
21465W        W34879   5.623  16.676   4.185  0.0769  0.0279 -0.0638
21466W        W34880  14.288  11.416  11.662  0.0373 -0.0156  0.0499
21467W        W34881  11.945  10.910   2.683 -0.0453 -0.1288 -0.1195
21468W        W34882   2.283   7.348  12.903  0.0627 -0.1294 -0.2304
21469W        W34883   3.293  16.415   5.180 -0.1010 -0.0786  0.2495
21470W        W34884   4.671  12.852   5.342 -0.0621 -0.0487  0.1604
21471W        W34885  17.314  14.760   4.233 -0.2446  0.1528  0.2653
21472W        W34886   5.548   8.468  11.848 -0.0869 -0.2745  0.1306
21473W        W34887   4.480   7.117  12.063 -0.5036 -0.1837 -0.0526
21474W        W34888  16.788   4.891  13.585 -0.1607  0.0824  0.0112
21475W        W34889  13.515   2.732   3.602  0.0702  0.0168 -0.3282
21476W        W34890  11.571   1.821   2.802  0.0718 -0.0694 -0.1520
21477W        W34891   2.596  17.212  12.393  0.0988  0.1542  0.0897
21478W        W34892   2.540   0.396  12.031  0.0905  0.0570  0.1564
21479W        W34893   2.188   5.079   6.546  0.1608 -0.0513  0.1461
21480W        W34894  10.362   7.344   2.302  0.0076 -0.2616  0.0348
21481W        W34895  14.744  12.667  14.789  0.4069 -0.2175 -0.4063
21482W        W34896   7.998   7.943  14.249  0.1500 -0.1078 -0.1454
21483W        W34897  18.075  15.871   2.483 -0.1868 -0.0448 -0.1026
21484W        W34898   2.017   2.394   4.914 -0.1416  0.1060  0.0216
21485W        W34899   7.089  16.500  14.360 -0.2352 -0.0872  0.1348
21486W        W34900   6.444  10.123  15.098  0.2439  0.1163  0.3367
21487W        W34901  12.924  17.660  14.811  0.2792  0.0177 -0.2102
21488W        W34902   2.342  11.250   0.605  0.2426 -0.0749  0.3397
21489W        W34903   3.810  13.016   5.837  0.2328 -0.1654 -0.1357
21490W        W34904  10.581  16.019  11.116  0.1498  0.3989  0.2609
21491W        W34905  11.352  12.054   1.338  0.0309 -0.1903 -0.1082
21492W        W34906  16.190  18.367  11.358 -0.2845  0.1142  0.2359
21493W        W34907  16.123  11.933   0.968  0.0839  0.0673 -0.0307
21494W        W34908  10.142  12.211   4.959  0.1065 -0.2110  0.0695
21495W        W34909  15.211   3.459   6.016  0.1110 -0.0539 -0.4317
21496W        W34910  14.973  10.365   5.322  0.0220  0.0533  0.0338
21497W        W34911  15.195   7.644  13.911  0.2485  0.4287 -0.4364
21498W        W34912  14.120   6.694  14.282 -0.0288  0.2393 -0.2938
21499W        W34913   2.962   9.487  15.766 -0.1089 -0.2205 -0.3654
21500W        W34914  17.712   0.169  13.310  0.2037  0.1566  0.2796
21501W        W34915   8.330  16.140  12.484 -0.0203  0.0842  0.1544
21502W        W34916   4.854  14.477  11.766 -0.3740 -0.4979  0.0875
21503W        W34917   4.240   4.410   5.275 -0.0993 -0.0026  0.1189
21504W        W34918   8.658   0.889   1.818  0.0273 -0.4255 -0.0696
21505W        W34919   3.552  10.330   0.744 -0.0713  0.1800  0.1325
21506W        W34920  10.450   1.723  15.454 -0.0461  0.0021  0.2388
21507W        W34921  11.087   6.650  15.248  0.0931  0.0967  0.1079
21508W        W34922   6.685  12.324  14.000  0.1071  0.2416  0.0462
21509W        W34923  15.405   6.958   5.183 -0.1342 -0.3725 -0.0061
21510W        W34924   1.727  17.020  14.152 -0.0392  0.0468  0.1297
21511W        W34925  10.204  13.123   0.895  0.0299 -0.0231  0.1310
21512W        W34926   2.066  17.475   5.176  0.1195  0.1807 -0.0897
21513W        W34927  16.175  14.183  16.114  0.2468 -0.1840 -0.0217
21514W        W34928   6.395   1.245   2.090  0.1092 -0.1960  0.2234
21515W        W34929   3.872   2.743   2.704 -0.4215 -0.0182 -0.0307
21516W        W34930   0.599   4.461   3.456 -0.1818 -0.1964  0.1166
21517W        W34931   7.180  14.886  12.939  0.1120  0.0071 -0.0288
21518W        W34932  17.818   2.144   3.868 -0.2150 -0.1068  0.3279
21519W        W34933  17.584   6.147  12.777 -0.3061 -0.0435  0.3896
21520W        W34934   0.778   1.587  11.537 -0.3167 -0.0273  0.0454
21521W        W34935   4.387   6.569   3.031  0.0306  0.4212  0.1267
21522W        W34936  15.949   6.181   6.238 -0.3163 -0.1566 -0.0804
21523W        W34937  11.934  10.746  12.254  0.2996  0.1305  0.0928
21524W        W34938   5.497  11.906   1.409  0.2013  0.0252  0.5209
21525W        W34939   3.912   1.821  10.884 -0.2326 -0.1184 -0.3975
21526W        W34940  10.113  13.463  12.969 -0.0354  0.1255  0.0529
21527W        W34941   0.592  11.723   0.649 -0.0715 -0.2700 -0.0311
21528W        W34942  12.815   7.974  16.018 -0.2032 -0.2072 -0.0690
21529W        W34943  13.528  12.332   1.966 -0.1195 -0.0487 -0.2203
21530W        W34944   9.699  10.738   9.804 -0.1808 -0.0213 -0.4402
21531W        W34945   2.222  13.707   1.929 -0.3481  0.2772 -0.0716
21532W        W34946  16.383   9.785  11.327 -0.0806 -0.0701  0.1655
21533W        W34947   0.198   7.900  11.912  0.1352  0.0213 -0.0294
21534W        W34948   4.942   4.545  14.705  0.1093  0.1570 -0.3033
21535W        W34949   9.059   8.429  12.809  0.0572 -0.2089  0.0063
21536W        W34950  16.278   2.536   1.117  0.0038 -0.0001 -0.1900
21537W        W34951   0.216  18.105   1.533  0.1528 -0.2329 -0.1938
21538W        W34952  14.460  14.007   0.324 -0.5674  0.2272 -0.3190
21539W        W34953  16.501  13.128  15.176 -0.0104 -0.3501  0.1187
21540W        W34954   6.306  15.309  16.224 -0.0874  0.1532 -0.0175
21541W        W34955   5.717  13.449  14.564 -0.0509  0.0844 -0.0889
21542W        W34956  15.514   6.313   6.466 -0.3565  0.0744  0.1383
21543W        W34957  12.013   1.536   2.451  0.1555 -0.2042  0.3761
21544W        W34958   4.742   9.183   2.220  0.0039 -0.0093  0.0815
21545W        W34959  15.144   5.408  15.914 -0.0578  0.1152 -0.2278
21546W        W34960  11.306  10.262  14.773 -0.2043  0.1474 -0.3146
21547W        W34961  13.022   3.012   4.313  0.2822 -0.2553  0.0907
21548W        W34962   8.797  10.411  10.908  0.0080  0.0731  0.0634
21549W        W34963  15.848   4.094   3.019 -0.1762 -0.3056  0.0539
21550W        W34964   7.622   6.889   2.565  0.0935 -0.1900 -0.2305
21551W        W34965  17.223   9.127   3.853 -0.0474 -0.3335 -0.0970
21552W        W34966   2.502   7.060   0.510 -0.0990  0.0837  0.1226
21553W        W34967   6.294  13.447   3.783  0.2190 -0.2374  0.0968
21554W        W34968   4.356  12.060   0.607 -0.0018  0.2557 -0.2326
21555W        W34969   7.414   5.596   1.285  0.0494  0.0711 -0.0734
21556W        W34970  17.598  12.081  15.783  0.1640 -0.3285 -0.0317
21557W        W34971  16.437  10.232   3.233 -0.0295 -0.3843  0.1888
21558W        W34972  11.206  13.206   4.759 -0.3973  0.0415  0.0612
21559W        W34973  14.408   7.802   2.228  0.2597  0.0208 -0.1827
21560W        W34974  16.913   1.421  15.587 -0.0657 -0.0370 -0.2255
21561W        W34975   6.874  12.700  11.391  0.0905 -0.0301  0.1275
21562W        W34976   4.484  14.434  15.843  0.3204 -0.0477 -0.1146
21563W        W34977  14.608  14.671   4.691  0.0967 -0.3925 -0.0451
21564W        W34978  18.120   5.843   3.983  0.1099  0.4405 -0.3444
21565W        W34979   7.591  11.266  12.800  0.0989  0.3707  0.0828
21566W        W34980   7.029  17.024   0.636  0.2568 -0.1200  0.0868
21567W        W34981   0.954   7.405  11.205 -0.1498 -0.0408 -0.0164
21568W        W34982  12.249   5.280   3.660  0.0468  0.0466  0.1241
21569W        W34983   7.193  13.731  15.085  0.1052 -0.2735 -0.4104
21570W        W34984  16.259  14.152   5.441  0.3934 -0.0329  0.1368
21571W        W34985  15.334  15.495  13.968  0.0228  0.1495  0.0200
21572W        W34986   9.274   8.060   0.682 -0.2143 -0.2187  0.1416
21573W        W34987   8.076   0.654  11.128  0.1492  0.0543 -0.0137
21574W        W34988   8.013  18.370  14.619  0.0648  0.0925 -0.1589
21575W        W34989  13.749   9.328   0.336  0.1506  0.2395 -0.2259
21576W        W34990   8.168   3.496   9.630 -0.4432 -0.1801 -0.3994
21577W        W34991  14.474  11.868   1.779  0.2843  0.4947  0.1227
21578W        W34992   9.628   3.204   2.364  0.1697  0.1513 -0.1967
21579W        W34993  17.023   1.868  15.306  0.1756  0.1029 -0.1067
21580W        W34994   8.212  10.812  14.789  0.4128  0.4882 -0.1790
21581W        W34995   8.512   1.739   2.753  0.0380 -0.0879  0.0530
21582W        W34996   5.465   7.375   6.260  0.0375  0.1410  0.2313
21583W        W34997  14.467   1.282  15.829 -0.2851  0.0278 -0.1814
21584W        W34998  12.836  14.848   4.733 -0.3401  0.0493  0.1978
21585W        W34999   3.023   4.489   5.068 -0.0129 -0.2362 -0.1180
21586W        W35000   9.837   0.423  15.563  0.2245 -0.0163 -0.0112
21587W        W35001   4.805  14.096   3.586 -0.0095  0.1341 -0.4189
21588W        W35002   8.988  17.305  10.990  0.1025  0.0076  0.3306
21589W        W35003  10.508  11.274  14.693 -0.1492  0.2158 -0.0155
21590W        W35004   2.029   0.624   2.729  0.0985  0.0818  0.0971
21591W        W35005   3.795  16.536  11.896  0.0569  0.0180  0.0418
21592W        W35006   3.436   6.844  15.803 -0.2854 -0.0862  0.0909
21593W        W35007   8.096   8.717   3.452  0.2497  0.1367  0.1342
21594W        W35008   0.478   1.374  16.065 -0.1933  0.1361  0.3044
21595W        W35009  17.178   5.739  11.395 -0.0321  0.0386 -0.0582
21596W        W35010  14.061   8.997  15.728  0.1585 -0.1068 -0.0991
21597W        W35011  18.003   9.419   1.733  0.0889  0.1197  0.0994
21598W        W35012  13.965   1.135  15.862 -0.0758  0.1436 -0.3132
21599W        W35013   4.619  15.245   1.084 -0.0233  0.0051 -0.0123
21600W        W35014  12.989   5.490  11.521 -0.1850 -0.1808 -0.1178
21601W        W35015   9.728   6.238   2.511 -0.1005  0.2875  0.0754
21602W        W35016   0.601   1.143  13.793 -0.0600 -0.0659 -0.1149
21603W        W35017  15.512   6.255   4.145  0.0510 -0.1029  0.1379
21604W        W35018  16.375  14.345  15.699  0.2204  0.1440  0.1148
21605W        W35019   9.226   9.356  15.070 -0.0389  0.0613  0.2112
21606W        W35020  10.688   4.592  14.529  0.0987 -0.1909 -0.2635
21607W        W35021   2.211  11.883  15.258  0.1829 -0.4156 -0.1143
21608W        W35022   6.771  16.529   6.122 -0.1989 -0.0688  0.0297
21609W        W35023   2.759   3.500   3.994 -0.1713  0.1695  0.0507
21610W        W35024  12.501   2.514   1.125 -0.1949 -0.3307  0.0084
21611W        W35025   9.635   6.171  14.046  0.1362 -0.3497 -0.2042
21612W        W35026   2.851  12.611   1.955  0.0582 -0.0512 -0.1755
21613W        W35027  11.549   3.171  15.921  0.3849  0.0823 -0.1571
21614W        W35028   3.788  17.683  10.267  0.1203 -0.0206  0.1098
21615W        W35029   8.265   6.951  15.673 -0.1371  0.0712  0.2919
21616W        W35030   1.749  16.116   2.710 -0.0289 -0.2562 -0.2352
21617W        W35031  17.752  12.180  12.711  0.0721  0.3271  0.2775
21618W        W35032  13.048   3.935  11.796 -0.2232  0.1050 -0.0991
21619W        W35033   7.229   1.404  12.769 -0.0428  0.2049 -0.2036
21620W        W35034  16.889   2.637   4.829 -0.1741  0.4315  0.0458
21621W        W35035   0.869  10.740  13.874 -0.0792 -0.0837 -0.3552
21622W        W35036   9.066  18.408   1.742 -0.2630 -0.1328  0.1230
21623W        W35037  14.499   8.454  14.538 -0.0894 -0.1875 -0.0216
21624W        W35038   9.526  12.290  11.826 -0.1539  0.0262  0.0282
21625W        W35039   5.721  17.326   2.842  0.0029 -0.3158  0.1827
21626W        W35040   7.928   9.224  14.885 -0.1973  0.2811  0.2305
21627W        W35041   3.902  11.081   2.674  0.0527  0.1282  0.1457
21628W        W35042  16.286  16.542   4.324  0.2286  0.0281  0.1057
21629W        W35043   4.575  15.690   1.299  0.1793  0.3022 -0.0253
21630W        W35044  11.903   1.074  14.729 -0.5140 -0.0131  0.3378
21631W        W35045   5.057   6.971  16.075 -0.2201  0.0064  0.3676
21632W        W35046   6.379  14.686   5.687 -0.0659  0.1202  0.0287
21633W        W35047   2.741   0.595   5.168  0.0808 -0.0732 -0.2151
21634W        W35048   2.257   4.932  14.724 -0.0966 -0.3667 -0.0946
21635W        W35049   6.750   5.165   4.970  0.0051  0.1117  0.1446
21636W        W35050  12.749   7.887  15.002  0.1836  0.3571 -0.0623
21637W        W35051  13.393  14.717  10.654 -0.1409  0.1522 -0.1935
21638W        W35052  16.218   8.711  12.103  0.0176  0.0612  0.4565
21639W        W35053   3.781   4.346   6.578 -0.0097 -0.2694 -0.2223
21640W        W35054  11.563  11.004   1.958 -0.3706  0.0401 -0.1626
21641W        W35055  11.298   8.426   1.586  0.0906  0.0348 -0.0016
21642W        W35056  16.526  18.040  12.125 -0.0443 -0.1379  0.4502
21643W        W35057   3.776   0.024  14.187  0.1740  0.0192 -0.0907
21644W        W35058  17.172   5.772   5.881  0.3479  0.1170 -0.1330
21645W        W35059  11.471   4.990  11.857  0.0185  0.7504 -0.0697
21646W        W35060  11.135  13.857   3.245  0.1336  0.4037  0.4162
21647W        W35061   4.931  14.297   0.970 -0.4358 -0.2577  0.1249
21648W        W35062   4.586  13.723   6.029 -0.1168  0.0316 -0.1766
21649W        W35063   4.594  10.503   1.171 -0.0004  0.2083  0.2733
21650W        W35064   9.482   2.341  12.724  0.0878  0.0699 -0.2714
21651W        W35065  18.390   2.996   6.003  0.0345  0.0980  0.1026
21652W        W35066  11.194   4.405  13.388  0.2195  0.1047  0.0129
21653W        W35067  11.917   2.117  11.121  0.0799  0.0970 -0.3862
21654W        W35068  16.722   0.076   0.724 -0.0519 -0.0090 -0.2577
21655W        W35069   2.473   0.354   3.136  0.2594  0.0589 -0.0211
21656W        W35070  13.986   6.854   3.419  0.1261 -0.1062  0.1820
21657W        W35071   9.375  10.718  16.225  0.0102  0.3580  0.2025
21658W        W35072   0.731  16.014  12.520  0.1147  0.0759  0.1041
21659W        W35073   1.316  15.587   0.595  0.0469 -0.1691 -0.1300
21660W        W35074  16.017  11.388   2.051  0.1031 -0.1463 -0.0345
21661W        W35075  12.751  10.029  14.380 -0.1491  0.0713  0.3161
21662W        W35076  14.057   8.722   3.835  0.0996  0.0675  0.0761
21663W        W35077  14.455   0.919   1.362 -0.1489 -0.5070 -0.1451
21664W        W35078   7.278   5.960   4.787 -0.0001 -0.2571 -0.0131
21665W        W35079   9.989   4.431  13.335  0.1377 -0.0357  0.1896
21666W        W35080  13.040   7.103  15.158 -0.0455 -0.1122  0.2578
21667W        W35081  16.924  18.276   1.682 -0.3097  0.0750  0.1831
21668W        W35082  14.314   1.897   3.990  0.2628  0.0172 -0.1609
21669W        W35083   6.633  10.043  15.800 -0.2408  0.0859 -0.0833
21670W        W35084   4.109  14.964  12.105 -0.2982  0.1506  0.0477
21671W        W35085  18.096   5.642   2.387 -0.3653  0.1244  0.0177
21672W        W35086  14.317  11.167   5.662  0.1162 -0.0525  0.1726
21673W        W35087  12.704   1.749   6.130 -0.0234  0.1731  0.0082
21674W        W35088   0.482  12.603   1.552 -0.1369 -0.1518 -0.1899
21675W        W35089  16.152  10.234  16.003 -0.0090 -0.4457 -0.0151
21676W        W35090  10.192  17.162   2.702  0.1301 -0.0486  0.0163
21677W        W35091   3.965  14.544   5.575  0.3077  0.0610 -0.0139
21678W        W35092   2.427   1.257  13.408  0.1212 -0.0492 -0.0833
21679W        W35093  17.597   4.472  13.378  0.1730  0.2871  0.1556
21680W        W35094  14.469   9.087   1.293  0.1354  0.3895  0.0199
21681W        W35095   3.307  17.779  16.043 -0.1441  0.3248 -0.2374
21682W        W35096  11.946   7.522   4.588  0.0172  0.0941  0.2556
21683W        W35097  17.333  11.118   3.278 -0.2514  0.0649  0.3196
21684W        W35098   4.486   6.944  10.524  0.2512  0.2055  0.0098
21685W        W35099   1.760   7.265   1.535  0.0026  0.1627 -0.0703
21686W        W35100   2.477   9.752  14.168 -0.2509  0.0842  0.1312
21687W        W35101   2.995  11.142   2.874  0.2353 -0.1907 -0.0167
21688W        W35102  15.920  12.570  15.469  0.0218 -0.0989 -0.0007
21689W        W35103  10.353   3.695   2.822 -0.3152  0.2944 -0.0565
21690W        W35104  12.087  11.872  11.743 -0.2017  0.4331  0.0211
21691W        W35105  13.220  16.924  11.108  0.1176 -0.2633  0.1065
21692W        W35106  10.133   0.715  10.644 -0.0047  0.1125  0.0349
21693W        W35107   2.166   6.957   1.739  0.2205  0.2137 -0.2141
21694W        W35108   6.116  16.029   2.160  0.0987  0.1184  0.1451
21695W        W35109  13.596   8.292   3.216  0.0442  0.0970 -0.0791
21696W        W35110   3.562  13.165  11.574  0.4116 -0.0415  0.1379
21697W        W35111   6.781  15.907  15.621  0.1047  0.0333  0.1979
21698W        W35112   2.738   4.981   2.485  0.3531 -0.0851 -0.2264
21699W        W35113   2.409   7.628  13.726 -0.0551  0.1039  0.1035
21700W        W35114   7.509   3.787   1.529 -0.1209 -0.1300  0.2162
21701W        W35115  10.056  11.114  14.858 -0.1311  0.1004  0.2615
21702W        W35116  16.237   3.453  12.507 -0.0959 -0.2181 -0.1655
21703W        W35117  17.173   7.351  11.824  0.0713 -0.2136 -0.0678
21704W        W35118   3.408   4.778  10.830 -0.1913 -0.1982 -0.0579
21705W        W35119   9.999   9.894  13.572  0.3497 -0.1093  0.0669
21706W        W35120   6.689  12.045   0.426  0.0745  0.3820  0.2724
21707W        W35121   9.776  15.016   0.763  0.1173 -0.2319  0.0186
21708W        W35122  14.613  10.023  14.021 -0.2060 -0.2192 -0.3243
21709W        W35123  18.109   1.686   5.152 -0.1321 -0.2206  0.0045
21710W        W35124   1.213  14.774  15.970 -0.2003  0.0114  0.0395
21711W        W35125   9.562   3.704  11.076 -0.0640  0.0259 -0.2815
21712W        W35126   0.552   0.753   2.473 -0.1596  0.2803 -0.2009
21713W        W35127  12.290   1.306   2.089 -0.2713  0.0524  0.0359
21714W        W35128  17.469   6.716  12.936 -0.1425  0.1676 -0.0102
21715W        W35129   0.671  15.518  14.086 -0.1732  0.0136 -0.0178
21716W        W35130  13.959  11.849  11.897 -0.2120  0.1054 -0.0406
21717W        W35131  16.102  17.141   3.014 -0.0916  0.1321  0.0242
21718W        W35132   6.759  16.898   5.810  0.0997  0.0670 -0.4118
21719W        W35133  12.710   1.343  11.723  0.0348  0.1015 -0.5993
21720W        W35134   2.840  17.604  15.892  0.1427  0.1562 -0.6105
21721W        W35135  18.321   1.151  12.261 -0.1961 -0.3719 -0.0659
21722W        W35136  16.736   2.711   1.097 -0.0112  0.3594 -0.3030
21723W        W35137  16.101  14.357  12.319  0.2451  0.1812  0.6157
21724W        W35138  18.144   3.013  10.893  0.1520 -0.1499 -0.0533
21725W        W35139  17.757  13.897  13.373  0.3100 -0.5549 -0.2044
21726W        W35140  12.709  10.163   0.298 -0.5309  0.1905  0.0366
21727W        W35141   8.319   5.933  13.948  0.0578  0.0245  0.0096
21728W        W35142   8.565  16.435  15.628  0.1187  0.2999  0.1486
21729W        W35143   2.546   3.564   3.556 -0.0583  0.0708  0.0696
21730W        W35144   0.399  12.195   2.357 -0.0259 -0.1702 -0.0684
21731W        W35145  11.462   3.207   3.106 -0.0202 -0.0344 -0.1944
21732W        W35146  18.390   9.775   6.386 -0.2535  0.1618  0.0839
21733W        W35147   2.757   5.449  15.354 -0.1291 -0.2101 -0.2685
21734W        W35148  17.557   7.130   5.307 -0.1721 -0.1768 -0.0393
21735W        W35149   4.140   7.539   5.742  0.2815  0.2414  0.1620
21736W        W35150  14.584   0.361   0.055 -0.0733 -0.0249  0.0582
21737W        W35151   8.076  14.190  11.577  0.0207  0.0561  0.3040
21738W        W35152   4.179  16.199   4.434  0.0588  0.3791 -0.1061
21739W        W35153   1.122  17.101   3.364  0.1856  0.0116  0.1045
21740W        W35154  15.803   6.489  12.403 -0.1716 -0.1352  0.0465
21741W        W35155  13.198  13.745   3.069  0.0763 -0.0863 -0.2914
21742W        W35156   8.020   4.653   1.834  0.0527  0.1648  0.0621
21743W        W35157   7.799  11.099   9.685  0.0990 -0.3798  0.2732
21744W        W35158  15.373   1.331   0.998  0.1499 -0.0815 -0.1267
21745W        W35159  12.105   0.611  13.960  0.1484 -0.0251 -0.1685
21746W        W35160   5.754  12.181   4.162  0.2021 -0.0293 -0.1419
21747W        W35161   2.237   1.179   3.473  0.1224 -0.1646  0.0203
21748W        W35162   6.961  18.373   1.015  0.0838  0.0544 -0.0304
21749W        W35163  15.245  11.401   3.002 -0.0301 -0.1139  0.0209
21750W        W35164  15.215  10.914   5.410 -0.0898  0.0193  0.0491
21751W        W35165   7.612  12.172  16.205 -0.0784  0.1392 -0.0613
21752W        W35166   4.881   3.352  12.647 -0.5561 -0.3957  0.1285
21753W        W35167  15.584   9.409  12.616 -0.2351 -0.1583 -0.0605
21754W        W35168   2.785   5.712  15.812  0.3054  0.2429 -0.2149
21755W        W35169   2.566   5.805  12.508  0.0129 -0.1044 -0.1724
21756W        W35170   1.006  14.170   2.519  0.1270 -0.3195  0.3675
21757W        W35171   5.069  10.594   2.085 -0.0362 -0.0153  0.1103
21758W        W35172   2.477   1.351  14.706  0.1994  0.1623  0.3176
21759W        W35173  16.025   1.410  13.781 -0.0189 -0.1653  0.0705
21760W        W35174  17.053   7.086   6.251  0.0088 -0.1229 -0.0794
21761W        W35175   5.400  17.036   0.642 -0.1617  0.3566 -0.1385
21762W        W35176  14.828   1.066   2.631  0.0100 -0.0245 -0.1078
21763W        W35177  11.769   8.792   4.108  0.3768 -0.3482 -0.0519
21764W        W35178  14.290  12.211   1.182 -0.0610 -0.4612  0.3867
21765W        W35179  12.063   6.989   0.003 -0.0196  0.0829  0.2152
21766W        W35180   0.127  13.012   0.856  0.0656  0.1621  0.2372
21767W        W35181  12.189  17.285  14.203  0.0269 -0.1020  0.1607
21768W        W35182  16.718  16.763  13.550 -0.0893 -0.0008 -0.0728
21769W        W35183   7.415   1.194  11.349 -0.0011  0.0018 -0.2902
21770W        W35184   4.959  12.916   1.918 -0.0831 -0.0236  0.4833
21771W        W35185   7.944   9.776  14.830 -0.2650  0.0435 -0.3239
21772W        W35186   8.265   2.721   0.739  0.0917 -0.0151  0.1881
21773W        W35187  16.075   6.791  15.812  0.0895 -0.2310 -0.4148
21774W        W35188  14.927  17.056  14.685 -0.1338  0.1620  0.2636
21775W        W35189   5.742  16.377  15.471  0.0838  0.1637  0.1748
21776W        W35190   1.661   3.787  16.150  0.0268  0.1450 -0.2224
21777W        W35191   7.113   9.661  10.932  0.0367  0.0935  0.1201
21778W        W35192  13.776   3.476  10.917  0.0631  0.0330 -0.3634
21779W        W35193   1.006  12.783  13.831 -0.0661  0.0369  0.1509
21780W        W35194  18.098   5.365   1.793 -0.0625  0.1186  0.0605
21781W        W35195  16.096   2.072   0.388  0.0832  0.0486 -0.2287
21782W        W35196   9.144   1.540  11.019  0.0593  0.0121 -0.4440
21783W        W35197  10.539   8.532   4.920 -0.3401 -0.0840  0.1435
21784W        W35198   2.056   0.753   4.650  0.1025  0.0118  0.0177
21785W        W35199  12.089   9.337   4.346 -0.2197  0.1174  0.0230
21786W        W35200   2.613   1.910  12.188 -0.3873 -0.2268  0.1860
21787W        W35201  16.240  17.710   1.153  0.1985  0.1117 -0.1339
21788W        W35202   8.490   6.068  11.355  0.3316  0.0288 -0.2129
21789W        W35203   2.738   6.091   2.087 -0.1589  0.0214 -0.2696
21790W        W35204  10.049  17.186  15.036 -0.1213 -0.2321 -0.2525
21791W        W35205   6.799  13.769  15.944 -0.1174  0.0562  0.0452
21792W        W35206   1.917   3.931  10.953 -0.0903 -0.1263  0.0824
21793W        W35207  10.404  15.366  15.135 -0.0198  0.1438 -0.1133
21794W        W35208   9.178   9.986   1.467  0.0415  0.4505 -0.0644
21795W        W35209   1.938   0.809   1.077  0.1023 -0.0173 -0.0920
21796W        W35210   4.723   4.010   3.334  0.1205  0.2318 -0.1133
21797W        W35211  10.651   1.285  12.357  0.1460 -0.1916  0.0044
21798W        W35212  12.276  17.128   0.653 -0.0491 -0.1988 -0.0245
21799W        W35213   9.795  18.217  13.456 -0.0411  0.4384 -0.0408
21800W        W35214   4.587   1.164   3.975 -0.0971  0.0600 -0.1617
21801W        W35215   9.615  12.062  13.411 -0.0323 -0.1947  0.1059
21802W        W35216   5.680   5.330   3.043  0.0640 -0.0365 -0.0544
21803W        W35217  10.511   8.904   2.204  0.1517  0.2321 -0.1558
21804W        W35218   7.179  18.195   3.378 -0.2665  0.2489 -0.1439
21805W        W35219   7.434   7.498   0.812 -0.1746  0.1879 -0.0802
21806W        W35220   8.487  16.642  14.597 -0.0377 -0.0267  0.1637
21807W        W35221   9.941   6.963  14.555 -0.0058 -0.1948 -0.1337
21808W        W35222   1.178   3.307  13.072 -0.1015 -0.0045 -0.0626
21809W        W35223   9.404   4.633  15.794 -0.1428 -0.4273  0.0084
21810W        W35224  12.073  11.759   2.299 -0.1020 -0.2525  0.1264
21811W        W35225  14.755   2.223  13.873  0.1333  0.2378  0.3101
21812W        W35226  11.098   1.333   3.333  0.1744  0.2594 -0.0940
21813W        W35227   5.213   9.971  12.581 -0.0809 -0.0992 -0.1126
21814W        W35228  14.945  11.346  13.770  0.0292 -0.3037  0.2248
21815W        W35229  17.375   4.584   1.280 -0.3391 -0.0558  0.0594
21816W        W35230  12.302  11.395  13.261 -0.0356  0.1486 -0.1329
21817W        W35231  10.437   9.763  15.043 -0.0802  0.2593 -0.0055
21818W        W35232  11.127   6.585   5.344  0.2975 -0.2214  0.2110
21819W        W35233  10.382  13.371  12.604 -0.0616 -0.4164  0.0901
21820W        W35234   5.545  16.391  14.861  0.0837 -0.3673 -0.5067
21821W        W35235   1.311  15.065   1.503 -0.1365 -0.0158  0.1059
21822W        W35236  12.892   7.795   6.223 -0.1262 -0.0377 -0.0674
21823W        W35237   4.125   0.474   6.023  0.1438 -0.4187  0.2139
21824W        W35238   1.016   3.622  15.508  0.5874 -0.0931  0.2678
21825W        W35239   5.080  16.800  12.240 -0.1062 -0.1074 -0.1113
21826W        W35240   9.461   7.258  11.929 -0.1393  0.1161  0.3134
21827W        W35241  15.811  14.003   1.120 -0.1211 -0.0777  0.1908
21828W        W35242  11.149   5.965   3.950 -0.1094  0.1001  0.1706
21829W        W35243   9.635  18.247   0.426  0.1095  0.0910  0.3287
21830W        W35244   7.258  10.146  14.088  0.2594  0.2409 -0.1395
21831W        W35245   9.157   3.249  11.740 -0.0446 -0.1189  0.0714
21832W        W35246   9.927  15.495  14.796 -0.1759  0.0795  0.0130
21833W        W35247  17.396   9.635  13.598  0.3055 -0.2735  0.1086
21834W        W35248   7.483   1.195   4.658  0.3823 -0.0613  0.1436
21835W        W35249   1.116   4.713  11.559 -0.2187  0.1587 -0.0554
21836W        W35250  16.610   0.248  13.665 -0.1591  0.1491  0.1612
21837W        W35251  15.108  10.040  14.866 -0.1513  0.2222 -0.1658
21838W        W35252   6.064  11.935   5.962 -0.7328  0.3995  0.1339
21839W        W35253   5.306   6.954  11.064  0.2715 -0.0887 -0.2608
21840W        W35254  12.468   7.569   4.670  0.1781  0.0710  0.0125
21841W        W35255  17.984   7.744  15.179  0.4244  0.0175 -0.0065
21842W        W35256  17.381  14.829   2.294 -0.0658 -0.0895 -0.0839
21843W        W35257  12.675   0.416   4.521 -0.1066  0.0234 -0.0207
21844W        W35258  18.294   3.284  14.729 -0.5913 -0.4010  0.1228
21845W        W35259  10.733  13.978   3.566 -0.1590 -0.0157  0.5381
21846W        W35260  15.021  17.689  12.717  0.3151  0.1920  0.0371
21847W        W35261  15.265   3.795   4.345 -0.0906 -0.2342  0.0100
21848W        W35262   9.011   6.530  14.671  0.0745 -0.1165  0.1980
21849W        W35263   9.296  18.216  14.544 -0.1229 -0.0908  0.2822
21850W        W35264  17.184  12.078   5.437 -0.0794 -0.2459  0.4038
21851W        W35265  14.715   5.187   4.832 -0.0053  0.1759  0.2652
21852W        W35266  16.541   8.379  12.008 -0.5048  0.1672 -0.0176
21853W        W35267   6.005  15.907  15.580 -0.0254  0.1555  0.1216
21854W        W35268  17.813   0.101   1.580  0.2467  0.0869 -0.0825
21855W        W35269  14.808  12.187   3.619 -0.2669  0.1907 -0.0483
21856W        W35270   3.048  13.339  11.512  0.0832 -0.4942 -0.1163
21857W        W35271   8.702   2.906  11.687 -0.2652  0.0809 -0.2010
21858W        W35272   1.816  12.608   3.967 -0.0965 -0.1541 -0.0343
21859W        W35273   1.452  14.819  10.680 -0.2204  0.1820 -0.0752
21860W        W35274   1.169  11.508  14.297 -0.2227 -0.1237 -0.1192
21861W        W35275   1.708   8.572  11.130  0.1909 -0.2884 -0.1681
21862W        W35276   0.649   4.692  11.746 -0.0473  0.0955  0.3208
21863W        W35277  16.555  17.040   5.141 -0.1536  0.1230  0.1569
21864W        W35278  15.274   6.553   6.075  0.1107  0.1118 -0.0234
21865W        W35279   9.522  10.628   1.481 -0.1456 -0.1141 -0.1939
21866W        W35280  10.215  14.633  10.522  0.1105  0.1232 -0.1100
21867W        W35281  11.350  13.194   1.978 -0.0043 -0.1636 -0.1940
21868W        W35282   3.401   1.630  11.547  0.3149  0.1470 -0.0507
21869W        W35283   4.966  15.378  11.014  0.2143  0.1888  0.3182
21870W        W35284   4.198   3.291   1.976  0.1107 -0.2518  0.1765
21871W        W35285  17.935   3.343   3.115  0.1901 -0.0859 -0.0905
21872W        W35286   0.086   0.163   2.677 -0.0349 -0.0857  0.0312
21873W        W35287  18.047  15.224  15.235  0.0282 -0.0561 -0.1325
21874W        W35288   2.470   1.532  11.222  0.3266  0.1498  0.0017
21875W        W35289  14.248   7.119  14.127  0.1889 -0.2243  0.4577
21876W        W35290   8.923   3.215  10.551 -0.3432  0.4504 -0.3505
21877W        W35291  17.929  11.266  10.159  0.1452  0.0978  0.3880
21878W        W35292   9.191   4.186  15.152 -0.0962  0.0923 -0.2415
21879W        W35293  13.532   0.690  10.833  0.1908 -0.2339  0.3555
21880W        W35294  16.992   9.510   5.841  0.0138  0.2823 -0.0369
21881W        W35295   6.459  12.640   4.987 -0.2628  0.3345  0.0700
21882W        W35296   2.093  10.443   9.929  0.1236  0.2257 -0.1340
21883W        W35297   0.623  15.516  13.611 -0.1579 -0.0561  0.1764
21884W        W35298   6.289  10.800  10.649  0.1946 -0.2487 -0.0029
21885W        W35299  13.268  17.901  10.180 -0.0533  0.0425 -0.0260
21886W        W35300   6.474  12.964   0.840 -0.3806 -0.1169 -0.2457
21887W        W35301   9.382  13.505   4.492  0.0141  0.2953 -0.3583
21888W        W35302   6.433  12.174   1.962 -0.1212 -0.2858  0.2193
21889W        W35303  11.905  14.356  12.127  0.0063 -0.2512 -0.1389
21890W        W35304   9.366   0.801   4.373  0.2854  0.0008 -0.0320
21891W        W35305   2.007   1.293  14.959 -0.0490  0.0149  0.0427
21892W        W35306   5.622   2.324  13.075  0.0703 -0.2392  0.1311
21893W        W35307  12.224   6.692   2.378  0.1674 -0.1651  0.1200
21894W        W35308   3.934   8.448   2.329  0.0939  0.2413  0.0739
21895W        W35309  15.411  14.729   0.695  0.0286 -0.0551 -0.2358
21896W        W35310   7.859  10.028  12.089  0.1329 -0.1029  0.0753
21897W        W35311   9.357  11.798   4.111  0.0421 -0.1623 -0.0186
21898W        W35312  13.889  12.814  15.120  0.0137 -0.1802  0.0532
21899W        W35313   5.848  12.191  14.237  0.0307  0.2763 -0.1559
21900W        W35314   1.685   7.302   5.073  0.1141 -0.2333  0.1468
21901W        W35315  11.371   0.271  12.234 -0.3775 -0.0767  0.1357
21902W        W35316  14.608  10.508  13.955 -0.1581  0.1915  0.1951
21903W        W35317  10.414  12.860  11.193 -0.0978  0.0921  0.0440
21904W        W35318   2.789   3.591   1.684  0.0533 -0.1047 -0.2809
21905W        W35319   7.716  13.714  15.032 -0.0137 -0.1963 -0.1538
21906W        W35320  13.854   2.568   1.067  0.1576 -0.1609  0.2396
21907W        W35321  10.616  10.295   4.652  0.1991 -0.1118 -0.0311
21908W        W35322   0.721  12.088  14.990  0.0357  0.0354 -0.0631
21909W        W35323  10.928   6.637   4.274  0.0152  0.0038  0.0941
21910W        W35324  10.810   5.420  13.972  0.1570 -0.0447 -0.1969
21911W        W35325   3.093   0.564  15.197 -0.3221 -0.0125  0.1726
21912W        W35326   2.857  11.056   0.859  0.0348 -0.1005  0.2362
21913W        W35327  13.187  18.058   0.033  0.4058  0.0796 -0.0620
21914W        W35328  12.818   3.307   4.697  0.0919  0.0025  0.0046
21915W        W35329  13.922   4.218  11.960  0.0365 -0.2176 -0.0161
21916W        W35330   8.055  17.732   4.319  0.0826  0.2039  0.1826
21917W        W35331  11.864   8.939   0.976 -0.0285  0.2086  0.0005
21918W        W35332  15.317  15.794  13.466  0.1336 -0.0446 -0.2176
21919W        W35333  15.622   8.879   4.508 -0.0987 -0.4462 -0.1688
21920W        W35334   4.114  17.836   2.455 -0.3282 -0.0095 -0.2417
21921W        W35335  16.710   4.635  16.024 -0.0092 -0.0038  0.0693
21922W        W35336  11.915  10.888  12.789  0.0638 -0.2168 -0.3618
21923W        W35337  11.831   3.135   1.156 -0.0938 -0.0958 -0.2946
21924W        W35338   5.415  14.878   1.970  0.0434 -0.0718 -0.1142
21925W        W35339   0.683  11.282   3.027 -0.0847 -0.1577  0.1428
21926W        W35340  11.933   2.287  16.253  0.1577  0.3079 -0.4814
21927W        W35341   2.182   1.895   2.961 -0.1303  0.1229 -0.0094
21928W        W35342  14.321   7.051   0.512  0.1727  0.2956  0.0434
21929W        W35343  11.879  18.172   0.314  0.0250  0.1512  0.1600
21930W        W35344   1.044   1.828   3.578  0.0062  0.2650 -0.2217
21931W        W35345  12.554   2.403  13.637  0.2340  0.1694 -0.0116
21932W        W35346  11.243   4.724   5.144 -0.3143 -0.1129  0.1065
21933W        W35347  17.086   1.962   5.584 -0.1173 -0.1189 -0.0558
21934W        W35348   7.770   3.326  12.328  0.0107  0.1951 -0.1591
21935W        W35349   6.878  13.354  10.341  0.3167 -0.1080 -0.0488
21936W        W35350  13.299  12.150  10.769  0.1285 -0.4661 -0.1617
21937W        W35351  13.029  17.933  12.070  0.1730 -0.2115  0.2014
21938W        W35352   4.897  15.569   2.383  0.0610 -0.0998  0.0187
21939W        W35353   6.653   8.396  11.210  0.1268  0.0758  0.0753
21940W        W35354   5.382  13.045  11.172 -0.1843  0.0649 -0.2998
21941W        W35355   8.265   8.629   1.040  0.1640 -0.0675 -0.1797
21942W        W35356  16.121  12.681  11.682  0.0957 -0.0159  0.1433
21943W        W35357  13.167   5.316  14.851  0.0100 -0.0127 -0.3345
21944W        W35358   3.386  14.014   4.751  0.0328 -0.2296 -0.2683
21945W        W35359   1.238  16.847  14.240 -0.0383  0.0915  0.0625
21946W        W35360  15.730   8.961  13.361 -0.1082 -0.1571 -0.1867
21947W        W35361  15.450  17.740  15.287  0.1508 -0.2171 -0.1626
21948W        W35362  10.208   4.309  11.612  0.3721  0.0927 -0.3363
21949W        W35363   2.303   6.448   1.344 -0.0546 -0.2040 -0.0494
21950W        W35364  14.678  17.042   2.674 -0.0865 -0.0620  0.5917
21951W        W35365  10.133  13.173  11.870 -0.0515  0.3412  0.0079
21952W        W35366  16.533  17.785   3.414  0.0361  0.1402  0.1143
21953W        W35367   1.941   7.615  14.562 -0.0699  0.0059 -0.1732
21954W        W35368   1.878  18.271  10.056  0.2216  0.0873  0.6037
21955W        W35369  11.326  16.792  13.967 -0.0614 -0.2057 -0.0372
21956W        W35370   0.297   2.985  15.562  0.1628 -0.1950  0.0161
21957W        W35371  16.078  14.746  16.019 -0.0229 -0.0281  0.0268
21958W        W35372  11.687   9.550   2.463 -0.0621 -0.1311 -0.0844
21959W        W35373  10.343  15.747  14.834 -0.0306  0.2558 -0.1147
21960W        W35374  14.989   4.239   4.607  0.1045  0.2137  0.0297
21961W        W35375  17.799   3.093   4.922  0.0093 -0.1024 -0.0429
21962W        W35376  16.443   2.397  13.433 -0.4843 -0.1162  0.0624
21963W        W35377   2.975   8.422   3.785  0.1305 -0.1828 -0.3277
21964W        W35378  17.904   3.191  13.215  0.2016  0.0871  0.0370
21965W        W35379  12.516   1.872   3.056 -0.1478 -0.3412  0.2002
21966W        W35380   6.066   7.093   2.857 -0.1742 -0.1126  0.0368
21967W        W35381   9.213   8.444   0.333 -0.2221  0.5798  0.1145
21968W        W35382  12.259   3.347  12.503  0.0324  0.4886 -0.0187
21969W        W35383   6.568   4.367   5.095  0.2194  0.0847  0.0383
21970W        W35384  14.860  17.089  10.452  0.1124  0.1017  0.3289
21971W        W35385  12.837   5.218  12.906  0.0030  0.1348 -0.0865
21972W        W35386  17.232   4.893   2.284  0.0315  0.1236  0.1111
21973W        W35387  13.112  14.622  14.566 -0.0015 -0.3113  0.2935
21974W        W35388   1.487  17.899  15.523  0.1248 -0.0094 -0.2140
21975W        W35389   2.574   5.643   3.553 -0.0240  0.4413  0.2691
21976W        W35390   9.034  13.131   4.832 -0.1800 -0.2029  0.2615
21977W        W35391  10.527  17.597  10.620 -0.1619  0.0868  0.2104
21978W        W35392  15.779   7.540   4.467  0.0317  0.2611 -0.1714
21979W        W35393   7.953   5.960  11.242 -0.0311 -0.0863  0.0866
21980W        W35394  10.453  17.496   0.383  0.0223  0.0033 -0.0938
21981W        W35395  14.677   7.941   5.459  0.1237  0.2328 -0.0748
21982W        W35396   5.196  18.433   0.025 -0.0731 -0.0838  0.2534
21983W        W35397  17.706  12.971  13.447 -0.0696 -0.0517  0.1520
21984W        W35398  11.516   1.929   5.510  0.0216 -0.0441  0.1132
21985W        W35399   4.642  10.590  11.111  0.1291 -0.3163 -0.0856
21986W        W35400  16.190   0.686   1.260  0.3255 -0.3209 -0.0286
21987W        W35401  14.339   6.050   1.116 -0.4359 -0.1222  0.0501
21988W        W35402  15.849   0.929   3.332 -0.0521 -0.0680  0.0032
21989W        W35403   4.325  10.970  14.715 -0.1488 -0.1869  0.1705
21990W        W35404  11.676   6.157   1.578  0.1596  0.2385  0.0710
21991W        W35405   6.382   0.057   1.740 -0.0828 -0.2174 -0.0850
21992W        W35406   6.059  18.368  11.628 -0.2059 -0.1272 -0.4646
21993W        W35407  18.416   7.948   4.013  0.1290 -0.1589 -0.2242
21994W        W35408  13.097  16.389  11.314 -0.6526  0.2038 -0.1003
21995W        W35409  11.221   9.091   0.296 -0.0129 -0.0618  0.1569
21996W        W35410   7.663  17.199  13.680  0.4168  0.0393 -0.1210
21997W        W35411  16.631  12.779  12.787  0.1890  0.3031  0.1060
21998W        W35412   9.556  17.790  14.552 -0.0354  0.4077 -0.0635
21999W        W35413   2.759  12.892   1.008 -0.4185 -0.1531  0.1477
22000W        W35414  11.088  18.058   0.705  0.1321  0.2076  0.1098
22001W        W35415   1.193   6.946  13.610 -0.0439  0.0182  0.0522
22002W        W35416   6.879   1.206  16.255  0.0555 -0.0039 -0.3003
22003W        W35417   8.970   4.612  12.999  0.0798  0.4399  0.0016
22004W        W35418  17.540  13.955  15.907 -0.0838 -0.0045  0.1252
22005W        W35419  13.788   8.186  11.587  0.1020  0.1902 -0.1344
22006W        W35420   3.942  15.931   5.809  0.3027  0.3179  0.0913
22007W        W35421   9.939  14.870   5.510 -0.0390  0.2107  0.3353
22008W        W35422   4.917   3.627   5.062 -0.3112  0.0475 -0.0585
22009W        W35423  15.476   1.675   1.367  0.0559  0.3107  0.1603
22010W        W35424   7.833   7.368   5.023 -0.3386  0.2464 -0.3313
22011W        W35425  12.280   1.598  11.450 -0.0622  0.3427  0.1220
22012W        W35426  14.844  13.403   5.856  0.1373 -0.0203 -0.0928
22013W        W35427   6.160  18.125  13.830 -0.3047 -0.0665  0.0533
22014W        W35428   4.428   0.142   5.117  0.0936  0.2829 -0.0437
22015W        W35429  12.506  11.673   3.762  0.0093  0.0752 -0.0084
22016W        W35430  14.970  16.677   4.076  0.0604 -0.3900  0.1955
22017W        W35431  13.632   0.838   1.697 -0.1871  0.1469 -0.0437
22018W        W35432   6.524  16.950  14.095  0.3472 -0.0778  0.1361
22019W        W35433   9.765  12.976  14.459  0.2760  0.0254 -0.0137
22020W        W35434  18.293   3.704   4.589  0.0594  0.2572  0.0868
22021W        W35435  10.456  12.966   1.812  0.0114 -0.3072  0.0144
22022W        W35436   0.032  11.993  15.121  0.2526  0.2317 -0.1855
22023W        W35437  12.058  16.292  16.094 -0.1970 -0.0050  0.0956
22024W        W35438  16.458   1.367  12.524  0.1765 -0.1092 -0.1031
22025W        W35439  15.692  13.524  14.181  0.2309 -0.0579  0.1239
22026W        W35440   5.645   5.633  11.889 -0.0235 -0.1212 -0.0937
22027W        W35441  13.312  10.610   5.540  0.1169 -0.3524 -0.0210
22028W        W35442   3.661  12.285   1.322 -0.1026 -0.0379  0.0691
22029W        W35443   8.829   3.382   0.749 -0.0262  0.0702  0.1110
22030W        W35444   1.648   2.349  14.263  0.2579  0.0085 -0.0968
22031W        W35445  11.447  15.103  15.862  0.0235  0.0298 -0.3868
22032W        W35446   6.336   4.507  12.038  0.1656  0.3092 -0.0101
22033W        W35447  18.384  15.586  10.616  0.2407 -0.0067  0.0426
22034W        W35448   1.638  17.808   4.750  0.0684 -0.1819 -0.2339
22035W        W35449   1.487  12.703   3.605 -0.1933  0.2670  0.2589
22036W        W35450   9.200  12.193   4.355  0.2717 -0.1579 -0.1956
22037W        W35451  16.425   6.153   2.920 -0.1535  0.2884 -0.1018
22038W        W35452  17.392   0.089   5.940  0.2363  0.0838 -0.1670
22039W        W35453   6.033  12.960  12.888 -0.2890 -0.0375  0.1119
22040W        W35454  17.569  18.336  13.819 -0.1618 -0.0072  0.0486
22041W        W35455   3.973  17.370   5.639  0.1376 -0.1047 -0.0783
22042W        W35456  12.367  12.198  13.025  0.2368  0.1040 -0.1197
22043W        W35457  12.539   6.831  11.455 -0.0924  0.0477  0.2373
22044W        W35458   9.614  10.298   9.468  0.0871  0.1543  0.2267
22045W        W35459  11.272   8.023   5.090 -0.1174 -0.0944  0.0645
22046W        W35460   6.000  15.152   3.328 -0.0814 -0.3943  0.2597
22047W        W35461   7.089   5.335  13.577  0.1292 -0.1635  0.0204
22048W        W35462   8.173   6.154   6.180 -0.1279 -0.0297 -0.1821
22049W        W35463  12.900   8.879  13.307  0.1010 -0.0833  0.1805
22050W        W35464   6.052   6.262  14.049 -0.0701  0.1737 -0.0064
22051W        W35465   6.002   2.212  15.262  0.0605 -0.2987 -0.0409
22052W        W35466  16.256   2.086   3.012  0.2127 -0.0953  0.0254
22053W        W35467  17.090  13.314   3.718  0.2297 -0.2513  0.0756
22054W        W35468  17.725   1.314  13.832  0.0210  0.1264 -0.3034
22055W        W35469  17.110   4.638   0.840  0.0990 -0.0427  0.3009
22056W        W35470  10.153   0.054  14.603  0.0308 -0.2846  0.6693
22057W        W35471  17.529   8.244   1.565 -0.1327 -0.0210  0.1990
22058W        W35472  14.910   2.686  13.396  0.2416  0.0566 -0.1435
22059W        W35473  10.338  12.441  13.463  0.1168  0.3424 -0.1900
22060W        W35474   0.761   9.843   2.574 -0.1266  0.1160  0.0813
22061W        W35475  12.732   3.517  14.565 -0.1356 -0.0189  0.0272
22062W        W35476  16.380  10.604   4.764  0.2237  0.0865 -0.1123
22063W        W35477   1.135   9.188   0.163 -0.1411 -0.1495 -0.1739
22064W        W35478  12.751   1.683   5.261  0.2972  0.1526 -0.1689
22065W        W35479  12.674  11.787   0.371  0.0328  0.0937 -0.0396
22066W        W35480  16.010   9.152   4.716  0.2407 -0.0862 -0.1169
22067W        W35481  11.449  17.270  10.258  0.1293  0.0713  0.1761
22068W        W35482   8.903  17.622   2.130  0.0745 -0.3477 -0.0502
22069W        W35483  14.782   8.258   4.224  0.1222  0.1927  0.1037
22070W        W35484   9.129   3.608  10.847 -0.0477 -0.0577 -0.1476
22071W        W35485   5.571   7.391   4.926  0.1738 -0.0772 -0.0121
22072W        W35486  14.820  16.947   3.217  0.2080 -0.1585  0.0810
22073W        W35487   2.125  10.367   4.556  0.1099  0.4012  0.0179
22074W        W35488  17.704  13.573  12.398  0.0408  0.0115 -0.1537
22075W        W35489  13.518   3.199   3.240 -0.3365  0.3032 -0.0450
22076W        W35490   3.869  10.042  11.888 -0.0240 -0.2901 -0.1902
22077W        W35491   8.302  11.348   0.918  0.0821 -0.1372 -0.0218
22078W        W35492   9.953   6.813   0.504  0.0761  0.0284  0.1644
22079W        W35493   6.171  11.645  10.093 -0.1023  0.1653  0.1140
22080W        W35494   7.855  13.578   4.861  0.3017 -0.0125  0.1838
22081W        W35495  13.698  10.956  15.979 -0.2792  0.0892  0.2086
22082W        W35496  16.753   6.703  13.712  0.2184  0.1360  0.1318
22083W        W35497   4.505  11.399   5.478 -0.1609  0.1889  0.0734
22084W        W35498  17.081   6.512   4.684 -0.1723 -0.2255  0.0920
22085W        W35499   0.801  15.825   2.674  0.0729  0.0597  0.1890
22086W        W35500  16.909   9.521   3.529 -0.2963 -0.0649  0.0196
22087W        W35501  12.831   0.458   0.990  0.1584  0.0176  0.2131
22088W        W35502   0.096   6.425  15.327 -0.1860  0.0274  0.0542
22089W        W35503   8.405   3.301  11.321 -0.0016  0.1133 -0.0388
22090W        W35504   5.596   1.194  11.374  0.2190 -0.1937 -0.0972
22091W        W35505   0.158   6.258  13.430 -0.2810  0.0026  0.2846
22092W        W35506   9.409  10.592   0.425  0.0331  0.0378 -0.0629
22093W        W35507   6.072  14.586   0.151 -0.1725  0.0451  0.0525
22094W        W35508  12.865  11.188  14.273 -0.0322  0.0416 -0.0086
22095W        W35509  11.871  14.358  16.169 -0.1051  0.1656  0.3519
22096W        W35510   3.779   1.377  16.067  0.4259  0.1579 -0.0120
22097W        W35511  17.926   0.571   3.335 -0.0355 -0.3147 -0.0716
22098W        W35512  10.966   9.430  10.032 -0.0286 -0.1600  0.0117
22099W        W35513  13.253  13.863  11.232  0.3155  0.2369  0.0424
22100W        W35514   7.378   7.373  14.864 -0.1577  0.1265 -0.1943
22101W        W35515   2.470   9.411  11.394  0.3261  0.1437  0.3708
22102W        W35516   8.203   8.309   6.071 -0.0439 -0.2933 -0.3665
22103W        W35517  15.776   7.821   5.480 -0.1571 -0.2866 -0.2242
22104W        W35518  13.846   9.856   4.765 -0.0068  0.0007  0.1140
22105W        W35519  17.708   2.610   2.665 -0.0799  0.3445 -0.0251
22106W        W35520   6.083   2.933  13.514  0.2231  0.3042 -0.1760
22107W        W35521   6.683   2.351   5.655  0.0374  0.0617 -0.1485
22108W        W35522  16.105  18.057  12.431 -0.2748 -0.4029  0.0532
22109W        W35523  14.829   9.765   5.201 -0.1420  0.0473 -0.0460
22110W        W35524  17.305   1.935   2.176  0.3860  0.1544  0.1715
22111W        W35525  11.824  17.045  12.509  0.0491 -0.2532  0.1402
22112W        W35526   7.677   6.662  11.629 -0.2176  0.0512  0.0382
22113W        W35527  11.450  15.268  14.288  0.0245  0.2142  0.0449
22114W        W35528  13.357   4.220   2.594  0.2332 -0.1410 -0.1470
22115W        W35529   8.131   7.164  13.596  0.1709  0.1513  0.0911
22116W        W35530   1.899   6.908   3.200  0.0125  0.0459 -0.0006
22117W        W35531  18.424   5.779  13.632  0.0647 -0.0402  0.2025
22118W        W35532  15.867  14.210  11.387 -0.0257  0.0112 -0.1729
22119W        W35533  15.538   7.199  12.021  0.1689  0.3224  0.1338
22120W        W35534  13.192  16.289  13.132  0.3136 -0.0254 -0.0396
22121W        W35535   9.697   1.897  11.525 -0.0074  0.0508 -0.0312
22122W        W35536  13.210  13.547  13.302  0.1579 -0.0618  0.2061
22123W        W35537   8.287   5.207   5.721  0.1185  0.0676  0.2581
22124W        W35538  13.834   6.850   2.776 -0.3268  0.0040 -0.0096
22125W        W35539   9.579  13.582  10.014 -0.0026 -0.1329 -0.1581
22126W        W35540  10.205  17.964   3.606 -0.0413  0.1173 -0.1172
22127W        W35541   7.304  17.527  11.088  0.0697  0.0917 -0.5354
22128W        W35542  16.522   7.229   5.003 -0.1766  0.2176 -0.0381
22129W        W35543  13.122   6.354  15.593  0.4805 -0.0469 -0.0028
22130W        W35544  15.845   5.288   4.493  0.1505  0.6867 -0.0621
22131W        W35545  15.620  14.035  14.449 -0.0873 -0.4448 -0.0875
22132W        W35546  10.890   8.750  12.818 -0.2950  0.0055  0.0842
22133W        W35547  18.252   3.327   0.861 -0.1791  0.2109  0.1241
22134W        W35548  11.658  14.541  13.582  0.0475 -0.1573  0.0824
22135W        W35549  16.535  15.371  11.531 -0.0953  0.0286 -0.1005
22136W        W35550  12.778   1.149  14.171 -0.0219  0.0320 -0.1752
22137W        W35551   4.205   3.122   4.217  0.3475  0.0608  0.1087
22138W        W35552  14.122   8.767   5.779 -0.1861 -0.3824 -0.3204
22139W        W35553   0.532   8.982   1.549 -0.2594 -0.1863  0.1261
22140W        W35554  12.486  13.573  15.402  0.2272  0.0938  0.0703
22141W        W35555  13.101   3.244   5.069 -0.2495  0.0778 -0.2622
22142W        W35556  14.291   4.980  13.962  0.2133 -0.1870  0.0200
22143W        W35557   9.511   6.669  10.328 -0.1780  0.2150 -0.1776
22144W        W35558  17.990   5.052   2.398 -0.1877 -0.3686  0.0796
22145W        W35559   1.972  17.230   3.354  0.0074 -0.2177 -0.3751
22146W        W35560  12.555  12.491  10.054  0.0228  0.1943 -0.1191
22147W        W35561  17.141  11.083  15.712  0.0317  0.1407  0.2848
22148W        W35562   4.950   5.339  11.309 -0.2166 -0.2943 -0.2770
22149W        W35563  13.102   4.962  14.349  0.1318 -0.1235 -0.0200
22150W        W35564   8.089  12.013  12.669  0.1856 -0.0468 -0.1483
22151W        W35565  18.004   7.985  11.689 -0.0376 -0.5076 -0.2188
22152W        W35566   2.932   1.857  14.399  0.2440 -0.2825  0.0312
22153W        W35567  15.387   0.970  13.264  0.0026  0.0851 -0.0243
22154W        W35568   0.507   2.445   3.013  0.2309 -0.1118 -0.0160
22155W        W35569   3.884   5.396   1.959 -0.0760  0.3428 -0.1005
22156W        W35570   1.513   0.553  14.182 -0.3987  0.0251 -0.1380
22157W        W35571  13.602  15.686  10.906  0.2973 -0.0646 -0.2628
22158W        W35572  13.109   2.625   5.684  0.0164  0.3564 -0.0556
22159W        W35573   8.174  11.639  10.372 -0.1452 -0.0334 -0.3035
22160W        W35574  15.056  17.538   5.685  0.0467 -0.2765  0.0742
22161W        W35575   1.212   3.311  12.271  0.0384  0.0445 -0.0079
22162W        W35576   2.975   0.194   3.079  0.0663 -0.0329  0.3695
22163W        W35577  15.661   0.804   3.816  0.1195  0.0910  0.1701
22164W        W35578  11.378  12.181   9.859 -0.0255  0.2856  0.0603
22165W        W35579  11.011   0.136  10.445 -0.2266  0.2877  0.1356
22166W        W35580   8.953   1.773  13.215  0.2581 -0.0836 -0.1577
22167W        W35581  14.127   7.150   4.778  0.2466 -0.1590 -0.2257
22168W        W35582   2.343   9.545   1.713  0.1417  0.0678 -0.1840
22169W        W35583   0.928   1.306   3.395  0.0592  0.1320  0.0340
22170W        W35584  13.048   7.752  12.151 -0.4051  0.1978  0.3425
22171W        W35585  11.932   9.554  13.617  0.3847  0.1036  0.0299
22172W        W35586   6.090   5.980   6.341  0.1956  0.0461  0.1560
22173W        W35587  17.549   8.052  11.468  0.1428 -0.2722 -0.0923
22174W        W35588   8.492   3.687   4.077  0.0393  0.2077 -0.2084
22175W        W35589  14.996   7.994   1.857 -0.1792 -0.0509  0.0139
22176W        W35590  12.369  13.324   5.410 -0.0699 -0.0417 -0.0406
22177W        W35591   3.212   3.674  12.821 -0.0953  0.0413 -0.0857
22178W        W35592   1.790   1.589   2.736  0.2042 -0.0352 -0.0531
22179W        W35593   5.636   7.734   3.898  0.1270  0.2751  0.2277
22180W        W35594   1.843  12.830  10.592 -0.1487  0.2359 -0.0627
22181W        W35595  15.816   1.663  14.747 -0.5158  0.1941 -0.0390
22182W        W35596   7.410   5.986   2.897 -0.2311 -0.1156  0.1729
22183W        W35597  16.675   2.145   0.284  0.0563  0.1377 -0.0993
22184W        W35598   4.087   2.254  10.874 -0.1061  0.3291 -0.1608
22185W        W35599   8.572   7.345  15.836 -0.1601  0.2090  0.0129
22186W        W35600   7.355   2.253  10.787 -0.3285  0.0376 -0.2243
22187W        W35601  12.817  16.165   0.312  0.0403 -0.1208  0.1470
22188W        W35602  12.628   1.368   4.403  0.1569 -0.0152  0.0784
22189W        W35603  11.099  17.920  15.680 -0.2676 -0.2536 -0.0152
22190W        W35604   8.873   0.715  12.107 -0.2138  0.0086  0.1523
22191W        W35605   0.510  14.141   0.533  0.1885 -0.3694  0.1444
22192W        W35606  11.778  14.076   1.838  0.1509 -0.0367  0.1082
22193W        W35607   7.983   8.447  10.096  0.2443  0.1260  0.1027
22194W        W35608  10.164  15.308  10.258 -0.2554  0.0845  0.0241
22195W        W35609  13.990   4.404   1.349 -0.0759 -0.0596  0.0571
22196W        W35610   2.441   6.694   0.944 -0.1658 -0.0895  0.0007
22197W        W35611   0.598   3.884  15.308  0.1244  0.0299 -0.1156
22198W        W35612  12.070  15.093  15.410  0.2444 -0.0273 -0.5732
22199W        W35613  15.486  12.106  11.252  0.0234 -0.1555 -0.2390
22200W        W35614  16.340  14.227   0.952 -0.3482  0.0014  0.0464
22201W        W35615   1.457  14.136   1.420  0.0409 -0.0377  0.1124
22202W        W35616   4.435  11.250  11.875  0.0257 -0.0640 -0.1402
22203W        W35617   9.262  14.222   0.395  0.0360 -0.0702  0.1501
22204W        W35618   4.348  17.647  14.219  0.1200  0.2089  0.0707
22205W        W35619   8.292  12.176   1.264 -0.1205  0.2391 -0.0248
22206W        W35620   5.365  16.848  14.901 -0.0047  0.0089  0.2103
22207W        W35621  17.536  15.369  16.072 -0.4835  0.2378 -0.2839
22208W        W35622   2.788  11.559   2.582  0.1118  0.1694  0.1484
22209W        W35623  11.305  18.274  13.756  0.2960  0.0677 -0.0272
22210W        W35624  12.483   2.795  12.403 -0.2169 -0.2104  0.0674
22211W        W35625   1.781  11.950   1.136 -0.3581  0.0511 -0.0586
22212W        W35626   8.902  10.751   0.625  0.0073 -0.0230  0.0647
22213W        W35627  16.377   6.267  14.503 -0.1104  0.0415  0.3605
22214W        W35628  13.410   2.209   3.498 -0.1405  0.1764 -0.0330
22215W        W35629   1.319  11.073   4.649 -0.1709  0.0840  0.2808
22216W        W35630   4.851  15.374  10.202  0.0708  0.0037  0.0985
22217W        W35631   6.285  14.611  15.060 -0.0545 -0.3392  0.0790
22218W        W35632   9.423   5.185  15.548 -0.1099  0.2009 -0.0068
22219W        W35633  15.811  10.154   4.370 -0.0397  0.1113 -0.2123
22220W        W35634   1.710  16.243   1.364  0.0757 -0.3018  0.0137
22221W        W35635  12.063  12.738   3.289  0.3191  0.1250 -0.2553
22222W        W35636  13.753   3.544  14.336 -0.1513 -0.0764 -0.2815
22223W        W35637   8.621   2.831  10.424 -0.0249  0.2150 -0.2740
22224W        W35638  13.657  17.070   1.111  0.2334  0.0712  0.3183
22225W        W35639  11.500   1.579   2.384 -0.0637 -0.1067 -0.1047
22226W        W35640  17.900   1.407   6.495  0.0288 -0.1194  0.1900
22227W        W35641   6.853  10.358   1.816 -0.2968  0.1697  0.1689
22228W        W35642   9.296  12.992  10.349 -0.2619 -0.0074  0.2877
22229W        W35643  11.677   1.553  12.584 -0.3054  0.3812  0.1411
22230W        W35644  17.466   4.339   1.980 -0.3054  0.0876 -0.0240
22231W        W35645   9.675   8.038  11.512 -0.1782 -0.0524  0.1062
22232W        W35646   8.295  12.410   3.746  0.0913  0.2037  0.3485
22233W        W35647   3.680  16.337  16.150  0.0342  0.0682  0.1938
22234W        W35648   5.064   4.179   1.633 -0.0625 -0.1852 -0.0698
22235W        W35649  14.137   0.247   1.722  0.0360  0.0078  0.1253
22236W        W35650   2.398   2.115   4.968 -0.1848 -0.1084  0.0593
22237W        W35651   9.794  16.850  15.301 -0.0549  0.0190 -0.1107
22238W        W35652   1.467   7.188  13.288 -0.1782 -0.3843  0.0026
22239W        W35653   2.262  10.368  14.997 -0.1266  0.0909 -0.0579
22240W        W35654   5.053  11.766   2.876  0.1019  0.1111 -0.0427
22241W        W35655  16.257  11.757  12.079 -0.2661 -0.1023  0.1409
22242W        W35656   0.958   0.760   6.113  0.0509 -0.0718  0.2056
22243W        W35657  16.828  16.013  12.403 -0.0327  0.0456 -0.2050
22244W        W35658   2.995  16.774   5.040  0.0932  0.2172  0.0316
22245W        W35659  11.225  10.143  11.899  0.2362 -0.0821  0.2193
22246W        W35660  12.395   6.369   6.497  0.2919  0.0321 -0.2315
22247W        W35661   3.840   2.273   3.000 -0.0052 -0.0983  0.1727
22248W        W35662  11.797   3.822   2.397  0.0659  0.0505 -0.4589
22249W        W35663   7.780   7.170   1.827 -0.0344  0.2294 -0.1859
22250W        W35664   3.933  16.010   0.826 -0.0064  0.3017  0.0041
22251W        W35665   3.906   1.491  14.701 -0.2549  0.0913  0.1948
22252W        W35666  11.607  10.417   0.915  0.0461 -0.1216 -0.1151
22253W        W35667   5.233  11.215   4.457 -0.0298 -0.2082  0.1060
22254W        W35668  15.725   6.146  12.006 -0.0280 -0.2321  0.0266
22255W        W35669   0.865   1.295  15.739  0.1233 -0.1599  0.1803
22256W        W35670   5.356   0.680   5.685  0.0179  0.3846 -0.1322
22257W        W35671   4.436  10.755  12.041  0.2362 -0.4230 -0.1283
22258W        W35672   9.387   5.847   3.777  0.1105 -0.0405  0.1468
22259W        W35673   6.752  17.820   2.264  0.1240  0.2173  0.0505
22260W        W35674   3.926   3.349   1.511 -0.0949 -0.3334  0.3575
22261W        W35675   2.788   8.612  15.845 -0.2867  0.1330 -0.0109
22262W        W35676   2.436   8.891  13.618  0.0828  0.1920  0.0361
22263W        W35677   0.067   9.568  14.944 -0.0336 -0.0650 -0.1883
22264W        W35678  17.101   2.819   6.604 -0.0626  0.1227  0.2933
22265W        W35679   1.704  17.090   1.920 -0.2844  0.2081  0.2061
22266W        W35680   4.957   4.633   5.989 -0.1388  0.1824  0.4242
22267W        W35681  12.021   4.016   0.233  0.0946  0.2101  0.4927
22268W        W35682  13.446  15.803  12.819  0.1597 -0.2759  0.1551
22269W        W35683   3.197  15.918  11.326  0.0697  0.3933  0.0426
22270W        W35684  18.330   0.943  10.367 -0.0513 -0.0394  0.2688
22271W        W35685  13.475   0.070  11.664  0.3550  0.3532  0.1626
22272W        W35686  16.868  12.774  12.283  0.3238  0.0958  0.1306
22273W        W35687   3.215   1.605  13.273 -0.2357 -0.0187  0.1661
22274W        W35688   6.992  14.894  11.642  0.1838  0.1405 -0.0138
22275W        W35689  17.109  13.364   4.611  0.3256  0.1618 -0.2638
22276W        W35690   8.676   3.990  15.058 -0.4677  0.0252 -0.0007
22277W        W35691  15.512   3.615   1.275  0.0830  0.1314  0.0958
22278W        W35692   9.715   9.451  10.917 -0.1021 -0.0975  0.1466
22279W        W35693   8.541   9.420   4.924  0.0935 -0.2465 -0.1435
22280W        W35694   2.765  18.279   2.595  0.0203 -0.0861 -0.0550
22281W        W35695  12.664   0.270  11.791  0.2018  0.1556  0.1014
22282W        W35696  15.027  11.218   3.870 -0.3051 -0.2542  0.1905
22283W        W35697  17.188   3.548   5.349 -0.1493  0.2369 -0.0720
22284W        W35698  14.594  17.835   3.666  0.1585  0.1235 -0.1495
22285W        W35699   1.240   1.365   3.830  0.1631 -0.2315  0.1416
22286W        W35700  14.312   3.632   0.337  0.2863 -0.1899 -0.0441
22287W        W35701  12.940   6.532   2.744 -0.0661 -0.2105  0.1845
22288W        W35702  12.640   3.044   3.829 -0.1015 -0.2883  0.1525
22289W        W35703   2.483  13.682   4.897  0.0182  0.2199 -0.3168
22290W        W35704  10.530   6.699  16.080  0.2003 -0.0352  0.0477
22291W        W35705  10.647  10.279  12.682  0.2727  0.1538  0.0617
22292W        W35706   9.532  16.424  14.938  0.0589 -0.2336 -0.1168
22293W        W35707  13.947   5.254  14.146 -0.3118  0.0873 -0.0050
22294W        W35708  12.388   9.452   5.544  0.2858  0.1227  0.0374
22295W        W35709  17.167   1.820  12.656  0.0270 -0.1861 -0.0162
22296W        W35710   3.777  13.516  15.038 -0.0882 -0.0464 -0.0062
22297W        W35711   5.990   7.135   4.915  0.0725  0.0267 -0.4662
22298W        W35712  12.590   0.714  15.233 -0.2776  0.0546 -0.2600
22299W        W35713  10.756  16.691   2.900  0.0210  0.2617 -0.0478
22300W        W35714   1.379  18.348  16.138  0.0403  0.0422 -0.1298
22301W        W35715   7.326   7.493  15.848  0.1766 -0.1094  0.1286
22302W        W35716   7.248   0.542  15.763 -0.1436 -0.1907 -0.1319
22303W        W35717   0.545   0.034   5.248  0.0318  0.2100 -0.1381
22304W        W35718  11.908   3.071  10.279  0.1417 -0.3249 -0.0271
22305W        W35719  13.087  15.500  12.783  0.2615 -0.2316 -0.5821
22306W        W35720  12.279   1.962  13.752  0.3249  0.1997  0.0870
22307W        W35721  18.125  16.638   3.579 -0.0828  0.2353 -0.0020
22308W        W35722  17.510   3.430   2.870 -0.2352 -0.1332  0.0000
22309W        W35723  15.474   0.206   3.091  0.2887 -0.2197 -0.0668
22310W        W35724  12.754   3.752   2.174 -0.1715  0.4042  0.0194
22311W        W35725   4.592   9.340   4.594 -0.0066  0.1862 -0.0521
22312W        W35726   8.094  11.995  12.148  0.0336 -0.0471 -0.0043
22313W        W35727   5.866   5.071   0.051 -0.0113 -0.3204 -0.0198
22314W        W35728  13.406   7.188   5.711 -0.1195 -0.0492 -0.1711
22315W        W35729   7.959  15.513   4.080 -0.3579 -0.1357 -0.1414
22316W        W35730  17.127   3.812  13.086 -0.0572  0.2333  0.0391
22317W        W35731  15.164  15.603   4.245  0.0393 -0.0231 -0.1213
22318W        W35732   0.394   3.907   4.771 -0.0218 -0.1949 -0.2003
22319W        W35733  13.620   7.696  11.458  0.3373  0.0332  0.0262
22320W        W35734   0.161   6.031   4.189 -0.2775 -0.2575 -0.1268
22321W        W35735  13.191   8.124   4.559 -0.0271  0.0226  0.0628
22322W        W35736   8.598   6.604   5.065 -0.0162 -0.0745  0.0424
22323W        W35737  15.186   9.532  14.700 -0.2371 -0.0120  0.1470
22324W        W35738  11.884  15.909   1.701  0.1370  0.1921 -0.0254
22325W        W35739   3.677   0.739   4.815 -0.0967 -0.0256 -0.3479
22326W        W35740   5.893   9.573   0.789 -0.0108 -0.1034  0.0812
22327W        W35741   5.280   1.698  12.205 -0.0024 -0.0939  0.1352
22328W        W35742   6.662  14.761   0.973 -0.3126 -0.0687  0.2183
22329W        W35743  15.414  13.203   0.193 -0.1228 -0.1389  0.2846
22330W        W35744  15.105  14.929  11.341  0.2986  0.1460 -0.2429
22331W        W35745  16.630   1.777   5.808 -0.0046 -0.0730  0.0824
22332W        W35746   2.064  17.413   1.929  0.3103  0.0286 -0.1067
22333W        W35747  16.713   1.211   0.782 -0.2412 -0.0331 -0.0199
22334W        W35748  11.875   4.117  12.974  0.0811 -0.1358 -0.0239
22335W        W35749   4.398   9.520  13.002  0.1289  0.0032 -0.1143
22336W        W35750  16.264  13.629  15.224  0.0395  0.0368  0.0000
22337W        W35751   2.247   4.729  14.142 -0.1548  0.0938  0.2632
22338W        W35752   0.645   9.752  16.142  0.2047  0.0620 -0.0884
22339W        W35753  10.750   7.297   3.149  0.0349 -0.1211  0.4408
22340W        W35754  14.634   5.238   4.361 -0.2954  0.1085 -0.0383
22341W        W35755  16.692  16.151   5.213 -0.0706  0.1060 -0.1187
22342W        W35756   8.259   5.511  12.112 -0.0018 -0.2168 -0.2428
22343W        W35757  12.178   6.984  14.835 -0.2413 -0.0640 -0.2085
22344W        W35758  15.431   0.326  13.963  0.2336  0.1241 -0.2057
22345W        W35759   5.847   6.726   5.620  0.2118 -0.1830  0.1004
22346W        W35760   0.476   6.273   2.922  0.0229 -0.0002  0.0389
22347W        W35761   5.546  10.576   0.928  0.0278  0.0955  0.2362
22348W        W35762  16.841  14.872  11.480  0.0304 -0.0883  0.0393
22349W        W35763  14.235   8.356   4.262 -0.1166  0.0154 -0.0549
22350W        W35764  18.132   3.992  12.248  0.1746 -0.1192 -0.0041
22351W        W35765  17.313  16.983   2.577 -0.1527  0.3024 -0.1535
22352W        W35766  16.698   7.459  15.570  0.0822 -0.1228 -0.0708
22353W        W35767   9.066  18.267   0.402 -0.4775  0.1662 -0.2619
22354W        W35768  13.723  16.861  16.073  0.2497 -0.0219  0.0980
22355W        W35769   0.668   3.429   3.961 -0.2106 -0.1309 -0.0529
22356W        W35770  16.539   9.297   4.607  0.0624 -0.0660  0.1396
22357W        W35771  14.709  10.285  14.427  0.3831 -0.2272  0.3655
22358W        W35772   9.740  10.496   4.741  0.1440 -0.0175  0.2070
22359W        W35773  13.434   0.587  12.098  0.0689  0.2413 -0.1324
22360W        W35774  13.067  15.509   1.143 -0.2309  0.1542 -0.1221
22361W        W35775   6.540   4.937  14.961 -0.0432 -0.0619  0.1578
22362W        W35776  15.546  13.772   0.710 -0.1874  0.1285  0.0478
22363W        W35777  10.460   5.834   4.857 -0.1318  0.0733 -0.1823
22364W        W35778   7.583  15.375  10.439  0.2354 -0.0394  0.2343
22365W        W35779   6.546  11.490  14.214 -0.1021 -0.2013  0.2538
22366W        W35780   1.310   9.732  13.022  0.2264 -0.0218 -0.1624
22367W        W35781  15.882   8.151   2.153 -0.3843 -0.0271 -0.0137
22368W        W35782  18.405   9.376   0.508  0.0195  0.1100 -0.1604
22369W        W35783   9.305   2.472   1.891  0.2149  0.3495  0.1142
22370W        W35784   8.140   6.827   2.773  0.0095  0.1212 -0.1326
22371W        W35785  11.458   3.829   0.869 -0.0394 -0.1287  0.4254
22372W        W35786  13.909   0.809   0.000 -0.2712  0.0877 -0.0574
22373W        W35787   7.753  13.011  11.859 -0.3695 -0.1170  0.0708
22374W        W35788   9.077  13.804   1.056 -0.0363  0.1272  0.2727
22375W        W35789   7.807   7.742  12.948  0.0255  0.1047 -0.3377
22376W        W35790  12.055   6.055   0.349 -0.2823 -0.0272  0.0663
22377W        W35791  13.462   8.067  16.075 -0.1085  0.3567 -0.1218
22378W        W35792   2.106   9.371   0.748 -0.0453 -0.0592 -0.1005
22379W        W35793  12.488  10.121  16.124 -0.0146 -0.1068 -0.1212
22380W        W35794  16.039   4.958   1.615 -0.0516 -0.0893 -0.2581
22381W        W35795  12.000  17.483  12.184 -0.1197  0.2532 -0.1292
22382W        W35796   7.234   5.901   0.957 -0.1724  0.1173 -0.4957
22383W        W35797   4.787  11.161  12.331  0.1021  0.3201 -0.0715
22384W        W35798   1.600  16.285   3.774 -0.1508  0.2433 -0.1369
22385W        W35799   1.419   1.990   1.975 -0.0798 -0.4325 -0.1892
22386W        W35800  14.506   5.712   2.893  0.1593  0.3370 -0.1180
22387W        W35801  14.757  17.461   4.647 -0.1348 -0.1272  0.1232
22388W        W35802  14.738   7.126  16.002  0.1831  0.0041  0.1342
22389W        W35803   2.988   3.756  14.429  0.0353  0.1995 -0.0593
22390W        W35804   1.333  17.865   1.621  0.0482  0.1084  0.2040
22391W        W35805   4.906  16.880   4.430 -0.3162 -0.1921 -0.0934
22392W        W35806   7.098   1.179   2.954 -0.1213 -0.1742  0.4596
22393W        W35807   4.673  18.068   2.768 -0.1087 -0.0435  0.2186
22394W        W35808  15.806   1.661   5.357 -0.2856  0.0794 -0.1634
22395W        W35809  15.166   4.245   5.512 -0.3049 -0.0256  0.0267
22396W        W35810  11.804  17.787  15.068  0.1268  0.1719  0.0053
22397W        W35811  16.379  16.808  10.330  0.0513  0.0953  0.3008
22398W        W35812  14.553   4.030   1.912 -0.0598 -0.4355 -0.1091
22399W        W35813   3.565   8.900  15.503  0.0886 -0.1837  0.0831
22400W        W35814   2.001  18.207  11.798  0.0391  0.2589 -0.2076
22401W        W35815   9.268  18.079   0.840 -0.0650 -0.1693  0.0070
22402W        W35816  10.522   5.934   3.768 -0.1806  0.1125  0.1441
22403W        W35817  15.462   4.432   4.400  0.1868  0.2948 -0.1377
22404W        W35818  14.932   7.064   3.288  0.0663  0.2550 -0.1149
22405W        W35819   7.211  14.760  13.767 -0.0823 -0.2225  0.3519
22406W        W35820   0.660  16.751  15.379 -0.0125 -0.0139 -0.2278
22407W        W35821   0.792  13.536   2.564 -0.1210 -0.3046  0.1382
22408W        W35822  11.455   4.600   1.916  0.0965 -0.0002  0.0745
22409W        W35823  13.666   5.136   3.362  0.0782 -0.0460  0.1728
22410W        W35824   5.711  16.344  14.332  0.1402 -0.0172  0.0356
22411W        W35825   3.193   5.302   5.008 -0.0447 -0.0916 -0.0015
22412W        W35826  13.778   3.694   4.917 -0.4740  0.1927 -0.5554
22413W        W35827   8.883   0.104   0.808  0.2497  0.1591 -0.2907
22414W        W35828  10.856   6.479   5.725 -0.2234  0.2948  0.1697
22415W        W35829   2.369  17.038  14.879 -0.1484 -0.2505  0.2577
22416W        W35830  13.914  14.328   1.655 -0.2067 -0.1943  0.0024
22417W        W35831   3.188   4.728  13.670  0.1322 -0.2277  0.1388
22418W        W35832   6.057  10.266  13.103  0.3050 -0.0718 -0.0007
22419W        W35833  13.063   6.396   0.868 -0.1292  0.2346  0.1028
22420W        W35834   4.967   9.339   0.840 -0.1420 -0.1700  0.1474
22421W        W35835  13.344  14.384  11.268 -0.2008 -0.0469  0.2473
22422W        W35836   9.813  17.558  14.177  0.1218 -0.2322 -0.0154
22423W        W35837   5.996  14.272  11.191  0.1019 -0.0270 -0.2086
22424W        W35838   3.185  14.987   0.209 -0.1628  0.5554  0.0834
22425W        W35839  15.088   8.777  11.686  0.0332  0.1212 -0.0063
22426W        W35840  17.121  13.445  14.601  0.1932  0.0101 -0.0012
22427W        W35841   5.183   0.590   4.507 -0.0105  0.4065  0.0723
22428W        W35842   4.582  13.325  13.256 -0.0389 -0.2203 -0.1809
22429W        W35843   1.106   5.013  14.611 -0.0715  0.0366 -0.1404
22430W        W35844   2.897  12.399   3.126 -0.1160 -0.1075  0.0017
22431W        W35845   6.918  11.344  14.570  0.1244 -0.0911 -0.1724
22432W        W35846   1.392   8.122   2.850 -0.0652  0.2325 -0.1945
22433W        W35847  17.598  13.895   1.240 -0.3525  0.2470 -0.1774
22434W        W35848   7.028   5.464   3.331  0.1044 -0.1263 -0.2204
22435W        W35849   0.823   8.329  15.731  0.0656 -0.1346  0.0650
22436W        W35850  12.481  14.364   4.015 -0.0375  0.0671  0.0373
22437W        W35851   8.903  10.920  11.130 -0.0671  0.0458  0.0272
22438W        W35852   2.694   7.559  15.080 -0.2645  0.1437 -0.0707
22439W        W35853  12.620  11.407   2.117  0.1418 -0.0263 -0.0353
22440W        W35854   9.138  14.799   0.529  0.0450 -0.2189  0.1092
22441W        W35855   6.189   1.403   3.496  0.0028 -0.0212  0.0750
22442W        W35856  12.799  14.319  15.235 -0.1224  0.0641  0.1047
22443W        W35857  11.844  11.535   5.335 -0.2878  0.0553 -0.0495
22444W        W35858   4.398  16.394  13.556 -0.1958  0.0111  0.2920
22445W        W35859  13.668   8.327   1.780 -0.1218 -0.2062  0.0039
22446W        W35860  11.226   5.969  12.779 -0.0377 -0.0546  0.1757
22447W        W35861  15.285   1.785  13.181  0.0753  0.1947 -0.0480
22448W        W35862   8.842   9.926   6.537  0.3326 -0.0230  0.0772
22449W        W35863   2.421   6.630   4.449  0.1818  0.2916 -0.1143
22450W        W35864  15.708   3.255   3.057  0.2366 -0.1474  0.0941
22451W        W35865   1.376   3.781  14.784 -0.1221 -0.0232 -0.1517
22452W        W35866   7.855  16.763   2.749 -0.1273  0.1962  0.0684
22453W        W35867  18.176   0.664   4.208 -0.0075 -0.0173  0.0350
22454W        W35868   2.463   8.928  14.402  0.2012  0.3097  0.0338
22455W        W35869   7.587   5.793  15.753 -0.2859  0.0646 -0.0143
22456W        W35870   2.342   6.530   2.867 -0.0385 -0.4405  0.0156
22457W        W35871  13.632   9.775  14.696 -0.1605  0.0446 -0.1608
22458W        W35872  13.059  16.254  14.369 -0.2118  0.1091  0.1211
22459W        W35873   8.861  12.172   5.668 -0.0534 -0.3223 -0.0715
22460W        W35874   3.373  17.958   5.442  0.0984 -0.2187  0.0702
22461W        W35875   6.361   6.427   1.773 -0.4599  0.1349 -0.0226
22462W        W35876   8.919   4.045   4.638 -0.1088  0.1436 -0.3071
22463W        W35877  15.350   1.965   2.739  0.2032 -0.1061 -0.0021
22464W        W35878  13.184  13.723  15.941 -0.1635 -0.0145 -0.0983
22465W        W35879   1.111   2.348  14.213 -0.1494  0.2276 -0.1524
22466W        W35880   2.910  13.007  12.175 -0.2618  0.2223  0.1435
22467W        W35881  14.953  13.619  10.486 -0.0994 -0.1989  0.0267
22468W        W35882  16.941  12.830  11.130 -0.0900 -0.0572 -0.0230
22469W        W35883   2.478  16.867   2.918  0.1202 -0.0366 -0.1337
22470W        W35884   4.424   1.678  14.608 -0.0654  0.2893  0.3344
22471W        W35885  13.455   0.135   1.343 -0.2933  0.1131  0.0514
22472W        W35886  13.936   3.654  14.837  0.2763 -0.0832 -0.0714
22473W        W35887  10.364   9.491  12.350  0.1685 -0.0673 -0.1603
22474W        W35888   1.545   5.834  11.490  0.0475 -0.0293  0.2991
22475W        W35889   9.292  11.676   4.666 -0.2209 -0.1511 -0.2528
22476W        W35890  16.398  16.217  14.000  0.0410 -0.4751  0.0858
22477W        W35891   0.759  14.875  11.092 -0.1413 -0.1191  0.0368
22478W        W35892   2.623  13.370   1.227 -0.2614  0.0195  0.0539
22479W        W35893   3.194  10.673  12.085 -0.1795 -0.3335  0.0274
22480W        W35894  10.772  11.452  11.375 -0.3771 -0.0936 -0.2333
22481W        W35895   7.038  17.233   3.122  0.0484  0.1005 -0.0131
22482W        W35896   2.782  17.888  13.198  0.4282  0.2548  0.0111
22483W        W35897   3.353   3.724  14.084  0.0394 -0.1125 -0.1288
22484W        W35898   4.634   3.089  14.655  0.0971 -0.0644  0.1468
22485W        W35899  16.640  18.001   0.656 -0.1764 -0.1106 -0.3386
22486W        W35900  17.553   1.031   2.483  0.1948 -0.1857  0.1279
22487W        W35901  15.043   9.247   1.352  0.0822 -0.1206  0.2695
22488W        W35902  12.400  13.574   3.646 -0.0966 -0.4710 -0.1134
22489W        W35903  17.989  13.691  13.759 -0.2235  0.0150 -0.1355
22490W        W35904   3.768  16.280   2.711 -0.3871  0.0642  0.0905
22491W        W35905  14.726  16.803   1.334 -0.0901  0.0077  0.2343
22492W        W35906   4.224   2.355  15.771 -0.1750  0.2334  0.0960
22493W        W35907   7.637  12.995   5.563  0.0471  0.0729  0.3548
22494W        W35908  18.004   2.712  15.018 -0.3072 -0.0036  0.0362
22495W        W35909  14.240   9.968  13.111  0.1385  0.0785 -0.2186
22496W        W35910   3.055   2.411  13.327  0.3208 -0.0266 -0.3213
22497W        W35911  17.957  11.342  10.775 -0.1728 -0.2200 -0.0073
22498W        W35912   5.583   1.540   1.846 -0.1798 -0.0982  0.1591
22499W        W35913  15.195  16.016   2.406  0.1567 -0.3244 -0.0865
22500W        W35914   6.028   5.208   5.147  0.0216 -0.1057  0.3660
22501W        W35915   5.552   0.293  14.831 -0.3417 -0.0144 -0.0884
22502W        W35916   4.140  15.181  13.385 -0.1762 -0.1739 -0.2500
22503W        W35917   4.420  15.372   5.309 -0.0195  0.2841  0.2030
22504W        W35918   4.594  14.054   2.779 -0.0330 -0.0108  0.0126
22505W        W35919   2.543   1.540   4.145 -0.3318 -0.2417 -0.1056
22506W        W35920   6.251  13.582   1.265  0.0845  0.1587 -0.0156
22507W        W35921   1.895   0.834  15.246 -0.2024  0.1915  0.1081
22508W        W35922  18.173   4.562   2.237  0.2389 -0.0431 -0.2281
22509W        W35923   4.252   6.686  13.505 -0.2313  0.1110 -0.0301
22510W        W35924  17.685   1.245   3.824  0.0345 -0.0490 -0.1905
22511W        W35925  17.515  12.605   2.114 -0.1956 -0.2288 -0.3220
22512W        W35926   4.075   1.365   2.669 -0.0706  0.0836 -0.0912
22513W        W35927  15.858  13.554   5.045  0.3118 -0.0091  0.1884
22514W        W35928  16.965  16.037  14.136  0.1901 -0.4006 -0.0078
22515W        W35929  17.742   0.897  11.179 -0.0122  0.1587  0.0578
22516W        W35930  10.242   9.254   5.056 -0.1659 -0.2351  0.1962
22517W        W35931   5.820  11.015  10.829 -0.1054 -0.0339 -0.0319
22518W        W35932  18.257   8.160  12.144  0.0845 -0.0023  0.1265
22519W        W35933  11.996   7.899  12.560  0.1574 -0.0132  0.1787
22520W        W35934   5.215   4.729  16.057  0.3773  0.3185 -0.1447
22521W        W35935   9.099   4.989   4.217 -0.3737 -0.5831  0.1283
22522W        W35936   9.437   0.177  12.070 -0.0885  0.0111  0.0142
22523W        W35937   3.651   0.416   1.176  0.2998  0.1295 -0.1222
22524W        W35938  12.079  11.193  12.104 -0.0984  0.0538  0.0418
22525W        W35939  11.659  15.457  15.276  0.0955  0.3039 -0.1607
22526W        W35940   1.509  18.385  14.056 -0.0496 -0.2882  0.0371
22527W        W35941  18.290   7.268   4.632 -0.5164 -0.0340 -0.0995
22528W        W35942  14.625   0.957  14.947  0.1604 -0.0061  0.0035
22529W        W35943   9.193   9.004  15.893 -0.2862  0.4087 -0.2259
22530W        W35944   2.820   1.737   5.035 -0.1998  0.0428 -0.0664
22531W        W35945  10.954   0.461   2.682  0.2135  0.0047 -0.0424
22532W        W35946  10.045  13.433  15.232 -0.2526  0.0903 -0.1284
22533W        W35947  14.545   4.614  15.875  0.0675  0.2932  0.0951
22534W        W35948   4.482   7.296   5.447  0.1831 -0.1520  0.1271
22535W        W35949   1.733   1.403  11.716 -0.0133  0.0428 -0.0648
22536W        W35950  15.786  12.406  11.394 -0.2364  0.0948 -0.0412
22537W        W35951  15.525   6.660   5.597  0.1815 -0.0449  0.1037
22538W        W35952   8.039  16.369   4.139  0.0265  0.0776 -0.2636
22539W        W35953   7.794   4.688   3.448 -0.2924 -0.1979 -0.1384
22540W        W35954  13.176   2.605  11.807  0.0564  0.1327  0.1989
22541W        W35955  16.801  13.393  13.532 -0.0060 -0.0779  0.4737
22542W        W35956   9.421  10.494   3.123  0.0236  0.0737  0.0291
22543W        W35957   2.369   8.428  14.936  0.1615  0.2413 -0.4373
22544W        W35958  12.901  14.199   3.209 -0.1889 -0.0054  0.1228
22545W        W35959   4.303   9.112   0.448  0.2155  0.3996 -0.0356
22546W        W35960  12.177  14.263   5.620 -0.2183 -0.1369  0.0450
22547W        W35961  16.067   2.009   0.920  0.0594  0.0477  0.4335
22548W        W35962  11.724   7.009   3.290 -0.1107 -0.1863  0.4444
22549W        W35963   9.486  12.675  15.612  0.1925 -0.1736  0.0446
22550W        W35964  12.671   5.172  10.851  0.3166 -0.1255 -0.1134
22551W        W35965  14.325   1.422  15.312  0.1006 -0.1310 -0.1778
22552W        W35966  18.153  13.141   1.677 -0.1099 -0.0866 -0.1783
22553W        W35967   0.989  17.915  10.969  0.0007  0.1709 -0.2178
22554W        W35968  14.395  10.884   4.178  0.0522  0.1218 -0.0065
22555W        W35969   4.283  16.611  14.571 -0.2890 -0.1204  0.2232
22556W        W35970   3.433   7.393  14.629  0.0681  0.3663 -0.1320
22557W        W35971   2.357   1.873  14.441  0.3560  0.0477 -0.1391
22558W        W35972   2.784   3.252  14.533 -0.0265 -0.1988 -0.0504
22559W        W35973  12.604   5.415   3.977 -0.2331  0.0536 -0.2199
22560W        W35974  10.005  15.495  12.720  0.0423 -0.0897 -0.1309
22561W        W35975   9.682  11.580  15.548 -0.1717 -0.0863  0.1545
22562W        W35976  11.799   4.575   9.693 -0.0041  0.0720 -0.1254
22563W        W35977  17.517   1.730   4.631  0.2667  0.1908 -0.2643
22564W        W35978  12.037  11.811  13.131  0.1336  0.0029 -0.2354
22565W        W35979  10.518  17.114  10.740  0.0609  0.0890  0.0080
22566W        W35980   3.757   5.284  11.752  0.1298 -0.1900 -0.0708
22567W        W35981   9.821   4.535  13.878 -0.1774  0.1808 -0.0890
22568W        W35982   9.689  15.236   3.451 -0.0939  0.4674 -0.1217
22569W        W35983  11.106   4.127   3.166  0.0037  0.0448 -0.2533
22570W        W35984  17.938   3.966  15.289  0.1004 -0.0153 -0.0298
22571W        W35985   8.859   9.102  15.460  0.1805 -0.2921 -0.1495
22572W        W35986   2.896  14.804  14.017  0.0435  0.1334  0.0235
22573W        W35987  10.149   5.382  10.248  0.0851  0.0254 -0.1517
22574W        W35988  10.733   0.634  11.690  0.2109 -0.0049 -0.0677
22575W        W35989  10.141  12.928  12.735 -0.0124  0.0162  0.1936
22576W        W35990   6.540   1.231   5.994  0.0033  0.0874  0.1584
22577W        W35991  11.497  12.152  14.667  0.0290  0.1556 -0.0005
22578W        W35992  12.903  17.229   3.082 -0.0735  0.0730  0.3268
22579W        W35993  12.320  16.189   0.212  0.3917  0.2320 -0.3866
22580W        W35994   0.138   6.964   7.117  0.0403  0.0072  0.2715
22581W        W35995   4.986  17.791   4.990  0.2145  0.1017 -0.2103
22582W        W35996  17.001   5.116   5.240 -0.2229  0.0326  0.0740
22583W        W35997  10.820   9.297   5.696  0.0319  0.5611 -0.0571
22584W        W35998  12.126   3.660  15.396 -0.0383 -0.3442 -0.0566
22585W        W35999   8.237  16.186  15.287  0.1731 -0.1873  0.2932
22586W        W36000  17.358  14.913  11.333  0.0098 -0.0650 -0.1786
22587W        W36001   3.336  15.564   4.374  0.0464 -0.2250  0.2109
22588W        W36002  14.003   3.822  13.877 -0.2946  0.3537 -0.0017
22589W        W36003   5.039  12.296   3.115  0.2000  0.0171 -0.2680
22590W        W36004   7.805  12.474  11.927 -0.0754  0.1285  0.3695
22591W        W36005  15.580  14.593   1.135 -0.0586  0.1451 -0.0668
22592W        W36006   7.338   8.833  14.169  0.4651  0.0725  0.2276
22593W        W36007   6.761   8.878  10.455  0.2642 -0.1156 -0.2271
22594W        W36008  15.074   4.144   2.628  0.0722 -0.0007 -0.1553
22595W        W36009  15.724  15.278  12.114  0.0950  0.0224 -0.0400
22596W        W36010  12.104   5.292  15.640 -0.1152  0.0137  0.0322
22597W        W36011   9.137   3.892  11.784  0.0078  0.2395  0.0815
22598W        W36012  10.382   7.499  13.680  0.0969  0.0223 -0.1444
22599W        W36013  15.813   2.076  16.192  0.0104  0.4114  0.0168
22600W        W36014  15.786   9.525   0.431  0.2186 -0.1019  0.0382
22601W        W36015   4.533  10.825  16.086  0.0026 -0.1696  0.1388
22602W        W36016   7.860  15.872   5.679  0.0867  0.2244  0.0863
22603W        W36017  18.014   2.370  15.843 -0.0440  0.2331 -0.0073
22604W        W36018  16.633   2.251  15.941  0.0114 -0.2228 -0.0129
22605W        W36019   0.142  15.899  11.613  0.1532 -0.1717  0.0772
22606W        W36020  15.053   6.615   6.565  0.0640  0.0614  0.0794
22607W        W36021  16.240  15.189  14.265 -0.0639 -0.1774  0.0521
22608W        W36022  14.723  13.913   3.174  0.0479 -0.0093 -0.0371
22609W        W36023  16.669   0.934  15.779 -0.1120 -0.1726  0.1508
22610W        W36024   0.765   5.651   1.177  0.0364 -0.1367  0.3099
22611W        W36025  16.643  14.518  10.291 -0.0051 -0.3122 -0.0017
22612W        W36026  18.325   1.996  15.041  0.1458 -0.1127  0.2225
22613W        W36027   9.928   8.492  13.851 -0.0611 -0.1052  0.0154
22614W        W36028   3.331   0.633   2.424  0.0919  0.0372 -0.0100
22615W        W36029  13.007  11.574  15.455  0.3922 -0.2494 -0.1112
22616W        W36030   0.149  12.934   1.427 -0.1551 -0.2863 -0.0566
22617W        W36031   1.690   5.678   2.676 -0.0376  0.1592  0.1746
22618W        W36032   8.333  14.447   0.303  0.1352 -0.0513  0.0548
22619W        W36033   0.772   1.755  10.553  0.1865  0.2193  0.1180
22620W        W36034  14.528   9.243  11.802 -0.0033 -0.1918 -0.1674
22621W        W36035  13.230  13.943  15.203  0.1127  0.1035  0.0502
22622W        W36036  10.354  15.926   3.209 -0.3917 -0.3228  0.1801
22623W        W36037  10.021   3.630  14.246  0.1229  0.1710  0.0555
22624W        W36038  16.310  11.550  16.063 -0.1240 -0.0432  0.1645
22625W        W36039   6.962  13.225   4.230 -0.0743  0.2240  0.0868
22626W        W36040  12.101  16.024  10.163 -0.0561  0.1860 -0.4582
22627W        W36041   1.130   7.379  15.594 -0.0593 -0.0057 -0.0785
22628W        W36042   4.298   5.178  10.485  0.0679 -0.0402 -0.0222
22629W        W36043   6.689  16.857  13.096  0.1002  0.1479 -0.0163
22630W        W36044   2.090  13.780  12.137 -0.3003 -0.0315 -0.1569
22631W        W36045   5.870  12.209  13.435  0.1758 -0.1773  0.2796
22632W        W36046   1.653   3.663   2.626 -0.1810  0.3890 -0.3202
22633W        W36047  11.866  11.867  12.665 -0.3195 -0.1417 -0.1943
22634W        W36048  16.192   8.784   4.374 -0.1024  0.0204 -0.3024
22635W        W36049  18.189  10.782   1.174  0.0384 -0.1771  0.1701
22636W        W36050   7.563  13.961   4.518  0.0784 -0.1361  0.3014
22637W        W36051   6.787   7.731   5.067 -0.1867  0.2986 -0.2245
22638W        W36052  11.590   2.986   2.677  0.1217  0.3323  0.1016
22639W        W36053  12.729  13.645  10.018  0.5085 -0.2445 -0.4962
22640W        W36054   6.164  17.224  12.064  0.3202  0.0354 -0.1731
22641W        W36055   4.046   2.470  14.794  0.0113  0.1910  0.0080
22642W        W36056  13.635  13.256   3.978 -0.0561 -0.0309 -0.0645
22643W        W36057   9.774  14.587  15.951  0.1275  0.1646 -0.0085
22644W        W36058  12.721  17.209  12.458 -0.1029  0.2710 -0.1634
22645W        W36059  11.079   1.658  14.818  0.0129 -0.2314 -0.0614
22646W        W36060  10.641   6.635   5.289 -0.1449  0.3058 -0.2120
22647W        W36061   4.468  12.774  11.085 -0.1538  0.0265  0.0617
22648W        W36062  17.885   2.185   2.926 -0.2233  0.1496  0.0262
22649W        W36063   9.543  17.698   5.588 -0.4461 -0.0466  0.0766
22650W        W36064  14.505   5.507   5.202 -0.2187 -0.0681 -0.0606
22651W        W36065  12.768  13.263   3.452  0.0280  0.1113 -0.0890
22652W        W36066   4.558   8.328  14.327  0.5171 -0.0480 -0.0270
22653W        W36067   2.326  15.906   2.007 -0.1083 -0.1949 -0.1773
22654W        W36068  13.021  12.819   2.659  0.1492 -0.2681 -0.3566
22655W        W36069   2.272   6.973  15.280  0.0961  0.3946  0.1251
22656W        W36070   5.607  11.297  14.610  0.1629 -0.1483 -0.0067
22657W        W36071   6.782  13.714   5.800  0.0424  0.0758 -0.0372
22658W        W36072   3.077  12.968   2.399 -0.1638  0.2038 -0.2370
22659W        W36073  11.830   3.650   1.195  0.1863 -0.1677 -0.0964
22660W        W36074  16.736   3.904  10.898 -0.0892  0.2124 -0.1178
22661W        W36075  10.113  15.097   9.777  0.2753  0.1397  0.1183
22662W        W36076  10.795   0.105  13.221  0.1873  0.0724  0.0598
22663W        W36077  12.079  15.144   5.165 -0.0689 -0.0323 -0.0874
22664W        W36078  10.400  12.856  13.874 -0.0327 -0.0997  0.1009
22665W        W36079   6.057   2.632   3.007  0.2283  0.0605 -0.2630
22666W        W36080  17.349  16.391  11.055  0.1138  0.0552 -0.3732
22667W        W36081  11.865   4.212   5.015 -0.0439 -0.3911  0.2253
22668W        W36082   0.003  11.233  14.027  0.2004  0.1548 -0.1105
22669W        W36083  15.430   6.932   1.123 -0.1535 -0.0564  0.3558
22670W        W36084  14.378  13.003  12.309  0.6094  0.0858  0.0197
22671W        W36085   6.640   3.913   3.921  0.1010  0.0565  0.0149
22672W        W36086   8.480   7.532   1.594  0.0790  0.0432  0.0319
22673W        W36087   9.647  12.622  10.257 -0.1034 -0.3693  0.0266
22674W        W36088  13.925  11.763   9.953 -0.3122  0.0341 -0.3022
22675W        W36089   0.834   9.272   5.291  0.0853  0.0686 -0.0048
22676W        W36090   6.826   0.453   0.549  0.1567 -0.1625 -0.0210
22677W        W36091   7.979  17.940   5.121  0.1451 -0.0872  0.2300
22678W        W36092   9.873  14.014  13.717  0.0675  0.0401  0.0642
22679W        W36093   2.531   3.892  16.209 -0.0710 -0.4325  0.3374
22680W        W36094   5.075   2.377  14.820 -0.0199  0.0631 -0.1320
22681W        W36095   7.529   8.617  15.237  0.0729  0.0400 -0.3236
22682W        W36096  12.644   8.291   2.003 -0.0782  0.0412 -0.1024
22683W        W36097  17.560  10.281  14.782 -0.0495  0.1150  0.0398
22684W        W36098  14.535   4.045   2.905  0.2461 -0.3424 -0.0554
22685W        W36099  17.853   4.301   0.194  0.0020 -0.4125  0.2179
22686W        W36100   3.567   0.852  16.226 -0.0742  0.1587  0.0518
22687W        W36101  17.786   8.232   1.097 -0.2907 -0.1035  0.2569
22688W        W36102  16.162  15.279   3.673  0.1098  0.0868  0.2681
22689W        W36103   8.796  14.423   0.528 -0.1607 -0.2404  0.0826
22690W        W36104  13.427   0.437  11.338 -0.1031 -0.1754 -0.1652
22691W        W36105   9.824   6.903   5.565  0.1377 -0.2109 -0.2115
22692W        W36106  16.340  14.051  11.360  0.0858  0.1337 -0.0902
22693W        W36107   2.876  18.074   9.932  0.0796 -0.3394 -0.0642
22694W        W36108   4.228  13.699  13.124  0.3754  0.0158  0.0118
22695W        W36109   1.983   9.968  11.984  0.2345  0.1070 -0.1814
22696W        W36110   6.504  14.563   2.049 -0.1994 -0.0455 -0.0018
22697W        W36111   1.567   9.582   0.837 -0.3604 -0.0107  0.0495
22698W        W36112   2.017   0.935   4.114  0.3113  0.3283 -0.2514
22699W        W36113   8.995  16.497  11.889 -0.2462  0.0378  0.3292
22700W        W36114  10.245   1.042  11.056 -0.0239 -0.0207  0.2549
22701W        W36115  16.737   4.399   4.682  0.2213 -0.0005 -0.1256
22702W        W36116   2.864   1.228  15.141 -0.0796 -0.0124  0.1661
22703W        W36117   7.617  11.620   5.226  0.1675  0.1412 -0.1940
22704W        W36118  17.020  16.892   4.502 -0.3079 -0.2262  0.2875
22705W        W36119  14.814  15.962   0.838  0.0816 -0.1641  0.0708
22706W        W36120  16.916   0.267   2.408 -0.1743  0.0248 -0.0991
22707W        W36121   0.883   8.531  12.981  0.0651 -0.0835 -0.1176
22708W        W36122  14.024   2.150  10.007 -0.0867 -0.3723  0.1824
22709W        W36123  13.612   5.206   2.049 -0.0602 -0.1272  0.1994
22710W        W36124   4.273  18.008   1.626 -0.2389 -0.1464  0.0789
22711W        W36125  17.451  16.822  12.019 -0.0931 -0.1666  0.2217
22712W        W36126  10.815   0.975  13.309  0.0630  0.2082 -0.0888
22713W        W36127   3.714   7.081  16.189  0.1560 -0.0538 -0.1161
22714W        W36128   7.962  17.186  15.892  0.1236  0.2283  0.2033
22715W        W36129  13.625  14.515  11.641  0.1214 -0.4273  0.2280
22716W        W36130   0.808   9.186  14.342 -0.1860 -0.1238 -0.4692
22717W        W36131  11.819   1.595  11.265  0.1101 -0.3283 -0.0286
22718W        W36132  10.257   4.093   4.666  0.0614 -0.2140  0.3275
22719W        W36133   9.904  17.561   0.450 -0.1861  0.0158 -0.0374
22720W        W36134  15.875  15.075   6.093 -0.2402  0.0362  0.1049
22721W        W36135   9.886   1.964  16.112  0.2599 -0.0861 -0.0320
22722W        W36136   2.344   1.005  15.155  0.1527  0.4809 -0.1618
22723W        W36137   6.333  17.347   4.810 -0.1221  0.2570 -0.2326
22724W        W36138   5.997   0.042  14.669 -0.2222  0.1484  0.0275
22725W        W36139  16.768  11.738  12.251 -0.0759  0.0895  0.1592
22726W        W36140   6.948   6.011   3.067 -0.0604 -0.0664 -0.0806
22727W        W36141   5.200  10.563   4.066 -0.1074  0.0263  0.1963
22728W        W36142   2.924  10.081   4.654  0.0065  0.0220 -0.0597
22729W        W36143   6.486   5.973   0.425 -0.0431 -0.1595  0.1910
22730W        W36144  11.872   1.365   2.969  0.0345 -0.1696 -0.3576
22731W        W36145  10.680  17.790   2.150 -0.0456  0.0356 -0.1695
22732W        W36146  16.001  10.600  13.976 -0.0829  0.0313 -0.0010
22733W        W36147   6.172   6.652  15.455 -0.1782 -0.3150  0.1547
22734W        W36148   8.508   8.523   4.953 -0.0523  0.1968  0.0345
22735W        W36149   7.248  16.859   5.802  0.2447  0.3175 -0.1845
22736W        W36150   1.554   3.980   3.008  0.1355 -0.1955 -0.0273
22737W        W36151  12.249   8.546   1.279  0.1474  0.0282  0.1799
22738W        W36152  16.492   9.219  13.341 -0.2942  0.0998 -0.0067
22739W        W36153  13.198   0.041   2.771 -0.1062  0.0951  0.0716
22740W        W36154   2.841  17.229  11.050  0.0170  0.0884 -0.0252
22741W        W36155  14.589  14.145  12.539  0.2388 -0.0959 -0.1336
22742W        W36156  10.414  12.369  14.045  0.2421 -0.0694 -0.2831
22743W        W36157  18.325  15.868  14.659  0.3019  0.2325 -0.0607
22744W        W36158   2.037   3.509   6.102  0.0409 -0.0097  0.0635
22745W        W36159   8.091   9.393   4.571  0.0455 -0.1127  0.2544
22746W        W36160   4.898   6.427  12.760  0.1590  0.2385  0.0780
22747W        W36161   2.175  18.292   3.654 -0.0841 -0.0390 -0.1383
22748W        W36162  12.683  13.701   5.222  0.2407  0.1892 -0.1823
22749W        W36163   2.346   5.165   2.141 -0.1007 -0.1302 -0.4155
22750W        W36164  14.947   9.926   2.163  0.1753  0.0035  0.0253
22751W        W36165  12.695  16.143  13.482 -0.0305  0.0080  0.0745
22752W        W36166  11.315  12.953  10.867  0.2672 -0.0977 -0.0826
22753W        W36167  17.928  16.258   5.892  0.2936 -0.0037 -0.1579
22754W        W36168   2.400   9.254  13.979  0.0741  0.1436 -0.4125
22755W        W36169  15.368   0.849   0.731  0.1179 -0.0809 -0.0948
22756W        W36170  15.069   3.323  15.870 -0.0267  0.0656 -0.2734
22757W        W36171  14.291  16.772   1.695  0.0190  0.0748 -0.1798
22758W        W36172   5.960  12.828   2.642 -0.0148 -0.0910 -0.1765
22759W        W36173  14.998  14.920   1.599 -0.2782 -0.2595  0.0761
22760W        W36174   2.161  16.495   4.839 -0.0717 -0.1255 -0.1379
22761W        W36175  16.060   3.173  13.244 -0.1714 -0.1204 -0.0787
22762W        W36176  13.546   7.290  11.085  0.0572 -0.2010  0.1504
22763W        W36177   6.814   2.890   0.256  0.1151 -0.1986 -0.0460
22764W        W36178   8.323   1.433  14.401  0.3932 -0.0987 -0.1031
22765W        W36179  11.504   5.542  10.765 -0.0741 -0.4328 -0.1176
22766W        W36180   9.175  13.026   2.645  0.2665 -0.1770  0.0573
22767W        W36181   6.375   0.292  13.282  0.1266  0.1879  0.0200
22768W        W36182   8.363   1.216   5.002  0.1234 -0.0956 -0.3357
22769W        W36183   6.945   8.237   2.644  0.0288 -0.0094 -0.2911
22770W        W36184   9.734   2.997  10.449 -0.2260  0.0582 -0.1050
22771W        W36185   4.742   0.579   2.780  0.2200 -0.1417  0.1933
22772W        W36186   7.494   4.077   3.542  0.0748 -0.1489  0.0429
22773W        W36187  17.920   3.392  10.026  0.0350 -0.1543  0.2822
22774W        W36188   5.203  18.076  11.498 -0.1231  0.0394 -0.1539
22775W        W36189   2.532   0.870   4.805 -0.2859  0.1603 -0.2793
22776W        W36190  12.100  10.711  11.754  0.0867  0.1508  0.1987
22777W        W36191   8.149  14.618  13.938  0.3528  0.0319 -0.2411
22778W        W36192  14.080   7.907  11.954 -0.0278  0.0141  0.2011
22779W        W36193  12.017  13.878   3.754  0.0707 -0.1055 -0.2275
22780W        W36194  15.434  10.451   1.138 -0.0848  0.1016  0.0465
22781W        W36195   5.928   0.343  11.098  0.1239  0.2139 -0.2428
22782W        W36196   9.493  12.127   1.074 -0.1826  0.1797 -0.2473
22783W        W36197   3.501  18.331   0.134  0.0092 -0.1019 -0.0084
22784W        W36198  14.738  10.387  15.960 -0.0197  0.0700 -0.1834
22785W        W36199   7.738   4.215   1.731  0.0954  0.3273 -0.2251
22786W        W36200  11.004   5.803   2.733  0.0466 -0.2119 -0.0955
22787W        W36201   2.578   1.782  13.169 -0.0709  0.2350  0.1474
22788W        W36202   9.031   6.430  15.931  0.1987 -0.0610 -0.0339
22789W        W36203  13.936  10.318  10.635  0.0699  0.0047  0.0301
22790W        W36204  12.349  13.862   1.192 -0.3221  0.1400  0.0974
22791W        W36205   8.134   6.639   4.648  0.0269 -0.0913  0.1932
22792W        W36206   3.525   3.153  13.503  0.0834 -0.3096 -0.1721
22793W        W36207   8.432  12.476   0.366  0.2394  0.0417 -0.0481
22794W        W36208  11.260   8.120   5.899 -0.2177  0.2347 -0.0489
22795W        W36209  16.726   8.271   4.689 -0.1613 -0.2151  0.2636
22796W        W36210   0.751  13.643  13.973 -0.1314  0.0476  0.0981
22797W        W36211  13.840  15.581  14.824 -0.0855  0.2055  0.1049
22798W        W36212   9.980   4.120   1.652  0.0799  0.1945 -0.1271
22799W        W36213  15.141  11.593   5.644 -0.4483 -0.0465  0.0335
22800W        W36214  18.094  10.490  13.225 -0.2314  0.0073  0.0678
22801W        W36215   9.667  18.431   3.982  0.1350 -0.0973 -0.1142
22802W        W36216   2.166   1.647  11.991  0.0059 -0.0787 -0.3687
22803W        W36217  15.068   3.242   2.574 -0.0564 -0.0789 -0.1735
22804W        W36218   9.620  13.539  15.495 -0.2008 -0.1036  0.1912
22805W        W36219   9.215   8.043   2.996 -0.1600  0.0131 -0.2949
22806W        W36220  11.393   9.322   2.040  0.2623  0.0458 -0.2207
22807W        W36221  15.792   3.339   1.856  0.2315  0.0976 -0.0574
22808W        W36222   5.976  13.756   2.543 -0.0221 -0.2054 -0.3098
22809W        W36223   7.554  14.238  15.014  0.1237 -0.0023  0.3998
22810W        W36224   5.502   0.059  13.183 -0.2769 -0.0684 -0.2437
22811W        W36225  10.514   5.605  11.191  0.2530  0.1443  0.2540
22812W        W36226   6.566   3.885  10.570 -0.3398  0.4928  0.0215
22813W        W36227   6.964   3.980   0.748  0.1268 -0.0539 -0.0186
22814W        W36228  14.817   2.518   4.351 -0.0173  0.1443  0.0926
22815W        W36229   3.503   5.393  15.750  0.1550 -0.0606  0.1768
22816W        W36230   9.451  13.727  13.647  0.0089  0.1396 -0.0759
22817W        W36231   6.170  11.379  14.611 -0.2432 -0.0799 -0.2297
22818W        W36232  17.319   2.588   0.547 -0.0358 -0.1029  0.1465
22819W        W36233  16.819  14.730  14.800 -0.1691 -0.1273  0.1213
22820W        W36234  11.980  13.357   0.536 -0.1333 -0.1953  0.0447
22821W        W36235   3.219   5.196   0.018  0.3409 -0.1340 -0.0833
22822W        W36236   5.479   0.067  15.843  0.0358  0.0186  0.0632
22823W        W36237   7.462   3.624   4.414  0.0384 -0.0821  0.1253
22824W        W36238   7.800   1.421   3.275 -0.0524 -0.1600 -0.1460
22825W        W36239   4.777   7.353  12.427 -0.1186 -0.0344  0.1530
22826W        W36240   1.334  15.699  15.258  0.3960  0.1556 -0.3275
22827W        W36241   3.523   5.692  11.954  0.0625  0.1317  0.1091
22828W        W36242   6.813   9.574  15.941 -0.2802 -0.0177 -0.1586
22829W        W36243  12.156  15.837  13.514  0.0970 -0.2582  0.0647
22830W        W36244   0.934   4.744  13.823  0.1287 -0.0215  0.1002
22831W        W36245  17.886   2.719   1.271  0.2914 -0.2173 -0.0890
22832W        W36246  15.120   7.560   3.866 -0.4142 -0.0539  0.1254
22833W        W36247  16.498  11.406  13.811  0.1208  0.1198  0.1859
22834W        W36248   1.165   0.647  14.977 -0.0758  0.1715 -0.3091
22835W        W36249  13.648  13.998  11.496  0.2054 -0.1166  0.4926
22836W        W36250   9.027  16.511   5.197 -0.0958  0.0055  0.1796
22837W        W36251  15.089  11.388  12.264 -0.0983 -0.0652 -0.1465
22838W        W36252  17.616  13.974   5.400  0.3064 -0.1627  0.2198
22839W        W36253  17.942   4.417  12.967  0.1231  0.2232 -0.2009
22840W        W36254  13.031   1.991   4.378  0.4232  0.0346  0.1045
22841W        W36255   3.535   7.259  13.216 -0.0470  0.0902  0.3430
22842W        W36256  16.690  18.360   4.105  0.1365  0.2552  0.1489
22843W        W36257  14.383  18.373   2.071 -0.1680  0.0863  0.2529
22844W        W36258   6.365   3.836   1.490 -0.1390 -0.1865  0.0527
22845W        W36259  13.540   1.014  11.165  0.2608 -0.1162 -0.3067
22846W        W36260  10.561   8.373   0.789  0.1301 -0.1381 -0.0940
22847W        W36261  12.183  17.884  15.370  0.1923 -0.1102 -0.0197
22848W        W36262   9.368   1.800  15.142 -0.0203 -0.1137  0.3459
22849W        W36263   1.357   2.957  11.254 -0.0095 -0.1551  0.1317
22850W        W36264  17.070   6.685  13.263  0.1615  0.2180 -0.2009
22851W        W36265   2.645   4.312   2.345  0.1868  0.2739 -0.2882
22852W        W36266  17.991   7.926  11.196  0.1860 -0.3302  0.2111
22853W        W36267  10.457  11.852   1.055  0.1293  0.1307  0.2139
22854W        W36268   7.871  10.417  10.276 -0.0943  0.0962  0.2485
22855W        W36269   3.417   2.810  10.011  0.2348 -0.2051  0.0478
22856W        W36270  13.153   5.985   1.389  0.4089  0.1890 -0.3252
22857W        W36271  16.632  16.361   2.066 -0.1973 -0.1674 -0.1097
22858W        W36272   4.554  13.258   2.163  0.1471 -0.1895  0.2919
22859W        W36273  10.172  15.040   1.639  0.0006  0.2484  0.1267
22860W        W36274  16.940  18.141  16.120 -0.0567 -0.0482  0.3311
22861W        W36275  18.273  15.519   1.290  0.0275  0.0964 -0.1802
22862W        W36276   2.978  18.174  16.096  0.2530  0.0487 -0.1078
22863W        W36277  13.768   8.126  11.049 -0.0038  0.1287  0.2366
22864W        W36278   6.696   5.366  15.183 -0.0259  0.0321 -0.4573
22865W        W36279   9.369  16.821   1.113  0.0977 -0.2014  0.2792
22866W        W36280  13.625  15.708  10.434 -0.2337 -0.2441  0.1510
22867W        W36281  10.125   8.626   0.856  0.6120  0.2294  0.0609
22868W        W36282   0.544   8.575  10.478  0.0998 -0.0395 -0.0830
22869W        W36283   5.046   2.789   2.047  0.0032 -0.0323  0.2673
22870W        W36284  10.701  11.464  15.571  0.0801  0.0758 -0.1348
22871W        W36285  14.364  14.477   0.424  0.0482  0.1042  0.1178
22872W        W36286  10.090   8.029   0.903 -0.1670  0.3569  0.0068
22873W        W36287  17.936   2.759  15.523  0.1686 -0.2400 -0.0105
22874W        W36288  17.432  11.158  12.789 -0.0327  0.0996  0.0720
22875W        W36289  13.486  10.193   4.562  0.0977 -0.2398 -0.2242
22876W        W36290   2.935   0.328   6.552 -0.0346 -0.3093  0.0105
22877W        W36291  10.724   4.459   1.374  0.0707  0.2204  0.1435
22878W        W36292   3.299   7.343  10.295  0.3339  0.0428  0.0700
22879W        W36293  14.811   8.355  14.941 -0.2310  0.1382 -0.0588
22880W        W36294  11.610   8.876  11.384  0.4789  0.0154 -0.1263
22881W        W36295   1.558   2.750  11.757  0.0591 -0.2317  0.0465
22882W        W36296   4.608   0.569  14.388 -0.1912 -0.3072 -0.4020
22883W        W36297   3.670   7.696   3.580  0.1459  0.1268  0.1316
22884W        W36298  13.563   1.242  12.070  0.1532  0.0804  0.0030
22885W        W36299   0.822   4.283   2.440  0.3936  0.0783 -0.1470
22886W        W36300  12.368   1.982  12.098 -0.0881 -0.1892  0.0729
22887W        W36301   6.410   3.839  12.156 -0.0635  0.1653 -0.2158
22888W        W36302  10.444  16.207  13.805 -0.0388 -0.1497  0.1521
22889W        W36303   4.233   2.063  11.829 -0.0719 -0.0200  0.2637
22890W        W36304   5.589  15.599  15.352 -0.1096 -0.0729 -0.2213
22891W        W36305   1.835  17.031   5.464 -0.1949  0.2477 -0.1670
22892W        W36306  12.912   7.863  12.638 -0.2607 -0.3969  0.1457
22893W        W36307  10.420  16.627   2.445  0.0728  0.1995  0.0741
22894W        W36308   1.279  12.358  11.255  0.1377  0.0777  0.0902
22895W        W36309  17.363   6.446   4.304 -0.0717 -0.0007 -0.0257
22896W        W36310   9.809  14.289   2.935  0.1301  0.0539 -0.1826
22897W        W36311   0.361  14.274  13.950  0.0752 -0.2466 -0.2079
22898W        W36312  15.892  11.224  13.327  0.0737 -0.0802  0.1183
22899W        W36313   3.985   7.388   4.770 -0.4188 -0.2357 -0.0388
22900W        W36314  10.760  17.533   3.188  0.3143  0.1883  0.2065
22901W        W36315   4.428  11.064   2.639  0.3074  0.0504 -0.1546
22902W        W36316   9.089  14.028   4.751 -0.4239 -0.2629  0.4151
22903W        W36317  15.013   5.325   2.256 -0.3315  0.1774 -0.1618
22904W        W36318   0.437  11.997   0.260 -0.1659 -0.0798 -0.3170
22905W        W36319   0.315   3.406   2.726  0.1724 -0.3038 -0.1914
22906W        W36320  14.603   6.690   6.563  0.0521 -0.0479 -0.0993
22907W        W36321  11.172   9.667  10.441  0.0401 -0.2305 -0.4126
22908W        W36322   5.295   7.572   3.169  0.0671  0.2085 -0.0728
22909W        W36323  10.222  10.258   4.956 -0.0031  0.0815  0.0526
22910W        W36324   6.378   5.689   4.981 -0.0285  0.3348  0.0633
22911W        W36325   9.518  17.488  14.955  0.1174 -0.0179 -0.0099
22912W        W36326   1.139   3.519   5.169  0.1860  0.1842  0.0751
22913W        W36327   0.654   8.189   1.182  0.2825 -0.0925 -0.0472
22914W        W36328  14.357   7.024   6.153 -0.0155  0.0508  0.1510
22915W        W36329   6.145   2.279   1.302 -0.0089 -0.0075  0.1429
22916W        W36330  14.862  12.019   5.523  0.0889  0.1949  0.1352
22917W        W36331  15.318   4.651   5.948  0.1203 -0.1065 -0.2506
22918W        W36332  16.386   0.781   1.712  0.3100  0.1127  0.2742
22919W        W36333  15.257  18.070   5.319 -0.1046 -0.0583 -0.3592
22920W        W36334   7.855   9.896   1.016  0.5171  0.0513 -0.1481
22921W        W36335   3.234  13.802   0.664 -0.0595 -0.2005  0.3309
22922W        W36336   4.382   4.209  12.932 -0.0823  0.0586 -0.0122
22923W        W36337   9.589   8.250   3.577  0.2291  0.0606 -0.1160
22924W        W36338  12.731   5.077   4.384  0.1827 -0.2035  0.0505
22925W        W36339   3.155   9.573   0.588  0.3267 -0.0845 -0.0643
22926W        W36340   6.165  16.571   2.151 -0.3189  0.1323 -0.0857
22927W        W36341  10.777   8.034   5.082  0.1401  0.3690  0.0381
22928W        W36342   6.626   2.725   2.172 -0.2247 -0.2838  0.2132
22929W        W36343   2.808   4.882  16.121 -0.0970  0.1609  0.1378
22930W        W36344  14.518   7.495   5.897 -0.2338  0.0703 -0.0310
22931W        W36345  14.500  16.032   5.004  0.0122  0.0766  0.2391
22932W        W36346  13.739   8.167  13.288 -0.1572 -0.0267 -0.0066
22933W        W36347   3.777  17.649   2.839  0.2229 -0.1525 -0.0431
22934W        W36348   9.859   1.273  11.358 -0.1669  0.2080 -0.2059
22935W        W36349  16.334   5.891  13.652 -0.1813  0.0994 -0.0338
22936W        W36350   9.084  14.073  13.720 -0.1485 -0.3571  0.0145
22937W        W36351   5.373   4.960   3.782  0.0722 -0.2493 -0.0162
22938W        W36352   1.984  11.611  13.888  0.0147 -0.0137  0.1749
22939W        W36353   0.143  16.784  15.139  0.4645  0.1232  0.2305
22940W        W36354   1.466   1.088  14.980 -0.1649  0.1216 -0.2402
22941W        W36355  13.721   8.591  15.311  0.1398 -0.0278  0.0272
22942W        W36356   9.012  11.599  13.868  0.0124  0.3575 -0.0272
22943W        W36357   0.135  18.170  13.389  0.1614 -0.3044 -0.1661
22944W        W36358  10.931  14.110   5.578 -0.0138 -0.3165 -0.2016
22945W        W36359  13.499  11.756   1.972 -0.0544  0.0108 -0.1688
22946W        W36360   1.775  15.345  15.640 -0.2095  0.2029  0.1989
22947W        W36361   5.862  10.308   2.108  0.0167  0.2662  0.1716
22948W        W36362   7.907   5.497  12.566 -0.0062 -0.2688 -0.0296
22949W        W36363  12.648  12.534  11.795 -0.3001 -0.0736 -0.1839
22950W        W36364  14.628  14.427   3.759 -0.0074 -0.0148 -0.2483
22951W        W36365   6.483   5.465  12.288  0.3066 -0.2008 -0.2337
22952W        W36366  18.364  15.864  13.138 -0.1281  0.0118 -0.2123
22953W        W36367   9.931  11.383  11.947 -0.0514  0.2688  0.1676
22954W        W36368   2.407  15.657   3.778  0.3179  0.1068  0.0705
22955W        W36369   3.573   4.600   4.253 -0.1519 -0.0147 -0.1812
22956W        W36370   6.929  15.370   2.328 -0.2890  0.1869 -0.2947
22957W        W36371  15.657   2.746  13.921  0.1003 -0.0535  0.1897
22958W        W36372   7.892  15.678   5.182  0.0122  0.0506 -0.1032
22959W        W36373   4.148  13.936   9.561 -0.1996 -0.0675  0.1523
22960W        W36374  18.296   4.981  13.367  0.2079  0.2950  0.1905
22961W        W36375  15.517   9.145  15.878 -0.1525  0.1130 -0.1577
22962W        W36376   2.903  10.116  10.789  0.1771  0.1139  0.1124
22963W        W36377   9.060   2.204  15.688  0.1527 -0.2108 -0.0196
22964W        W36378   4.725  18.427   3.185  0.0661  0.1329  0.1166
22965W        W36379   5.489  14.129   0.760  0.0641  0.1209 -0.1196
22966W        W36380  13.074   7.194   4.888  0.1771  0.0100 -0.0016
22967W        W36381   7.112   9.520   4.251 -0.1367 -0.2535  0.1225
22968W        W36382  13.162  12.548  11.702  0.2549  0.0120 -0.1351
22969W        W36383  15.154  16.016   3.225 -0.1905  0.2414  0.1300
22970W        W36384  13.346   3.227  15.353  0.0138 -0.0101 -0.1761
22971W        W36385   2.933  14.747  13.526  0.1345 -0.3444  0.1375
22972W        W36386   0.413   2.356   5.689 -0.0592  0.2973 -0.0152
22973W        W36387   2.660   3.186  10.168  0.3128 -0.2054  0.0345
22974W        W36388   9.782   7.326  13.747 -0.1719 -0.2920  0.0905
22975W        W36389   8.946   8.642  15.601 -0.0672 -0.4348  0.2604
22976W        W36390  14.936  13.579  14.299  0.0083  0.2222 -0.0493
22977W        W36391   8.034   4.622  10.536  0.0808 -0.0977  0.1854
22978W        W36392   0.275   7.069  16.116  0.0361  0.1367  0.3671
22979W        W36393   2.215  13.540   2.916 -0.3936  0.2120  0.3104
22980W        W36394   1.772  16.586  10.143 -0.0447 -0.1269 -0.0645
22981W        W36395   0.299  14.364  14.444 -0.2984  0.1411 -0.1961
22982W        W36396  10.993  10.300   1.516 -0.4275 -0.1054  0.1924
22983W        W36397  14.203  11.635   0.365 -0.0601 -0.1590  0.1410
22984W        W36398   4.990   5.166  15.935 -0.0893 -0.1337  0.3135
22985W        W36399   2.862   0.410  13.558 -0.3100 -0.1944  0.1854
22986W        W36400   9.893  14.680  12.697  0.1670 -0.2481 -0.1780
22987W        W36401  12.869  13.482  14.097 -0.2066 -0.1950  0.1859
22988W        W36402  15.254   6.386   4.785  0.0381 -0.0882  0.1028
22989W        W36403   8.899   1.654  12.638 -0.2578 -0.1733  0.3798
22990W        W36404  17.995  10.427  12.755 -0.1080  0.1645  0.1249
22991W        W36405  13.891   5.162   1.134 -0.2970  0.1893  0.0989
22992W        W36406   8.361   4.713  11.584 -0.0711  0.0266 -0.0067
22993W        W36407   8.429  17.003   6.258 -0.0397 -0.1752  0.4113
22994W        W36408  17.584  10.186   5.334 -0.1636 -0.2744 -0.1848
22995W        W36409  15.497   4.806  11.370  0.0643 -0.0597 -0.2561
22996W        W36410   5.764   9.892   2.562  0.0806 -0.2602 -0.0527
22997W        W36411  16.230   3.322   0.019  0.1213  0.0390 -0.2494
22998W        W36412  17.951  10.755   3.223 -0.0482  0.2846 -0.1074
22999W        W36413   1.762  15.354   4.421  0.0333 -0.0415  0.1419
23000W        W36414   9.738  17.052  11.556 -0.0066 -0.2227  0.2567
23001W        W36415   2.516   5.141  13.878  0.0954  0.2694 -0.0617
23002W        W36416  10.105   2.723  13.560  0.0860 -0.1653  0.0420
23003W        W36417  15.892   8.591   4.838 -0.3693 -0.0284  0.1043
23004W        W36418  16.875  17.889   4.230 -0.1053  0.1030 -0.0177
23005W        W36419  14.210   4.429  12.324 -0.1225 -0.0922 -0.0381
23006W        W36420  16.096   7.815  11.115 -0.2180  0.3036 -0.2159
23007W        W36421   8.498  16.483   1.812 -0.2361  0.2317  0.0355
23008W        W36422  12.404  10.011   0.700 -0.0534 -0.0736 -0.1278
23009W        W36423   1.856   7.847  14.990 -0.4305  0.3091  0.1114
23010W        W36424  16.793  14.397   0.813 -0.0046 -0.0492 -0.0736
23011W        W36425   3.328  10.044  10.573  0.0785  0.4467 -0.0928
23012W        W36426  14.087  11.112   2.112  0.1754  0.0386  0.0608
23013W        W36427  11.604  14.627  15.848  0.1445  0.2375 -0.0494
23014W        W36428  12.219   4.379   5.389 -0.0995 -0.2535 -0.0110
23015W        W36429   6.613   9.767  14.673  0.1641 -0.0831  0.1238
23016W        W36430  12.240   0.987  15.514 -0.2361 -0.0010 -0.0981
23017W        W36431  17.316   4.275  12.434  0.2903 -0.1548 -0.1433
23018W        W36432  10.463   2.536   1.061  0.0582  0.1488 -0.1258
23019W        W36433   0.569  15.865   3.165  0.1695  0.0887  0.0519
23020W        W36434  14.243  10.170  12.606  0.1399 -0.0810 -0.2792
23021W        W36435   6.708   2.044  15.903  0.1245  0.0921  0.1632
23022W        W36436  10.105   8.290   3.807 -0.1400  0.1326  0.0508
23023W        W36437  10.007   7.834   0.246 -0.1981 -0.2346  0.0313
23024W        W36438   8.259  18.405   2.088  0.0483  0.2247  0.4169
23025W        W36439   6.746  16.007   3.668 -0.0363 -0.1394  0.1591
23026W        W36440  17.194  13.717  13.598  0.2884  0.2275  0.2691
23027W        W36441  11.888   4.063  15.794 -0.3217  0.1997 -0.0946
23028W        W36442   7.486   9.659  11.349  0.0787  0.1688 -0.2020
23029W        W36443   6.093  12.466  15.519 -0.0993 -0.1631  0.3475
23030W        W36444   2.711  10.141  14.947  0.0532  0.0287 -0.2775
23031W        W36445  17.559   6.257   3.454  0.3931  0.1718 -0.0894
23032W        W36446  12.851  13.819  11.746 -0.2225 -0.2914  0.1135
23033W        W36447   3.938  15.631   6.246 -0.0182  0.1670  0.1031
23034W        W36448  13.331   4.761   3.633  0.0777  0.1033 -0.1714
23035W        W36449   6.605  12.695   5.660  0.1468 -0.0213  0.0878
23036W        W36450  15.684  15.398   3.428 -0.1144 -0.1766 -0.3038
23037W        W36451   9.417  12.106   3.322 -0.2213 -0.1696  0.0957
23038W        W36452  16.676   0.734   5.487  0.2562 -0.0365 -0.4577
23039W        W36453   8.955   5.855   1.332  0.2752  0.1892  0.0231
23040W        W36454   6.194   4.228   3.243  0.3244 -0.2705 -0.1424
23041W        W36455   9.918   3.921   0.104  0.0387  0.0883  0.0155
23042W        W36456   1.077   0.772   1.531 -0.0827 -0.1138  0.1986
23043W        W36457   7.747   1.728  10.783  0.1248 -0.4533  0.1912
23044W        W36458   1.910   7.506   4.058 -0.0554  0.0963 -0.1329
23045W        W36459   5.540   3.698   2.235  0.3036 -0.0911 -0.0452
23046W        W36460   8.828  18.336  14.686 -0.0947  0.1523  0.0952
23047W        W36461  15.270  12.000  13.638 -0.0463 -0.0762  0.0001
23048W        W36462   4.020  12.245  15.822 -0.0787  0.2156  0.2265
23049W        W36463   0.886  17.415  11.071 -0.1731 -0.2730 -0.0749
23050W        W36464   4.183  12.977   3.540  0.0674  0.1190 -0.0242
23051W        W36465  10.519  12.528   9.879  0.2357 -0.3020 -0.0944
23052W        W36466   3.772  10.686   1.249  0.1169 -0.1483 -0.0086
23053W        W36467   6.212   6.020   1.348 -0.1805  0.0241  0.0254
23054W        W36468   2.490   1.603   3.529  0.1048 -0.0708 -0.0563
23055W        W36469  15.604   5.061   3.266 -0.2838  0.0823  0.0423
23056W        W36470  18.283   7.780   3.408 -0.3522 -0.0570 -0.1768
23057W        W36471   9.254   5.079   4.986  0.2043  0.3127 -0.1083
23058W        W36472  15.689  15.650  15.371 -0.1680 -0.0672 -0.2635
23059W        W36473  11.239  12.451   1.087 -0.3358  0.1264 -0.0285
23060W        W36474   2.956  16.388  11.559 -0.2102 -0.1805  0.2078
23061W        W36475   7.524   7.826  14.147  0.1536  0.1621  0.0868
23062W        W36476   0.071  17.750  15.679  0.1926 -0.1608  0.0238
23063W        W36477   2.252  18.082   2.412 -0.0640  0.0778  0.2208
23064W        W36478   7.349   7.053  10.383 -0.3147 -0.3004 -0.1845
23065W        W36479   2.064  12.647   2.746 -0.0723 -0.0522 -0.2855
23066W        W36480   5.045   6.939   1.971 -0.0306  0.1740  0.1821
23067W        W36481   3.417   2.667  14.142 -0.1683 -0.1039  0.2051
23068W        W36482  15.319   2.477  14.718  0.3010  0.3496 -0.2245
23069W        W36483  11.242   7.796   2.227 -0.2431 -0.1074 -0.4176
23070W        W36484   7.264   8.542   4.838 -0.0090 -0.4583 -0.2830
23071W        W36485   3.963   6.103  11.939 -0.1234 -0.1032  0.3544
23072W        W36486   0.396  11.363   4.499  0.1451  0.0660  0.2281
23073W        W36487  12.203  15.572  14.363  0.2565  0.2461 -0.0533
23074W        W36488   0.717  12.064   0.975  0.1583 -0.1914  0.1242
23075W        W36489   0.398  10.539   4.747  0.0738  0.1564  0.1118
23076W        W36490  16.626  11.162  16.253 -0.0734  0.0580 -0.5141
23077W        W36491   9.752   7.271   0.414  0.2070  0.1146  0.1133
23078W        W36492   0.069  14.356   5.457 -0.0028  0.0716 -0.0943
23079W        W36493  12.801   3.683   3.232 -0.0052 -0.0502 -0.1941
23080W        W36494  16.062   1.157   1.960  0.0925  0.3140  0.3024
23081W        W36495  12.311  12.797  15.883 -0.1135  0.3659  0.0713
23082W        W36496   7.471   1.590  13.738 -0.1486 -0.1133  0.1211
23083W        W36497  15.559  13.990  11.730  0.0743  0.3528  0.0357
23084W        W36498   7.324  15.203  11.923  0.0071 -0.4974  0.1926
23085W        W36499   6.603   7.628   3.633  0.1227 -0.3351 -0.0834
23086W        W36500   7.568   8.663   4.403  0.4632 -0.1068  0.1885
23087W        W36501   9.683  18.422  15.816 -0.2289  0.2032 -0.2400
23088W        W36502   9.133  12.265  13.914  0.0982  0.0082  0.0382
23089W        W36503  16.050  14.583   1.125  0.0315 -0.2762 -0.1540
23090W        W36504   9.201  18.257  10.653  0.2293 -0.1270  0.0052
23091W        W36505   7.634   5.478   5.099  0.0793 -0.1065 -0.2532
23092W        W36506  12.746   0.143  15.176 -0.1004  0.2814 -0.0945
23093W        W36507   2.703   3.063   3.289  0.0861  0.0911 -0.2111
23094W        W36508  11.102  16.654   3.262 -0.1006 -0.0523 -0.0914
23095W        W36509  11.628   9.936   2.161  0.1873 -0.0083  0.0881
23096W        W36510  11.776  15.318  12.668  0.0354 -0.1123  0.0706
23097W        W36511   9.911   7.636  15.592 -0.0188  0.0493  0.0203
23098W        W36512   8.785   4.485   2.921  0.1284  0.0201  0.0016
23099W        W36513   3.255   3.792   1.537  0.3329 -0.0336  0.1255
23100W        W36514   1.004  16.876   3.832  0.1327 -0.0211  0.2218
23101W        W36515  14.676  16.339   4.390 -0.2321 -0.2317 -0.2046
23102W        W36516   0.910   6.470  14.085 -0.1922  0.2341 -0.1263
23103W        W36517   7.532  12.740  10.770 -0.1229 -0.0052  0.1180
23104W        W36518   5.692  10.130  14.626 -0.0430 -0.1120 -0.0078
23105W        W36519  16.802  12.699   1.431  0.2223  0.1796  0.1479
23106W        W36520   1.217   9.930   4.218 -0.0684  0.2870 -0.0754
23107W        W36521  13.676  14.974   4.858 -0.5346  0.0618 -0.0625
23108W        W36522  14.156   0.127  11.524 -0.0228 -0.1372  0.2246
23109W        W36523   0.152  17.203  15.533  0.2754 -0.0590 -0.0347
23110W        W36524  11.081  16.913  14.661 -0.1630  0.1780 -0.3082
23111W        W36525  12.804  15.065   1.086  0.3053 -0.1698 -0.1821
23112W        W36526   7.215   7.062   3.996  0.1130  0.1091  0.0609
23113W        W36527  18.163   0.520   2.823 -0.0849 -0.0048 -0.3074
23114W        W36528  13.344   2.050   0.531 -0.1382 -0.1547 -0.1320
23115W        W36529  12.938   6.820   3.988 -0.1268  0.1220  0.2165
23116W        W36530  16.874   4.552   2.093 -0.1835 -0.0674 -0.2491
23117W        W36531   4.386  16.204  10.855  0.1050  0.1274  0.1472
23118W        W36532  13.117   8.668  14.351  0.0142  0.0031 -0.2974
23119W        W36533   4.115  16.797  15.070  0.1679  0.3587 -0.0198
23120W        W36534   3.395   4.857   3.628 -0.0892  0.3121 -0.0339
23121W        W36535  15.478  12.354   2.495 -0.0980 -0.2237  0.3375
23122W        W36536  16.638   6.144   5.060  0.1624  0.0564  0.1639
23123W        W36537   4.934   6.422   3.127 -0.0795  0.0554 -0.3206
23124W        W36538  12.403   2.885  15.933 -0.0915 -0.0506 -0.0267
23125W        W36539  14.616  18.419  11.838 -0.1839 -0.2155  0.3087
23126W        W36540   8.838   6.962   2.226  0.0757 -0.0156  0.1061
23127W        W36541  10.544   4.881   2.714  0.0690 -0.0202  0.3003
23128W        W36542   5.013   9.283   3.647 -0.1352  0.0368 -0.0419
23129W        W36543  16.880  11.236  14.153 -0.0005 -0.0712  0.0662
23130W        W36544   9.697   2.134   1.579 -0.0121  0.1265  0.1179
23131W        W36545   1.609   7.952   3.886  0.1305 -0.0066 -0.0126
23132W        W36546  11.456  18.058   4.754  0.0802  0.1763 -0.2977
23133W        W36547   4.570   2.981   1.934 -0.2489 -0.1740  0.0604
23134W        W36548   9.302  15.196   0.734 -0.1071  0.1548 -0.0677
23135W        W36549   6.000  11.470  15.044 -0.1958  0.0086  0.1078
23136W        W36550  11.694  10.144  15.105  0.1060  0.0368 -0.0383
23137W        W36551  17.424  13.902  12.755 -0.0246  0.2233 -0.0489
23138W        W36552  12.813  18.067  13.427 -0.0626  0.1917  0.4079
23139W        W36553   0.376  14.773  14.095  0.4871 -0.1371 -0.0772
23140W        W36554  15.410  14.985  13.928  0.0084 -0.0871  0.1328
23141W        W36555  12.148   4.427  15.584  0.2665  0.4648  0.1323
23142W        W36556   5.731   8.209  11.531 -0.2717  0.0514  0.3685
23143W        W36557  10.636   8.512  15.017  0.4565 -0.0047 -0.3248
23144W        W36558   7.510  17.194  16.069 -0.2015 -0.1482 -0.1345
23145W        W36559  13.691   1.954  14.234 -0.0757  0.1970  0.2595
23146W        W36560   5.697   6.010  12.976  0.1533  0.1406  0.2633
23147W        W36561   9.997  16.349   1.542 -0.0338 -0.1372  0.3453
23148W        W36562   5.166   9.289  11.865 -0.1281 -0.0857 -0.0164
23149W        W36563  13.754  13.155   0.723 -0.0085  0.0328  0.0505
23150W        W36564   9.048   1.619  15.931  0.0799 -0.0254  0.3007
23151W        W36565  12.504   2.847  15.093  0.2184 -0.0301  0.1805
23152W        W36566   8.070   2.548  16.086 -0.2921 -0.0870  0.0035
23153W        W36567   3.001  10.584   4.561  0.0414  0.2726  0.0753
23154W        W36568  16.119   8.770  12.651  0.0067 -0.0815  0.0388
23155W        W36569  18.444   9.637  12.788  0.0839  0.0058 -0.2998
23156W        W36570  11.964   7.716   3.700 -0.0325 -0.2052  0.0391
23157W        W36571  16.894   7.090  14.556  0.0212 -0.0015  0.2117
23158W        W36572   2.780  16.317   6.633  0.3260 -0.1257 -0.1805
23159W        W36573   4.379   4.830  14.485 -0.1348  0.1866  0.0796
23160W        W36574  17.007  16.298  11.982  0.0573 -0.1789 -0.1026
23161W        W36575   6.411   4.054  10.001  0.1151  0.1326  0.3043
23162W        W36576  17.397   4.161   3.347  0.0152  0.3256 -0.0239
23163W        W36577   3.747   7.654   3.052 -0.0535  0.1300  0.0289
23164W        W36578   1.148   9.547  14.398  0.2218 -0.1516  0.1666
23165W        W36579   9.087   0.143   2.754  0.0250  0.2571 -0.1711
23166W        W36580  15.154  10.558  12.989  0.0722 -0.1614  0.3241
23167W        W36581   7.652  10.662   1.245  0.2369 -0.0294 -0.2453
23168W        W36582  18.350  15.057   3.346 -0.0220 -0.2943  0.0175
23169W        W36583  11.885   9.397   1.241  0.1012 -0.0761  0.1463
23170W        W36584   2.298  13.007   1.186 -0.0075 -0.1638  0.1638
23171W        W36585  12.282  10.573   0.372 -0.0085  0.0551 -0.0415
23172W        W36586  16.413   3.078   3.050  0.1729  0.0264 -0.1016
23173W        W36587  12.825  10.554   5.263 -0.1014 -0.1018 -0.0435
23174W        W36588   7.204   9.325   9.729  0.4388  0.0795  0.1111
23175W        W36589  14.649  12.043  10.892  0.0222 -0.1841  0.1170
23176W        W36590   5.477  15.821   4.612  0.0053 -0.0902 -0.0445
23177W        W36591  15.752   3.991   1.046  0.3315 -0.0710 -0.1255
23178W        W36592  14.621   6.577  12.358  0.0166  0.1674  0.0506
23179W        W36593   4.025  11.475  12.042 -0.2679 -0.1375 -0.0074
23180W        W36594   7.988  17.873   1.529  0.1864 -0.0895  0.1063
23181W        W36595  13.820  12.004   4.493 -0.0843  0.1279 -0.1998
23182W        W36596  12.184  16.879  12.206 -0.2987  0.3382  0.2399
23183W        W36597  13.929   6.884   1.994  0.1689  0.0540  0.0037
23184W        W36598   2.103   6.048   5.451 -0.0323 -0.1228 -0.0564
23185W        W36599  13.650   4.151  16.062  0.1438 -0.1167 -0.0196
23186W        W36600  16.394  18.153   5.072 -0.1233  0.2306  0.1765
23187W        W36601  12.878   9.784   2.223  0.1509 -0.0246 -0.0355
23188W        W36602  13.946   9.236  11.599  0.1164  0.0359  0.0964
23189W        W36603   8.015   5.512  11.497  0.2405 -0.3178  0.1542
23190W        W36604  17.099   4.223   1.190 -0.0222  0.0711 -0.0984
23191W        W36605   5.854  17.984   4.087  0.0688  0.0828 -0.0289
23192W        W36606   6.407  15.713  14.336 -0.0562 -0.2964  0.1465
23193W        W36607   5.793  17.341   4.776  0.1149 -0.0831 -0.0918
23194W        W36608   4.428   4.020  15.944  0.1574 -0.2407  0.0295
23195W        W36609  14.198   1.238   0.011  0.2023 -0.2321  0.3090
23196W        W36610  13.960  11.337   2.624  0.0115  0.1738 -0.0363
23197W        W36611   5.000  11.357  13.680  0.0391 -0.2235 -0.3166
23198W        W36612   8.669  15.353  10.582  0.1089 -0.2684 -0.1020
23199W        W36613  13.077  10.039   1.239 -0.4191 -0.0551 -0.3636
23200W        W36614  17.200   8.359  13.262  0.0747 -0.1902  0.0325
23201W        W36615   0.801   6.318  14.584 -0.0842 -0.2265  0.1991
23202W        W36616   3.908   5.664  13.247 -0.3018 -0.0680  0.0192
23203W        W36617   6.547   0.818   2.384  0.0042 -0.0906  0.0923
23204W        W36618  13.132  11.370   2.114  0.1360  0.3165  0.1778
23205W        W36619  11.526   2.570   5.102 -0.1070  0.0997 -0.1758
23206W        W36620   7.101   3.445  11.214 -0.3722  0.2559  0.1412
23207W        W36621   0.140   9.531  11.068  0.1294 -0.0995  0.1547
23208W        W36622   1.745  16.886  13.007  0.2116 -0.2753 -0.0067
23209W        W36623  10.073  12.893   2.410  0.1052 -0.0510  0.0404
23210W        W36624  12.548  15.303  16.066  0.1085  0.5737  0.2951
23211W        W36625   0.744   4.913  13.318 -0.0823  0.1493  0.1418
23212W        W36626   8.394   6.028  15.444  0.0914 -0.1401 -0.2410
23213W        W36627  11.296   9.073   3.818  0.0164  0.0026 -0.2398
23214W        W36628  16.178  18.273  11.852  0.0502  0.1674  0.2217
23215W        W36629   6.353  12.066  15.711  0.2171  0.2862  0.0742
23216W        W36630  11.791  15.079  13.293 -0.0323 -0.2208  0.1839
23217W        W36631   1.705   3.395  15.486 -0.2948  0.0805  0.1074
23218W        W36632  12.363  17.002  15.105 -0.1029 -0.2627 -0.0367
23219W        W36633   6.603  17.051   0.920  0.1524 -0.0055 -0.2711
23220W        W36634  10.052  17.419   9.850  0.0526 -0.0516  0.0910
23221W        W36635   7.523   0.066   0.143  0.0427 -0.0822  0.2864
23222W        W36636   3.245   0.189  14.346  0.3167  0.1326 -0.0105
23223W        W36637   8.436  17.323   5.756  0.0606  0.1418 -0.0672
23224W        W36638   9.855  11.085  14.416  0.1256 -0.1461 -0.1569
23225W        W36639   0.752   4.017   1.606  0.1797 -0.3230  0.1902
23226W        W36640  12.578   5.666   2.736  0.0309  0.1746 -0.0376
23227W        W36641  13.534   1.375   1.118 -0.2682 -0.1468  0.0282
23228W        W36642  13.816  15.503  13.485  0.2481  0.1132 -0.0402
23229W        W36643   7.313   1.898  14.081  0.1334  0.0507  0.0515
23230W        W36644   7.453  14.250  12.351 -0.1219  0.0927 -0.0105
23231W        W36645  12.260   5.693   1.413 -0.1321  0.1607 -0.1416
23232W        W36646  16.812   5.058   2.082  0.0817  0.0315  0.2651
23233W        W36647   5.023  11.770  12.978 -0.1909 -0.2450 -0.2234
23234W        W36648   2.925   5.187  14.804 -0.2509 -0.0542  0.1265
23235W        W36649   0.303   9.030  14.510 -0.0637  0.0467 -0.3914
23236W        W36650  14.972  16.933   3.671 -0.0949  0.0286 -0.1348
23237W        W36651   8.035   1.176  13.088  0.1008  0.3502 -0.1554
23238W        W36652   6.619  14.009  10.725  0.1362 -0.0792 -0.1822
23239W        W36653   6.635   6.642  13.156  0.0580  0.1009  0.1428
23240W        W36654   7.276  17.831  14.780  0.2384  0.1302  0.1510
23241W        W36655   5.278   9.375   1.782 -0.1025  0.1435  0.0435
23242W        W36656   1.326  17.037   5.626  0.1072  0.2182  0.2326
23243W        W36657  14.929   1.571  12.389 -0.1442  0.1512 -0.1905
23244W        W36658  13.465   9.802   5.455 -0.1770  0.2020 -0.4437
23245W        W36659   4.732   2.213  15.774  0.1461 -0.2334  0.0727
23246W        W36660  15.484   8.199  13.150 -0.1768 -0.1303  0.2359
23247W        W36661   3.470   5.867  11.128  0.3279  0.3274 -0.1753
23248W        W36662  10.758   4.037   4.737  0.1936  0.0834 -0.3259
23249W        W36663   1.054   2.930  10.180  0.2660 -0.2384  0.2051
23250W        W36664  15.411   4.522   0.172 -0.0363 -0.0100  0.0226
23251W        W36665  17.895   5.117   5.983  0.1059 -0.1699  0.0813
23252W        W36666   9.003  17.134   4.794  0.1686  0.0173 -0.1653
23253W        W36667  15.681  14.597  14.051 -0.0305  0.3529 -0.1581
23254W        W36668   1.312   2.049   2.584  0.5752  0.0077  0.0023
23255W        W36669  14.468  10.217   5.252 -0.1313  0.0379  0.1168
23256W        W36670  10.265   5.679  12.871  0.1800 -0.2279  0.1086
23257W        W36671  14.290   9.255  15.152 -0.2298 -0.1839  0.4090
23258W        W36672   0.341  10.907   3.726  0.1035 -0.1685  0.2620
23259W        W36673  10.098   7.770  11.658  0.0754  0.0883  0.1858
23260W        W36674  17.549   7.250   3.678  0.0986  0.3409  0.0112
23261W        W36675  10.526  11.062  10.748 -0.1088  0.3500  0.1243
23262W        W36676  13.135  16.024  12.038 -0.1407 -0.0010 -0.2334
23263W        W36677   1.636  14.812  14.865 -0.0697  0.0141 -0.0960
23264W        W36678  17.811   7.115   4.413 -0.0404 -0.2179  0.1340
23265W        W36679   4.450  12.402  15.541  0.1458 -0.0255  0.4195
23266W        W36680   3.575   0.930   5.389  0.1442 -0.1999  0.0321
23267W        W36681  14.397  16.751   4.087  0.0896 -0.6732  0.0496
23268W        W36682  15.342   5.153   5.745  0.0826  0.2438  0.3127
23269W        W36683   6.440   6.960  13.460  0.3081 -0.0093 -0.3005
23270W        W36684  10.508  15.408  14.359 -0.0215  0.1010 -0.0326
23271W        W36685   3.506  17.298  11.302 -0.0028  0.0468  0.1858
23272W        W36686   9.216   2.802   1.382 -0.1495 -0.2912  0.1381
23273W        W36687   5.690   4.496  12.608 -0.2152  0.0025 -0.0861
23274W        W36688   5.831  17.473  11.083  0.0318 -0.0273 -0.2114
23275W        W36689   6.543  18.160  15.525  0.2969 -0.3278  0.1010
23276W        W36690  17.207  17.656  14.393  0.1206 -0.1212  0.1765
23277W        W36691   2.229   5.501   5.382 -0.0957 -0.1433 -0.0748
23278W        W36692   1.004   6.088   0.595  0.0209  0.2904  0.3623
23279W        W36693  11.234  11.136   3.905 -0.0181 -0.2901  0.5528
23280W        W36694   4.492  14.980  15.190  0.1863  0.2426  0.0756
23281W        W36695  10.115   4.061  12.520  0.1350  0.1600 -0.0502
23282W        W36696  11.902   3.497   2.809  0.3209  0.1994  0.0177
23283W        W36697   5.360  16.649   1.546  0.0017 -0.0518  0.4218
23284W        W36698  18.398  10.353  12.083 -0.2330 -0.1184 -0.0150
23285W        W36699   7.575   6.325  12.151 -0.0806  0.0006  0.2069
23286W        W36700  13.016   5.958   2.927  0.0686 -0.3305  0.3544
23287W        W36701   4.467  12.954  13.604  0.1973 -0.2023 -0.0082
23288W        W36702   6.646   7.662   5.587 -0.0730 -0.2135 -0.2980
23289W        W36703  13.875   4.630  10.081 -0.1161  0.1631 -0.1495
23290W        W36704   5.468  11.089  12.314 -0.2191  0.1515 -0.0866
23291W        W36705   7.617   2.300   5.782  0.0879  0.5170 -0.0833
23292W        W36706   5.588  15.727  12.280 -0.1988 -0.1139  0.3170
23293W        W36707   3.380   3.631   3.084 -0.0488  0.1975 -0.0248
23294W        W36708  14.274  18.023  16.133 -0.2486 -0.2504 -0.2209
23295W        W36709  16.698   6.643   4.993 -0.0719 -0.1858 -0.0778
23296W        W36710  15.751  15.612   0.300  0.0386  0.1466  0.0413
23297W        W36711   2.329  15.209   5.270  0.0885 -0.0243 -0.0695
23298W        W36712   1.103  16.562   6.570  0.2230 -0.0730  0.0078
23299W        W36713  10.933   5.971  10.235 -0.0055  0.0056  0.1905
23300W        W36714  17.181   9.308   5.336  0.0817  0.3753  0.1693
23301W        W36715   0.351   1.366   6.306 -0.2942  0.0725 -0.1636
23302W        W36716   1.105   8.051  11.604 -0.1168  0.2345  0.1267
23303W        W36717  12.638  11.631  11.103  0.0667  0.2476 -0.0896
23304W        W36718   4.782   2.052  14.563  0.3000  0.1072  0.0954
23305W        W36719   9.086  13.080  14.865  0.2748 -0.1164  0.0243
23306W        W36720  12.328  14.867   0.797 -0.2516  0.1504  0.1356
23307W        W36721   7.348  10.425  12.472 -0.0917 -0.1625  0.2052
23308W        W36722   2.228   9.351   1.302 -0.0427 -0.2377  0.0667
23309W        W36723   7.534   9.410   5.501  0.2239  0.1918  0.3489
23310W        W36724   0.173  16.969  10.527 -0.0889 -0.0025  0.0056
23311W        W36725  14.087  15.513  15.271  0.3516 -0.4390  0.0349
23312W        W36726  12.198  18.112  11.743 -0.2712 -0.2479 -0.2571
23313W        W36727   8.055   1.369  10.578  0.1638 -0.2096  0.1795
23314W        W36728   1.838   1.886  16.265 -0.1718 -0.1100  0.0112
23315W        W36729  13.690  16.653   0.262 -0.0296  0.0386  0.0133
23316W        W36730  11.867   1.722   1.957  0.1327 -0.0753 -0.1203
23317W        W36731   9.267  16.954  11.950 -0.0626  0.0147 -0.1225
23318W        W36732   0.904   9.037  10.695 -0.1720 -0.0021 -0.0600
23319W        W36733  15.062   5.106  14.625 -0.5012 -0.0730  0.0749
23320W        W36734   0.353   2.011   4.047 -0.0026  0.2512 -0.1022
23321W        W36735  16.478   8.477   3.557  0.0110  0.0358  0.0665
23322W        W36736  15.801   1.568   2.832 -0.0622  0.2058  0.0501
23323W        W36737  14.219  17.649   4.616 -0.0073  0.0255  0.3230
23324W        W36738  15.266  15.724   0.378  0.0349  0.2739 -0.1288
23325W        W36739   5.315   8.308   5.495 -0.2691  0.1304  0.3571
23326W        W36740   8.421   3.426   5.337 -0.1642 -0.0738  0.0302
23327W        W36741  13.214   5.288   3.508 -0.2895 -0.0141 -0.0047
23328W        W36742   7.798  14.163   6.461 -0.2132  0.2000 -0.3775
23329W        W36743   6.484   2.421   3.178 -0.0971  0.1598  0.0870
23330W        W36744  10.059   2.944  14.068 -0.2022 -0.1796 -0.1337
23331W        W36745   7.355   2.014   3.226 -0.1061 -0.0246  0.1336
23332W        W36746   4.561  12.964   0.276 -0.5850  0.1230 -0.2800
23333W        W36747   8.172  11.421   1.863  0.1152  0.0706  0.0387
23334W        W36748   2.157   1.048  11.439 -0.1369 -0.0118  0.0209
23335W        W36749   8.165  10.951  14.257 -0.0666  0.1988  0.1178
23336W        W36750   3.723  13.301  12.223  0.1226  0.1566  0.0043
23337W        W36751  17.137  16.948  13.932 -0.0654  0.0299  0.2127
23338W        W36752  18.122  14.964  14.725  0.0780  0.3180  0.2166
23339W        W36753   4.087  15.302   1.996 -0.1537  0.0702  0.0821
23340W        W36754  12.717   8.541  16.175 -0.0332  0.4579 -0.0081
23341W        W36755   1.763   8.475   5.804  0.1451  0.1936 -0.1614
23342W        W36756   0.302   3.114   3.720 -0.0567 -0.1561 -0.2351
23343W        W36757   9.652  18.077   2.799  0.1966  0.0375  0.2522
23344W        W36758  17.145   2.859  15.301  0.2733 -0.0007 -0.0844
23345W        W36759  13.089   1.114   0.487 -0.2561 -0.0761  0.1585
23346W        W36760   3.886   5.491  11.304 -0.1982  0.3056 -0.0718
23347W        W36761   2.474  10.915   2.604 -0.1400 -0.3729  0.0565
23348W        W36762   0.160   2.625  10.710 -0.0787  0.0072  0.3297
23349W        W36763  15.203  13.810   1.064  0.0973  0.1283  0.2423
23350W        W36764   5.377   6.934  10.403 -0.0679 -0.1963  0.0132
23351W        W36765  11.201   3.996  13.659  0.1157 -0.1307  0.1288
23352W        W36766   5.953  15.745   1.743 -0.2087  0.1552 -0.3742
23353W        W36767  11.525   5.639   3.850  0.1709  0.0921 -0.0666
23354W        W36768   4.392  17.246  11.649  0.0021  0.1695 -0.4800
23355W        W36769   8.156   5.639   1.858  0.1627 -0.0154  0.0578
23356W        W36770  12.711  10.167  13.250  0.0884  0.0431  0.1179
23357W        W36771   3.210   0.215  11.536  0.0400  0.1918  0.0262
23358W        W36772  16.214  13.662   5.417 -0.2085  0.0565  0.0265
23359W        W36773   5.830   4.727  12.155 -0.0843 -0.3091 -0.2010
23360W        W36774  14.001  18.340  10.450  0.1186  0.1272 -0.2097
23361W        W36775   7.223  15.320   4.338  0.1569  0.2167  0.2059
23362W        W36776   6.430   6.115   3.758  0.0778  0.2826  0.3346
23363W        W36777   1.800  11.254   0.491  0.2717  0.3660 -0.0206
23364W        W36778   8.577  12.782   5.015  0.2767 -0.0039 -0.1917
23365W        W36779   0.816   4.444  12.965 -0.1241 -0.3166 -0.1089
23366W        W36780   1.734   5.382   3.818  0.2280  0.0394 -0.4111
23367W        W36781   6.829   7.361  11.352  0.0631  0.1167  0.3646
23368W        W36782   0.381  18.034  14.864  0.0353 -0.0989  0.0925
23369W        W36783  12.741  13.717   3.117  0.1917 -0.0880  0.2702
23370W        W36784   0.234  16.260  12.242  0.3031  0.2951  0.0444
23371W        W36785   6.095   6.321   0.127  0.1044 -0.0720  0.0486
23372W        W36786  11.063   5.253  10.419 -0.4302  0.3242 -0.0294
23373W        W36787   7.578   0.013  13.078 -0.1485  0.0468 -0.0925
23374W        W36788   2.090   2.603  13.104 -0.2504 -0.5130  0.1200
23375W        W36789  16.856   0.660   4.605 -0.2604 -0.2292  0.2128
23376W        W36790  14.745  15.541   3.159  0.2300  0.2541  0.0714
23377W        W36791   2.044   4.566  15.810  0.1071 -0.1345 -0.2122
23378W        W36792   9.869  10.968   3.882  0.3692  0.1247 -0.0163
23379W        W36793  15.900   3.914  11.391 -0.2592 -0.0079  0.1938
23380W        W36794  15.781   9.749   6.398 -0.1101 -0.3225 -0.0324
23381W        W36795   0.420  17.019   1.612  0.0465 -0.0569  0.1858
23382W        W36796  15.980   1.143   0.216 -0.0013 -0.1388 -0.1590
23383W        W36797   6.892  14.105   5.491  0.2759 -0.0532 -0.2363
23384W        W36798  11.747   1.120   2.389  0.0533  0.1259 -0.4749
23385W        W36799   3.905   9.322  15.371  0.0371  0.2451 -0.1307
23386W        W36800  10.991  10.047   3.587 -0.0219  0.2018 -0.0395
23387W        W36801   0.725   8.116   3.394 -0.1520  0.1992  0.0662
23388W        W36802  15.059  14.297  12.736 -0.1810  0.1021  0.1729
23389W        W36803  10.706  15.762   0.498 -0.1172 -0.1487  0.2646
23390W        W36804  10.183  13.314  11.307  0.0320  0.0138  0.1382
23391W        W36805   2.330  15.970  14.222  0.0178  0.0484  0.2229
23392W        W36806  12.557  13.882   4.763 -0.0273  0.1373 -0.0483
23393W        W36807   1.477  14.312  12.574  0.0466  0.0410  0.1276
23394W        W36808   1.068  10.139  14.351  0.2330  0.1541 -0.2658
23395W        W36809   1.124  14.841   0.574  0.0893  0.0341  0.3926
23396W        W36810  12.565   1.242   0.519  0.3195  0.1007 -0.3177
23397W        W36811  18.060   8.629   0.171  0.3992  0.2228 -0.1880
23398W        W36812   4.019  16.745  12.331  0.0042  0.1941  0.2083
23399W        W36813  16.274  16.102   1.308  0.0607 -0.1174 -0.2087
23400W        W36814   5.288   9.508  13.319  0.2009  0.2868  0.1049
23401W        W36815   0.589   8.769  10.991  0.4377  0.0167 -0.0992
23402W        W36816  16.654   3.889  13.251 -0.0991 -0.1184  0.2375
23403W        W36817   3.124   3.637   2.069  0.1679 -0.0749  0.0347
23404W        W36818   0.258  13.891   5.274 -0.0126 -0.1285  0.1438
23405W        W36819   7.978  11.791   4.250 -0.2256 -0.0200  0.1758
23406W        W36820  13.880   9.017   5.423  0.0198 -0.0036  0.1745
23407W        W36821   6.554   6.603  10.576  0.1827 -0.2169  0.2132
23408W        W36822  12.795  10.373  10.238  0.0930 -0.4177  0.3726
23409W        W36823  10.242   4.546  12.354 -0.0206  0.1377  0.2247
23410W        W36824   6.248   3.114  15.558 -0.2363  0.1228  0.4329
23411W        W36825  16.712  12.367   5.818  0.0383 -0.1187  0.3020
23412W        W36826   6.418   3.517  10.132  0.0800 -0.3131 -0.1618
23413W        W36827  12.007  15.813  16.016  0.1671 -0.2080  0.5190
23414W        W36828  16.508   8.622   2.857 -0.1697  0.3403 -0.2046
23415W        W36829   4.278   2.236   3.946  0.0794 -0.0923 -0.2116
23416W        W36830   3.657  12.785  10.501  0.2469  0.2793  0.1722
23417W        W36831  17.651  17.873   3.836  0.1219 -0.0726 -0.0291
23418W        W36832  16.891   2.656  13.626  0.3513 -0.1732 -0.1925
23419W        W36833  15.530   6.024   0.588  0.1678  0.0178  0.1408
23420W        W36834  16.657   0.098   4.957 -0.3744  0.1717  0.1775
23421W        W36835   7.935   5.195   3.007  0.0487 -0.1569 -0.0080
23422W        W36836  11.857  11.658  10.583  0.2537  0.0941 -0.0765
23423W        W36837  12.202   3.818   1.648 -0.0018  0.0276 -0.0612
23424W        W36838  10.702  17.906   3.495 -0.1161  0.1820  0.2023
23425W        W36839   0.128  10.084   5.598 -0.0100  0.3121 -0.1153
23426W        W36840  11.994  14.864  12.732 -0.2613 -0.0382  0.1645
23427W        W36841  10.766   0.829   5.694  0.3208  0.1580 -0.0053
23428W        W36842  15.581  12.800   2.283  0.0900 -0.0768  0.2353
23429W        W36843   3.078  10.533   0.677  0.1221  0.0042 -0.1798
23430W        W36844   9.429  14.381   3.250 -0.0957 -0.1929 -0.0049
23431W        W36845  18.309   8.483  15.571 -0.2394  0.1256 -0.2033
23432W        W36846  13.506   0.223   4.927 -0.0704 -0.4006  0.4471
23433W        W36847   0.801  15.234   1.433  0.0662 -0.0596  0.0170
23434W        W36848   9.236  15.306  14.575 -0.4030  0.4749 -0.1751
23435W        W36849  12.506  17.894   4.607  0.0691 -0.0829  0.0379
23436W        W36850   2.199  10.164   4.083 -0.2652  0.1406  0.1738
23437W        W36851  10.744   8.208  13.534 -0.2000  0.2423 -0.1686
23438W        W36852  14.145   9.499  15.592  0.3107  0.4579  0.2222
23439W        W36853  15.696   0.061  10.813 -0.2632  0.1765  0.0241
23440W        W36854  11.206  14.944  14.606  0.2225  0.0008 -0.1258
23441W        W36855   9.865   7.220  12.860 -0.1352 -0.2492 -0.3900
23442W        W36856  15.133   1.993   1.412  0.1352 -0.1027  0.0320
23443W        W36857   1.521   4.005  12.922  0.0176 -0.0555  0.0239
23444W        W36858   9.918   7.986  13.350  0.1314 -0.0891 -0.1796
23445W        W36859   3.333   3.779  13.468  0.2542  0.0984 -0.2614
23446W        W36860  10.271  17.748  14.039  0.1096 -0.1118 -0.2954
23447W        W36861   6.775   5.853  12.226  0.1391  0.1418 -0.0966
23448W        W36862  16.568   9.754  14.694  0.0105  0.1187 -0.0383
23449W        W36863  11.481   0.706  15.498 -0.0142 -0.0015  0.0649
23450W        W36864   3.755   1.562   4.953 -0.1617 -0.1318  0.1339
23451W        W36865  15.521  11.542  15.703 -0.0134 -0.1381  0.1332
23452W        W36866   7.123  16.847  15.661 -0.2352 -0.1950  0.4693
23453W        W36867   8.809  13.937   5.352  0.0091  0.3375  0.1192
23454W        W36868  17.140   1.031  12.449 -0.1947  0.0583  0.2162
23455W        W36869  18.312  11.694  14.290  0.0325  0.0992 -0.4083
23456W        W36870   5.255   4.364  15.734 -0.1465  0.0781  0.2369
23457W        W36871   3.445  13.535  10.930 -0.1080 -0.0687  0.1158
23458W        W36872   1.716  12.400   0.114 -0.0283 -0.0063  0.1806
23459W        W36873  12.884  17.609   4.319 -0.3427  0.1369 -0.0550
23460W        W36874   3.243   8.499  12.260  0.0768 -0.0990 -0.2216
23461W        W36875  15.617   6.654   2.841  0.1209  0.0579  0.1255
23462W        W36876  14.506   9.497  12.236 -0.0574 -0.2123 -0.0067
23463W        W36877   2.023   2.936   6.072  0.3953 -0.5781  0.1528
23464W        W36878   5.883   9.202   3.323  0.0763  0.2281  0.1646
23465W        W36879   7.967  15.195  15.062  0.0548 -0.2511 -0.1073
23466W        W36880   7.624   0.610   2.185  0.1723  0.1749 -0.3813
23467W        W36881  17.894  10.331  12.218  0.0809 -0.0282  0.1307
23468W        W36882  18.281  17.228   3.354  0.0419  0.2377 -0.0458
23469W        W36883   9.400  16.683  11.575  0.3211 -0.1779  0.2315
23470W        W36884   3.528   3.908  12.517 -0.0330 -0.1586  0.2873
23471W        W36885  11.820  14.205  15.614 -0.2855 -0.2222 -0.1264
23472W        W36886   6.217   1.277   0.673  0.0911  0.1951  0.1390
23473W        W36887  12.083   2.150   2.764  0.0030  0.1459  0.2717
23474W        W36888  10.954   2.610   0.360 -0.0227 -0.1419  0.2908
23475W        W36889  16.457   4.887  14.883  0.1082  0.0543  0.2866
23476W        W36890   3.317  11.560   0.273  0.2818  0.1889 -0.2566
23477W        W36891  11.931  12.425   3.673  0.0541 -0.0420 -0.0820
23478W        W36892   5.849   9.400   4.323  0.4488  0.2143 -0.2448
23479W        W36893  13.291   4.241   3.720  0.0451 -0.0216 -0.0760
23480W        W36894  15.043   4.288   4.124  0.0513  0.2667  0.2150
23481W        W36895  13.005   3.088   0.796  0.3864 -0.3585  0.2458
23482W        W36896  15.575   0.277   5.542 -0.0551  0.0723  0.0945
23483W        W36897   2.342  13.315  10.191 -0.0382  0.1943 -0.0489
23484W        W36898   5.792   6.709   4.214  0.4159  0.2455  0.0288
23485W        W36899   7.704   6.002   1.097  0.0443 -0.2619  0.2170
23486W        W36900   1.134   5.960   4.395 -0.0091  0.2802  0.4119
23487W        W36901   3.058  12.350   0.908 -0.0788 -0.1893  0.2894
23488W        W36902  11.590   6.879   0.700 -0.2515  0.0550 -0.0648
23489W        W36903   0.377   9.807   6.019 -0.1534 -0.1260 -0.2751
23490W        W36904   5.855   1.674   1.396  0.2143 -0.0001  0.0232
23491W        W36905  18.173   4.502  15.089  0.0303 -0.1578  0.0421
23492W        W36906   4.516  11.971  12.894  0.1931 -0.0963 -0.1677
23493W        W36907  14.618  11.743   2.389 -0.0606 -0.2996 -0.3014
23494W        W36908  18.448   1.990  12.474  0.0035 -0.0423  0.0907
23495W        W36909   5.128   7.344  11.325 -0.2991  0.0264 -0.1059
23496W        W36910  10.827  16.478   2.132 -0.3482  0.0691 -0.1558
23497W        W36911  10.360  15.090   2.074 -0.0173  0.2617  0.0957
23498W        W36912   9.020  11.675  10.793 -0.0548  0.3301  0.0266
23499W        W36913   1.315   9.879  11.902 -0.0225  0.0120 -0.0112
23500W        W36914   3.773   3.178   2.953  0.1531  0.0326  0.1850
23501W        W36915   0.310  11.219   2.645  0.1383 -0.2086  0.1299
23502W        W36916   5.455   8.186   2.429  0.1646 -0.2271 -0.0586
23503W        W36917   0.330  15.089  13.578  0.1662 -0.2398  0.3944
23504W        W36918  18.127   2.492   0.132  0.0700 -0.1606 -0.0763
23505W        W36919   8.219  18.100  10.929 -0.0763 -0.1624 -0.2456
23506W        W36920   7.931   1.483   4.587 -0.0272 -0.0063  0.1148
23507W        W36921   0.164   5.791   0.525  0.0109 -0.0105 -0.2766
23508W        W36922   1.031  14.529  11.436 -0.2175 -0.0415  0.1284
23509W        W36923   8.444  14.639  12.382 -0.1183 -0.0783 -0.0717
23510W        W36924  18.334   2.293   0.897 -0.1602  0.3607  0.2966
23511W        W36925  17.122  10.078   3.869  0.2922  0.2281  0.1105
23512W        W36926  13.864  12.970   2.909  0.2063 -0.1136  0.0760
23513W        W36927  10.004   7.224  15.902 -0.0830  0.0092  0.2359
23514W        W36928  10.385   0.170   5.124 -0.1742 -0.0357 -0.0778
23515W        W36929  17.522   9.290  11.717  0.1954  0.1751  0.2229
23516W        W36930   3.524  14.188  14.903  0.2795 -0.1566  0.0968
23517W        W36931  12.416   7.210  14.389  0.1283 -0.1859  0.0716
23518W        W36932  12.178  15.672   1.281  0.1976 -0.1668 -0.0837
23519W        W36933   0.166   1.965   1.307 -0.1383  0.0942 -0.0723
23520W        W36934  12.764  14.359   4.911  0.0012  0.1086 -0.2456
23521W        W36935   0.316   3.738   5.864  0.2218  0.1982  0.0997
23522W        W36936   5.239  18.194   4.840 -0.0012 -0.0602 -0.1433
23523W        W36937   8.794  16.193  14.405  0.1235  0.0589 -0.0355
23524W        W36938  10.446  15.907  12.771 -0.5728 -0.0707  0.0142
23525W        W36939  17.313  12.951   5.926 -0.1980 -0.2255  0.0582
23526W        W36940   8.244  15.867   4.315  0.1160 -0.0226 -0.0756
23527W        W36941  17.643   9.378  13.271 -0.1747 -0.0579 -0.2566
23528W        W36942  15.083   9.720   0.353  0.1755 -0.0052  0.0640
23529W        W36943  10.889   0.536   4.883 -0.3770  0.1024 -0.1259
23530W        W36944   4.176  12.686  13.943  0.0238 -0.0882  0.0412
23531W        W36945  15.841  16.256   4.702 -0.2962  0.1986 -0.1512
23532W        W36946  18.032   3.658   2.127 -0.0185  0.1113 -0.1646
23533W        W36947   4.195   4.083   0.606 -0.1251 -0.2268 -0.0428
23534W        W36948  11.933   4.663  10.180 -0.1442  0.3018 -0.1420
23535W        W36949  10.796   9.610   3.406  0.1294 -0.0011  0.0800
23536W        W36950   4.930  14.723   2.076 -0.0952  0.3600 -0.2127
23537W        W36951  17.566  10.231   4.087  0.1147 -0.0395 -0.3507
23538W        W36952   6.807   0.286  12.217 -0.1329  0.2067  0.0038
23539W        W36953   8.346   5.666  13.532  0.2083 -0.0912  0.3261
23540W        W36954   9.916  16.346   0.404  0.0738 -0.2929 -0.0193
23541W        W36955  17.669   5.247  13.535 -0.2633 -0.0409 -0.1711
23542W        W36956   4.719   8.993  10.696  0.1077 -0.0397  0.1816
23543W        W36957   9.447   5.231  13.348 -0.1421 -0.0596 -0.1207
23544W        W36958   9.345   1.933   0.633 -0.2822 -0.1443  0.0610
23545W        W36959  17.759   1.130  12.196  0.3798  0.1612 -0.0925
23546W        W36960   2.457  13.360   0.763 -0.0009 -0.1447  0.0597
23547W        W36961   2.709  18.394  15.135 -0.0744 -0.1824 -0.0453
23548W        W36962   5.872   6.855  12.497 -0.0497  0.2072 -0.2184
23549W        W36963   3.774   9.001   0.394  0.2104 -0.0472 -0.1852
23550W        W36964   3.943   9.376   3.490  0.0887 -0.0419  0.1925
23551W        W36965  14.333   1.945   1.251  0.1380  0.1437 -0.1878
23552W        W36966   1.163  16.024   0.260 -0.0068  0.1133 -0.0075
23553W        W36967   1.205  17.996   5.116  0.2197 -0.0468 -0.1999
23554W        W36968  13.422  12.646   1.605 -0.0071 -0.2434 -0.0755
23555W        W36969   5.546   8.631   3.986 -0.1751 -0.2048 -0.0532
23556W        W36970   9.660  15.695   4.323  0.0880 -0.1570 -0.1107
23557W        W36971   2.810   1.681  15.417 -0.0492 -0.1380 -0.0775
23558W        W36972  15.032   8.333  11.163 -0.0366  0.1113  0.0825
23559W        W36973  13.971  15.380   5.725  0.2264  0.1765  0.1627
23560W        W36974   2.672   3.842   2.170 -0.0093 -0.1124 -0.0471
23561W        W36975   5.805   8.731   6.333 -0.1369 -0.4082  0.0127
23562W        W36976   8.418   7.095  14.736  0.0725  0.0001  0.2757
23563W        W36977   8.734   6.750  15.040 -0.2766  0.2183  0.1429
23564W        W36978  15.378  11.431   3.547 -0.5626  0.0685 -0.1892
23565W        W36979   3.640   6.899  14.738  0.0655  0.0421  0.0689
23566W        W36980  15.528  11.178  11.726  0.0006  0.0976 -0.1705
23567W        W36981  14.089  13.422  13.181 -0.1465  0.0802 -0.0667
23568W        W36982  15.185   3.015  13.606 -0.1224 -0.1548  0.1216
23569W        W36983  14.349   7.869  12.922  0.1672  0.2477  0.3080
23570W        W36984  12.273  15.732   2.062  0.1660  0.4367  0.2629
23571W        W36985   2.229  14.847  11.272 -0.0091  0.3941 -0.1807
23572W        W36986   7.208   8.394  11.254  0.1024 -0.0030 -0.0879
23573W        W36987   5.287  14.895  11.850  0.0865  0.1986 -0.0150
23574W        W36988   8.442  13.016   1.700 -0.3832 -0.0698 -0.1351
23575W        W36989  15.712  17.780  15.751 -0.1345  0.1114 -0.2137
23576W        W36990  10.652  13.506   5.032 -0.1666 -0.2705 -0.1791
23577W        W36991  15.476   8.562   1.899  0.0085  0.2071  0.0269
23578W        W36992   1.349  13.468  15.940  0.1229  0.1789 -0.2739
23579W        W36993  17.343  17.826   2.291 -0.1972  0.2149  0.0961
23580W        W36994  17.974   2.268  14.766 -0.3314  0.4486 -0.1094
23581W        W36995   1.862  14.980  12.998  0.1853  0.1783 -0.0233
23582W        W36996  15.109   6.911   2.795 -0.1594 -0.3261  0.1879
23583W        W36997   5.225  15.937  13.577 -0.1077 -0.1410  0.2179
23584W        W36998   5.311   6.563  11.760 -0.1506  0.4227 -0.0789
23585W        W36999   5.984  17.315   1.446 -0.0350  0.1910 -0.1890
23586W        W37000   9.541  16.305   5.479 -0.0283 -0.2454  0.3145
23587W        W37001   7.929  10.735   0.289 -0.3263 -0.0978  0.0785
23588W        W37002   9.107  17.318   2.954 -0.1380  0.0162  0.0483
23589W        W37003   6.433  10.656  13.054 -0.1206  0.3004 -0.1177
23590W        W37004   0.453  16.762   4.649 -0.2767  0.1811 -0.4258
23591W        W37005  11.922   5.386  12.463  0.2867  0.0489  0.2019
23592W        W37006   4.752  17.524   2.553 -0.0908 -0.0529 -0.1219
23593W        W37007  13.621   8.493   2.734 -0.1277  0.2343 -0.2176
23594W        W37008   6.788   6.297  11.344 -0.1309  0.1765 -0.0981
23595W        W37009   8.333  17.103  14.830  0.2516 -0.1167  0.1161
23596W        W37010  15.704  10.889   1.277 -0.4778  0.2434  0.0401
23597W        W37011  14.223   6.800  15.359 -0.3271  0.1016  0.0175
23598W        W37012  18.079  11.221   3.219  0.3670 -0.0232  0.2591
23599W        W37013  15.126   8.619  14.098  0.1533 -0.1350  0.1820
23600W        W37014   3.714   3.083   4.190  0.2017  0.0663 -0.2701
23601W        W37015   4.843  14.537   4.922  0.2224  0.2171  0.0660
23602W        W37016   2.915  11.014  14.995 -0.1941 -0.0611 -0.1023
23603W        W37017  15.521   2.677   3.763 -0.2947 -0.3323  0.2453
23604W        W37018  18.310  16.048  13.582  0.0098 -0.0835  0.0787
23605W        W37019   6.983  10.457   2.340  0.0601 -0.1126 -0.1703
23606W        W37020   0.191  18.323   0.485 -0.4271  0.1728 -0.0750
23607W        W37021   7.838   7.133  15.117 -0.2477 -0.0297  0.3885
23608W        W37022   2.975  15.102   0.784 -0.0298  0.0864  0.1670
23609W        W37023   5.268   5.046   2.884  0.2266 -0.4129  0.2099
23610W        W37024  10.703   4.006   4.158 -0.0647 -0.1683 -0.0704
23611W        W37025  11.732   3.665   1.945  0.1343  0.1496  0.2278
23612W        W37026   6.639  17.407  13.813 -0.2541 -0.1280  0.0674
23613W        W37027  16.506  11.190  14.472  0.2266 -0.1368  0.2265
23614W        W37028  16.211  16.331  11.738  0.2792 -0.1336  0.0836
23615W        W37029  11.654  10.691   3.584 -0.0388 -0.1803 -0.1727
23616W        W37030   3.169   1.332   5.842 -0.0139  0.0227 -0.2623
23617W        W37031   7.165  12.523  16.107  0.2672 -0.2002  0.0038
23618W        W37032   6.969   7.093  15.113 -0.1976 -0.0002 -0.1714
23619W        W37033  16.009   7.319   2.288  0.2697 -0.1531 -0.0249
23620W        W37034  14.881  15.041   3.136 -0.0162 -0.0582 -0.4303
23621W        W37035   6.500  16.794   5.188  0.1680 -0.1510 -0.0137
23622W        W37036   7.724  15.741  13.741 -0.0701 -0.2095  0.1914
23623W        W37037  17.475  13.413  15.687  0.3660 -0.0281  0.2779
23624W        W37038   2.977   5.055   0.516 -0.0893  0.3896 -0.0039
23625W        W37039   9.704  16.094  16.253  0.0974 -0.2247 -0.0560
23626W        W37040  10.649  11.828   1.610 -0.1768 -0.0428 -0.0570
23627W        W37041   5.592   6.225   4.277  0.1611 -0.1035 -0.2280
23628W        W37042  14.156  13.634   0.992  0.0159 -0.5065 -0.0908
23629W        W37043  13.608   5.316   4.467 -0.0417  0.2026 -0.1632
23630W        W37044   2.762   4.675  13.911 -0.0892  0.0929 -0.1275
23631W        W37045   2.126  10.370   0.997 -0.1462  0.0337 -0.2332
23632W        W37046   5.978   8.538  13.792  0.1381  0.1477  0.0722
23633W        W37047  12.683   4.626  13.078  0.1228 -0.0920 -0.3788
23634W        W37048  10.124  16.100  15.108 -0.0645  0.1874 -0.0036
23635W        W37049   3.841  18.204   5.552 -0.0781  0.3092  0.1195
23636W        W37050   9.623   2.530  10.711  0.0597  0.0106 -0.2700
23637W        W37051  14.125   1.804  15.079 -0.2547 -0.1056  0.0033
23638W        W37052  12.948   2.221  11.547  0.1665  0.2223 -0.0456
23639W        W37053   8.008  12.719  11.547  0.2988 -0.0291 -0.3657
23640W        W37054  11.588  10.219  12.464 -0.0582  0.0658 -0.1172
23641W        W37055  16.238  13.796   3.741 -0.3225 -0.1102  0.1249
23642W        W37056   8.323  12.775  14.285 -0.1026  0.1172 -0.2204
23643W        W37057  17.886  14.183  12.987 -0.0193 -0.0883 -0.1701
23644W        W37058  14.623   9.901   2.589  0.0453  0.1385  0.1482
23645W        W37059  13.102  17.325  11.485 -0.0285  0.0317  0.2893
23646W        W37060   8.529   6.769   3.179  0.0875  0.0734  0.1875
23647W        W37061   7.041   1.077  11.787 -0.1491  0.1483 -0.3997
23648W        W37062   7.894   2.522   3.203  0.0958  0.0524  0.0623
23649W        W37063   6.929   1.938   5.239  0.0532  0.1065  0.1386
23650W        W37064   8.340  16.711   0.760 -0.0362 -0.0032  0.0342
23651W        W37065  12.567   9.772   6.299  0.0946  0.4760  0.0483
23652W        W37066  16.475   3.511  12.038  0.0139 -0.2421  0.0563
23653W        W37067   1.808   4.803   6.305  0.0667  0.1186  0.0980
23654W        W37068   7.541   1.185  13.205  0.1449  0.2596  0.1077
23655W        W37069  11.981   0.624   3.446  0.2495 -0.2262 -0.0684
23656W        W37070   4.339  15.276   3.964  0.0790 -0.3347 -0.4691
23657W        W37071   8.449   7.664   0.476  0.1909  0.0976  0.2300
23658W        W37072   5.430   0.859  15.910 -0.0908  0.2139  0.2343
23659W        W37073   6.397   2.716   5.469  0.0152 -0.0783 -0.1324
23660W        W37074   1.179   1.356   4.461  0.0491  0.1484 -0.0981
23661W        W37075   4.897   6.127  11.845  0.0820  0.0248  0.1673
23662W        W37076  10.868   9.388  15.320 -0.0375 -0.0161  0.2720
23663W        W37077  10.099   1.702  15.017  0.3733  0.1840 -0.0278
23664W        W37078  11.408  13.312  12.903 -0.0013  0.0418  0.0191
23665W        W37079   9.430  17.114  15.482 -0.2286 -0.0933  0.0703
23666W        W37080   6.313  17.628  14.619  0.1487  0.1791 -0.1477
23667W        W37081  12.809  13.475  10.814 -0.1324  0.2031 -0.2956
23668W        W37082  14.320  17.986   3.237  0.0278  0.0794  0.2442
23669W        W37083  10.604  15.263  13.068  0.1934 -0.2601  0.0572
23670W        W37084  11.770   0.888   2.982  0.0102 -0.3580  0.1758
23671W        W37085   4.315   4.699  15.066  0.0373  0.0119 -0.0754
23672W        W37086  18.011  14.171   1.248  0.0008 -0.2222 -0.0447
23673W        W37087   5.986  12.771   4.943 -0.1235  0.2869 -0.1862
23674W        W37088  12.558   7.188  16.238  0.3219 -0.1426  0.0269
23675W        W37089   0.819   4.306   1.034 -0.1833 -0.0772 -0.2299
23676W        W37090   6.048  12.344  14.672 -0.1580 -0.0906 -0.1443
23677W        W37091  15.178   8.269  15.291  0.0246  0.2652  0.1761
23678W        W37092  14.819   9.788  16.035 -0.1843 -0.0719  0.0083
23679W        W37093  11.870   0.691  15.260  0.0659 -0.0031 -0.0312
23680W        W37094   3.751   2.523   3.972  0.2302 -0.0805  0.1953
23681W        W37095   2.738   9.865  13.707 -0.2168 -0.0049 -0.0526
23682W        W37096  10.279  16.521  12.163 -0.1044 -0.0950  0.2603
23683W        W37097  12.486  14.826  12.798  0.2018  0.0343  0.3633
23684W        W37098  12.045   0.372  16.267 -0.2199 -0.0352 -0.0565
23685W        W37099   3.095   9.564  12.029 -0.1352  0.0045 -0.0201
23686W        W37100  17.449   4.794  12.297 -0.3022  0.1619 -0.3853
23687W        W37101  17.916   3.380  11.458 -0.1047  0.0326  0.1932
23688W        W37102   2.438   3.887  10.654  0.0448  0.0453 -0.0297
23689W        W37103   2.662   5.546   1.188 -0.2048  0.0748 -0.1831
23690W        W37104  13.972  18.439   1.321 -0.2470 -0.0049  0.2673
23691W        W37105  11.982   1.932  11.759  0.1839  0.1644 -0.1765
23692W        W37106   3.606  13.560   2.604 -0.2296 -0.1429 -0.0528
23693W        W37107   4.533  10.666  12.531 -0.1095 -0.2245  0.0865
23694W        W37108  17.832   8.260   4.367  0.1117  0.0985  0.2457
23695W        W37109   5.970  13.959  12.871  0.2545  0.2249  0.2514
23696W        W37110   9.310  10.454   4.026 -0.2027 -0.0264  0.3502
23697W        W37111   1.497   7.539   1.157 -0.0194  0.0581 -0.1428
23698W        W37112   5.086   2.787   4.185 -0.0512  0.0798  0.2175
23699W        W37113  12.839   2.533  16.101  0.1206 -0.2197 -0.0363
23700W        W37114   4.618  15.554   1.804 -0.1327  0.1153  0.1238
23701W        W37115   5.523   5.766  13.785  0.1711  0.0040 -0.2668
23702W        W37116   3.297   5.273  11.987 -0.3532  0.1458  0.1382
23703W        W37117   3.324   1.787   5.805  0.0668 -0.0724  0.1704
23704W        W37118   4.124  16.764   4.546 -0.2195  0.0193 -0.1634
23705W        W37119  14.181  10.278   3.271  0.3491  0.1862  0.2912
23706W        W37120  14.211   3.953   4.754  0.1109 -0.1186  0.0234
23707W        W37121  15.106   1.186  14.875 -0.3069  0.0707 -0.0782
23708W        W37122   0.898  15.117  11.528  0.1934 -0.2082  0.3383
23709W        W37123  11.857   0.265   4.937 -0.3036 -0.0499 -0.0566
23710W        W37124  14.349   2.479   3.051 -0.0598  0.0023 -0.2846
23711W        W37125   9.951   3.976   0.627 -0.1296  0.0484  0.0258
23712W        W37126  11.753  13.733  13.704  0.5152  0.3171  0.0215
23713W        W37127  14.921   3.334  14.922  0.0109 -0.1639  0.2207
23714W        W37128   5.267   6.831  14.015 -0.0721 -0.0868  0.2050
23715W        W37129   5.874   3.235   0.721 -0.1347 -0.1309 -0.1335
23716W        W37130  12.727  18.096  15.120  0.1713  0.0998 -0.4254
23717W        W37131   3.765   8.169   0.629 -0.0242  0.0635 -0.0774
23718W        W37132   4.670   6.450   3.588 -0.0521  0.1821 -0.0817
23719W        W37133  14.893  16.451   3.308 -0.2206  0.2500 -0.2498
23720W        W37134  15.278   6.000   1.848 -0.2021 -0.0653  0.3184
23721W        W37135   5.402  12.509   0.782 -0.0351 -0.0519 -0.0055
23722W        W37136   4.883  12.071  12.110  0.0630  0.1846 -0.3891
23723W        W37137  11.517  12.703  10.430 -0.0079  0.2824 -0.0281
23724W        W37138   5.694   9.532   1.319  0.3112 -0.1621  0.0011
23725W        W37139  12.084   1.200   5.654  0.0053  0.1000 -0.0619
23726W        W37140   2.238   5.496  15.219 -0.0804 -0.3134  0.0370
23727W        W37141  11.201   9.712   2.334  0.2610  0.1692  0.0878
23728W        W37142  17.447  13.475   5.343 -0.1729  0.0607 -0.5094
23729W        W37143   6.993  18.271   2.480 -0.1550  0.1188 -0.0415
23730W        W37144  12.969  10.115  10.678 -0.3550  0.0848  0.2674
23731W        W37145  16.613   6.363  16.270 -0.0915  0.1560  0.0049
23732W        W37146  11.585   6.213  12.525  0.1845  0.0950  0.0746
23733W        W37147   3.851   2.340  11.288 -0.2707 -0.2410  0.1710
23734W        W37148  13.133  11.329   1.641  0.2214 -0.1628  0.1475
23735W        W37149   6.993   8.169   6.185 -0.0912  0.1429 -0.3250
23736W        W37150   1.026   3.183   0.060 -0.0829  0.2348  0.0864
23737W        W37151  11.144   9.332   3.245 -0.1038  0.1054 -0.2309
23738W        W37152   2.058  11.136   4.314 -0.1745 -0.2949  0.2226
23739W        W37153   5.975   0.537  15.352  0.0579  0.0439  0.4291
23740W        W37154   5.678   0.470  11.613 -0.2534 -0.0735  0.2303
23741W        W37155   5.069   7.240  13.741  0.2419  0.1487 -0.1502
23742W        W37156   9.696   8.021   2.546  0.2536 -0.3410 -0.2803
23743W        W37157   2.743  13.165  13.275  0.0575  0.0033  0.2981
23744W        W37158   1.823  12.697   0.567 -0.1585  0.1022  0.0438
23745W        W37159   2.514   6.421   0.130 -0.2368 -0.0857 -0.1215
23746W        W37160  15.784   1.842  13.566  0.0440 -0.0591 -0.0568
23747W        W37161   3.946   7.962  11.686  0.0319 -0.0815  0.0572
23748W        W37162  16.208   4.414  14.907  0.0002 -0.1446  0.0356
23749W        W37163   2.030   0.498  13.327  0.0852 -0.1167  0.0795
23750W        W37164  17.741  18.309   5.064  0.0543 -0.2162 -0.1114
23751W        W37165  15.358   0.935  13.916  0.2851  0.3609 -0.1806
23752W        W37166  18.156  10.188   5.308  0.0572 -0.1460 -0.0525
23753W        W37167   9.361   8.312  14.081  0.0573  0.1147 -0.1834
23754W        W37168  15.414   5.149   3.721  0.0394  0.1827 -0.1058
23755W        W37169  10.634  12.077   2.061  0.1178  0.1017 -0.1594
23756W        W37170  18.073   0.905   2.490 -0.1016 -0.2270 -0.1220
23757W        W37171   1.851  15.943  14.399  0.2097  0.1335 -0.1066
23758W        W37172  17.090   0.487  15.004  0.2422 -0.0824  0.1060
23759W        W37173   3.074   4.107   2.310  0.0345 -0.0857 -0.4337
23760W        W37174   6.765   1.553  14.311  0.2818  0.4339 -0.0422
23761W        W37175   9.325  11.286   9.958  0.0885  0.2148 -0.0729
23762W        W37176   5.598   1.538   5.942  0.1653  0.0919 -0.3321
23763W        W37177   9.890  16.537  11.589  0.0090  0.0634 -0.0772
23764W        W37178   3.434   7.270  11.356 -0.0110 -0.0697  0.0206
23765W        W37179   2.799   4.822  13.384  0.1878  0.0275 -0.1641
23766W        W37180  15.253  10.456   6.112 -0.3108 -0.0334 -0.0481
23767W        W37181   6.155   2.409   0.851 -0.2409  0.3467  0.1528
23768W        W37182   1.456   2.241  11.694 -0.2305 -0.0234  0.1203
23769W        W37183   1.741  16.175  13.638 -0.3148  0.3112 -0.2872
23770W        W37184  11.546  16.087   3.719 -0.1350 -0.1341 -0.1231
23771W        W37185   8.571   2.328  12.497  0.0166  0.2489 -0.2549
23772W        W37186  17.970   3.777  15.743  0.1368 -0.0478  0.1073
23773W        W37187  11.319  12.787  11.999 -0.2532 -0.0872  0.1202
23774W        W37188  13.958   5.691  13.315  0.1181 -0.1342 -0.1443
23775W        W37189   3.134  16.946   3.917 -0.0533 -0.1075 -0.3022
23776W        W37190   6.946  17.647  15.096  0.3485  0.0933  0.2396
23777W        W37191  14.658   7.011  13.189 -0.0097  0.0543  0.1810
23778W        W37192   1.954   5.485   1.980  0.0289 -0.1381  0.1290
23779W        W37193   1.171  13.028  12.414  0.1880  0.0956  0.1463
23780W        W37194  16.566   0.134   1.886  0.1579 -0.2206  0.0207
23781W        W37195  11.497  13.633   9.788 -0.0200  0.1475 -0.1417
23782W        W37196  15.338  13.616  11.492  0.1255  0.0534  0.0025
23783W        W37197   9.218  11.906   9.857  0.0411 -0.0175 -0.0566
23784W        W37198   8.567  13.025  10.710 -0.1132  0.4505 -0.0474
23785W        W37199   3.646  17.246   1.837  0.2348 -0.2822  0.1108
23786W        W37200   9.123   0.774  11.180  0.0725 -0.0877  0.2640
23787W        W37201  13.997  18.272   3.453  0.0208 -0.2485  0.0467
23788W        W37202   6.005   7.866  11.728 -0.1075 -0.4144  0.3876
23789W        W37203  11.068  17.510  12.091  0.1338  0.1857  0.1016
23790W        W37204  14.398  16.569   3.281  0.1315  0.3007 -0.0679
23791W        W37205   1.727  14.218  14.812  0.0185 -0.0690  0.1726
23792W        W37206  12.112   6.972  12.250  0.3679  0.2620 -0.3446
23793W        W37207   6.184   9.353  13.731  0.0186  0.0472 -0.1160
23794W        W37208   9.523  17.969   3.666 -0.0060 -0.1381  0.0825
23795W        W37209   0.462  16.292   3.366  0.0623  0.0369  0.3166
23796W        W37210   6.944   8.767   0.884  0.2831  0.4417  0.2375
23797W        W37211  13.114   5.844   0.801 -0.2340 -0.1905  0.0621
23798W        W37212   4.114  10.757   3.555 -0.2738  0.0003  0.0770
23799W        W37213  11.510   5.538  15.046  0.0068  0.2614  0.3032
23800W        W37214  16.171   7.277   5.468  0.2087  0.2493  0.0303
23801W        W37215  14.926   5.144   0.981 -0.0490  0.0159  0.3408
23802W        W37216   0.450  17.877  11.969  0.1484  0.0591 -0.3854
23803W        W37217   7.439   4.244  12.385  0.0195 -0.1556  0.1681
23804W        W37218  17.515  17.662  12.640 -0.0302 -0.0307 -0.1559
23805W        W37219   2.545  10.521   3.824  0.1835 -0.3951  0.0460
23806W        W37220   2.831   9.231   1.770 -0.4194  0.0472  0.1306
23807W        W37221   6.465   7.744  13.771  0.1487 -0.1643 -0.0091
23808W        W37222  17.303   0.734  14.577  0.3778  0.0271 -0.3541
23809W        W37223  16.563  15.914  11.801 -0.3067 -0.0790  0.1233
23810W        W37224  15.845  13.000   3.232 -0.2959 -0.2710  0.3497
23811W        W37225  16.550  12.414  13.204  0.1810 -0.1445 -0.0281
23812W        W37226  14.730  15.788  11.914  0.0385 -0.1401 -0.1058
23813W        W37227  13.419   3.969   5.748 -0.1037 -0.0577  0.0504
23814W        W37228   3.273   2.610   0.676 -0.0011 -0.0898  0.0048
23815W        W37229   8.579   4.806   3.356 -0.3863  0.0260 -0.0955
23816W        W37230  11.271  12.323  12.101 -0.0907  0.2237  0.1059
23817W        W37231  10.691  14.415   0.128  0.0771 -0.1246 -0.1157
23818W        W37232   9.659  15.910  14.881 -0.1440 -0.1655 -0.1970
23819W        W37233  13.069   7.287   2.380 -0.1011 -0.2138  0.1135
23820W        W37234   7.222  13.798   4.171 -0.1379 -0.0789  0.3489
23821W        W37235  16.426   7.357   1.971 -0.1759 -0.1262 -0.1605
23822W        W37236   2.441  15.851   3.265 -0.0224  0.2998  0.2465
23823W        W37237   7.309  14.278   5.216 -0.2094  0.1647 -0.1680
23824W        W37238  10.030   9.152  15.847 -0.5242  0.3369  0.3275
23825W        W37239  14.259  17.849  13.229  0.1081  0.1331 -0.2429
23826W        W37240  17.089   5.710   1.646 -0.0774  0.0548 -0.0734
23827W        W37241  12.371  14.636  15.348  0.0979  0.0214 -0.1472
23828W        W37242   2.928  11.678   3.793 -0.2666 -0.1425 -0.0838
23829W        W37243   4.818   6.175   5.892 -0.0628 -0.1412 -0.0860
23830W        W37244  15.678  17.965   3.630  0.1117 -0.1408 -0.0772
23831W        W37245   4.287  16.854  12.811  0.2047  0.3404 -0.1075
23832W        W37246   8.014  18.068   0.066 -0.0365 -0.2001  0.2895
23833W        W37247   2.710   9.734  11.762  0.1262 -0.1028  0.2096
23834W        W37248   3.826   6.520  12.639 -0.0419 -0.0895  0.0134
23835W        W37249   4.960  17.715   1.765  0.1154 -0.0115  0.3900
23836W        W37250   9.408  16.438   4.956  0.0148 -0.1781  0.2666
23837W        W37251   8.550   1.405  15.201 -0.2145  0.3118 -0.1030
23838W        W37252   0.223   5.157  15.171 -0.2302 -0.1298  0.0270
23839W        W37253   3.669  15.110   0.317 -0.2342  0.3407 -0.0603
23840W        W37254   7.578   1.730   5.119  0.0061  0.3014 -0.0690
23841W        W37255  12.025  12.098  13.865 -0.0391  0.0799  0.2286
23842W        W37256   8.760   7.550  13.650 -0.0496  0.1468  0.0628
23843W        W37257  16.171  16.559   2.130 -0.0353 -0.1505  0.2680
23844W        W37258   9.714  18.385   4.524  0.0663  0.2870 -0.0288
23845W        W37259   8.398   1.307   2.606  0.2721  0.1386 -0.2757
23846W        W37260   7.858   7.925   3.210 -0.1040 -0.0129 -0.1481
23847W        W37261  10.952  15.655  11.154  0.1467 -0.2130  0.3364
23848W        W37262  15.804  13.009   9.963  0.1501 -0.3771  0.0348
23849W        W37263   8.430  15.121   4.870  0.1908  0.1771 -0.2636
23850W        W37264  13.516   8.842  12.749 -0.3432  0.2119  0.4374
23851W        W37265  15.046  15.001  13.558 -0.0514 -0.1183 -0.0568
23852W        W37266   4.512  11.726  15.058  0.0372  0.0366 -0.0323
23853W        W37267   2.056  16.293  14.680 -0.3501 -0.0429 -0.1108
23854W        W37268  15.226  16.759   1.548  0.2602  0.0575  0.2703
23855W        W37269  18.059  17.905  14.476  0.3923 -0.0249 -0.3236
23856W        W37270   5.080  10.481   4.826 -0.0877  0.4010 -0.0010
23857W        W37271   6.031   7.618  13.499  0.1835  0.0639  0.1027
23858W        W37272   4.662   6.649   0.595  0.0369  0.0875  0.1582
23859W        W37273   0.513   5.739  13.714  0.3353  0.0829 -0.1168
23860W        W37274   4.557  11.277  13.858  0.1048 -0.1362  0.3132
23861W        W37275  14.723   6.348  13.691  0.0721 -0.0738 -0.0016
23862W        W37276  17.252  14.954   3.693  0.1566  0.3157  0.2202
23863W        W37277  10.059  12.407  12.618 -0.1455 -0.1724  0.2959
23864W        W37278   5.746  16.550   2.808  0.0754 -0.1570  0.2777
23865W        W37279   1.481  11.092  12.768 -0.4875 -0.0948  0.2437
23866W        W37280  14.977   1.510   3.286 -0.0773  0.1536 -0.2291
23867W        W37281  12.942  14.817  15.446 -0.2283 -0.3634  0.0029
23868W        W37282  14.190   8.625  14.237  0.0672 -0.0089 -0.0291
23869W        W37283   2.355  14.292   1.200  0.0110 -0.0901 -0.3297
23870W        W37284   2.662  15.004   0.400  0.2792  0.2555 -0.2347
23871W        W37285   0.557   5.165  15.505  0.0010 -0.3085 -0.1848
23872W        W37286  10.653  16.327  14.284  0.2842 -0.0512  0.3090
23873W        W37287   9.808   7.945  15.972 -0.1824  0.1289 -0.0956
23874W        W37288   2.782   7.443   3.311 -0.0141  0.1284 -0.1489
23875W        W37289   4.006  15.212   2.486 -0.2598 -0.2691  0.2710
23876W        W37290   1.232   3.574   3.601  0.1583 -0.1167 -0.3706
23877W        W37291  13.323   0.285   3.928  0.0241  0.0674 -0.1446
23878W        W37292  10.455   4.722  11.850  0.3108 -0.1179 -0.0911
23879W        W37293   0.644  17.421  12.581 -0.2064  0.0370 -0.1370
23880W        W37294  15.677  14.179  10.639 -0.1142 -0.0195 -0.1414
23881W        W37295  13.369  13.194  15.106  0.1714  0.0882  0.0282
23882W        W37296  15.554   2.821   3.255 -0.0391 -0.1268  0.1029
23883W        W37297   0.562   2.843   2.647  0.1562  0.3310 -0.1591
23884W        W37298  13.393  13.262  12.223  0.0392  0.0414 -0.0530
23885W        W37299   0.305  13.409   0.989 -0.1293 -0.3160 -0.1175
23886W        W37300  17.795   4.417  14.802  0.0176 -0.1587 -0.0185
23887W        W37301   8.841   7.151   5.605 -0.0931  0.0619 -0.2976
23888W        W37302   4.941   3.943  16.062 -0.3435 -0.4369 -0.1533
23889W        W37303   1.256  16.413  10.897 -0.5501  0.2658  0.0972
23890W        W37304   9.697   5.398   2.484 -0.0528 -0.0693  0.0475
23891W        W37305   7.484  17.364  14.182 -0.1225  0.0300 -0.1050
23892W        W37306   5.188  10.244  12.126  0.1436  0.0084 -0.0902
23893W        W37307   6.809   5.875   1.308 -0.0802  0.0531  0.1031
23894W        W37308  16.841  10.387  11.296  0.1828  0.1415  0.1061
23895W        W37309  13.822   0.210   3.703 -0.0953  0.2345 -0.0214
23896W        W37310   6.771   9.134   4.476 -0.0069 -0.2448  0.3413
23897W        W37311   1.303  17.546   2.456  0.2345  0.0212 -0.0152
23898W        W37312   0.847  17.373   2.658  0.2335 -0.1710  0.2853
23899W        W37313   0.163   3.539   1.383  0.1311 -0.2164 -0.1540
23900W        W37314   9.050  11.891  14.803  0.1277 -0.0059 -0.0026
23901W        W37315   3.600   2.948   0.865 -0.1340 -0.2515  0.4986
23902W        W37316   1.622   0.729  14.698 -0.3302  0.0916  0.2191
23903W        W37317   7.709   9.724   2.300  0.0310 -0.0882 -0.1027
23904W        W37318  13.849  12.232  11.551 -0.1835 -0.0690 -0.2769
23905W        W37319   9.157  16.006   5.223  0.5100  0.1506  0.1266
23906W        W37320   0.195   9.919  14.125  0.1283 -0.3193 -0.0402
23907W        W37321  16.134  12.677  12.964 -0.2558  0.1196 -0.1122
23908W        W37322  12.941  17.561   3.430  0.2423  0.0598  0.0136
23909W        W37323  15.709   7.722  14.073 -0.0669 -0.1964  0.1367
23910W        W37324   6.864   8.248   4.890 -0.0945  0.0313  0.0491
23911W        W37325   1.720  10.252  10.945 -0.0456 -0.1588 -0.0433
23912W        W37326   8.030   1.067   3.548 -0.0006 -0.1295 -0.2898
23913W        W37327  12.802  18.050  11.232 -0.1908  0.0194 -0.2980
23914W        W37328   3.944  12.154   0.931 -0.0353 -0.1142 -0.0783
23915W        W37329  11.259  15.532  14.647  0.2283 -0.0186  0.0634
23916W        W37330   0.076   4.400  16.031 -0.1324 -0.0887 -0.3829
23917W        W37331   3.421   2.486   3.616  0.1072  0.1531 -0.2821
23918W        W37332   5.359  11.584   9.692 -0.0735  0.1653  0.0404
23919W        W37333   5.714   9.924  10.724 -0.0362 -0.2149  0.2886
23920W        W37334   9.733  13.734   0.237 -0.2084 -0.0899  0.2063
23921W        W37335   8.330  16.860  13.410  0.0732 -0.0349  0.4720
23922W        W37336   2.408  10.063   0.253 -0.1392 -0.0836  0.1979
23923W        W37337  11.756   8.618  15.990 -0.0368  0.1486 -0.2120
23924W        W37338   4.528  12.210  15.966  0.2785 -0.0749 -0.1315
23925W        W37339  10.266   6.955  12.665  0.0236  0.0842 -0.4046
23926W        W37340  15.764   9.940   1.738 -0.0573  0.0427 -0.1991
23927W        W37341  18.098   3.923   5.135  0.2502 -0.3545 -0.0975
23928W        W37342  15.146  13.523  15.654  0.1037  0.0172 -0.1484
23929W        W37343  13.114   1.010  15.656  0.0458  0.0661  0.1260
23930W        W37344  16.886   3.228   2.862 -0.1128 -0.1879 -0.0268
23931W        W37345   6.295   8.431  15.751 -0.0686 -0.0542  0.2903
23932W        W37346  11.435   7.363   4.887 -0.1670  0.0237 -0.1361
23933W        W37347   9.355   1.366   2.568 -0.0160 -0.0234 -0.0397
23934W        W37348   9.418   0.645   1.043 -0.1299 -0.0384  0.0400
23935W        W37349   0.249   2.819   1.606 -0.0359 -0.4359  0.2512
23936W        W37350  16.842   2.561   0.538  0.1734 -0.1001 -0.2365
23937W        W37351   7.252   9.142  10.695  0.0367  0.2570  0.2776
23938W        W37352   9.298   2.755   3.547  0.2945 -0.1603 -0.0194
23939W        W37353  11.067  14.130  16.258  0.1996  0.0904 -0.1791
23940W        W37354   0.442  10.480  15.478  0.1015 -0.1531 -0.2490
23941W        W37355  16.177  12.903  15.840 -0.0733  0.1283  0.2227
23942W        W37356   6.210  13.147  10.909  0.1941 -0.0634 -0.0635
23943W        W37357  17.256  18.005   5.818  0.0585  0.0974  0.2118
23944W        W37358   0.766  16.713   3.398  0.1457  0.0350  0.0578
23945W        W37359   0.250  10.955   1.581 -0.1787  0.0783  0.0211
23946W        W37360   5.958  10.338  14.281 -0.1324  0.0177 -0.1453
23947W        W37361   4.563  16.821  14.907  0.0619 -0.0234  0.1185
23948W        W37362  17.923   0.333   5.030 -0.0973 -0.1364 -0.1515
23949W        W37363   5.044  13.040  13.697  0.1568  0.5321  0.0476
23950W        W37364  12.281   5.158   5.025  0.1108  0.0728  0.1501
23951W        W37365  15.592   6.329  14.167 -0.0056 -0.1046 -0.0014
23952W        W37366   5.756   3.422  16.172  0.1791 -0.1384 -0.0250
23953W        W37367   5.309  10.882   4.955 -0.1713 -0.1273  0.2857
23954W        W37368  15.076   7.712  14.442 -0.0516  0.2650  0.0481
23955W        W37369  13.711  17.468   3.648  0.0561  0.1408 -0.1968
23956W        W37370   0.588   8.088   6.494  0.3554  0.1173  0.0965
23957W        W37371   8.733  14.733  13.985 -0.0024  0.0394 -0.2391
23958W        W37372   1.135  16.506  15.242  0.1299  0.2147  0.1362
23959W        W37373  11.901  15.081   0.971  0.2079  0.1176  0.0373
23960W        W37374   8.094   8.013  13.758 -0.1449 -0.1029  0.1568
23961W        W37375   0.603   0.938   1.689 -0.1054 -0.1571 -0.1153
23962W        W37376   3.175   5.809  12.364  0.0027  0.2466 -0.0936
23963W        W37377  12.116   9.150  10.516  0.1470  0.0162 -0.4831
23964W        W37378   7.688   5.413   3.490 -0.2027  0.0651  0.0457
23965W        W37379  18.336  17.817  14.878  0.2282  0.3763 -0.1584
23966W        W37380   4.546  16.556   1.333  0.0429  0.1206 -0.0332
23967W        W37381   8.050  14.802   4.064  0.0836  0.2204  0.2038
23968W        W37382  11.774   8.646  14.435 -0.0898 -0.1729 -0.6081
23969W        W37383   1.895  14.445  12.969 -0.2450 -0.2358  0.0257
23970W        W37384  17.865   5.268  11.674 -0.0216 -0.2731  0.1248
23971W        W37385  14.878  10.245   0.287  0.0136 -0.1982 -0.2665
23972W        W37386  12.870  13.422  15.738  0.2050  0.2227  0.1409
23973W        W37387  10.467  16.934  15.274  0.1714 -0.0530 -0.1230
23974W        W37388   4.192   7.824   0.065 -0.1874  0.0570 -0.1207
23975W        W37389  17.210   5.316  13.689  0.0693 -0.4257 -0.0169
23976W        W37390   3.884  10.822   4.261 -0.3179  0.1304  0.2512
23977W        W37391   2.017  17.665  15.129  0.0307  0.0044 -0.1522
23978W        W37392  12.951   9.727   0.849  0.0587 -0.3165 -0.3801
23979W        W37393   8.161   0.142  13.875 -0.0954  0.0714  0.0147
23980W        W37394  10.648   8.176   4.559 -0.0977  0.0268  0.0494
23981W        W37395  11.582   7.223  13.096 -0.2029  0.1241 -0.4669
23982W        W37396  16.730   4.506   5.989 -0.1186  0.0603 -0.0107
23983W        W37397   5.384   4.744   5.584 -0.0698  0.2716 -0.1486
23984W        W37398  13.967   2.527   3.414  0.0776 -0.0347 -0.1655
23985W        W37399   4.961   0.049   4.491  0.2426 -0.0885  0.2413
23986W        W37400  10.379  16.170  11.783 -0.0818 -0.1450  0.0354
23987W        W37401   4.840   3.251  13.821 -0.0341  0.5432 -0.2365
23988W        W37402   9.270  18.393  10.192  0.0389  0.1814 -0.2113
23989W        W37403   1.052  14.046   0.590  0.2662  0.1470 -0.1405
23990W        W37404   0.688   8.734   5.182  0.1030  0.1131 -0.2964
23991W        W37405   7.995   7.129   4.569  0.3413 -0.0715  0.2795
23992W        W37406  14.280   7.530   0.389 -0.1015 -0.1905 -0.2893
23993W        W37407  13.877   8.692   3.320 -0.0976  0.2443  0.0721
23994W        W37408  12.186  16.159   1.287  0.2258  0.0006  0.3003
23995W        W37409  15.596   8.115   4.645 -0.1238  0.0435  0.1046
23996W        W37410   7.140   7.025   4.523 -0.4073  0.0221  0.0219
23997W        W37411  13.974   5.800   5.810 -0.0867 -0.1287 -0.0623
23998W        W37412  17.857   1.204   2.071 -0.3766 -0.1586  0.1988
23999W        W37413   3.028  13.500  15.624  0.2271 -0.1501 -0.1512
24000W        W37414  16.767  17.976  15.463  0.1411  0.1170  0.1133
24001W        W37415  15.408   2.883  11.251 -0.1598  0.2190 -0.0553
24002W        W37416   8.658  16.058  12.837 -0.0159 -0.2751 -0.0550
24003W        W37417   3.912  10.300   5.665  0.1650 -0.0188 -0.2420
24004W        W37418   6.600   6.787  14.893  0.3057  0.1134  0.1242
24005W        W37419  13.120   0.256   9.984 -0.0481  0.2003  0.1279
24006W        W37420   5.675   1.806  11.885 -0.2475 -0.0899  0.2016
24007W        W37421  15.559  12.790  11.626  0.3139 -0.1405  0.0378
24008W        W37422   0.020   5.343  15.589  0.0434 -0.0924 -0.2432
24009W        W37423  10.654   0.002  10.747 -0.2138 -0.0591  0.2143
24010W        W37424   0.381   6.490  14.918  0.1015 -0.3456  0.2777
24011W        W37425  12.264  12.857  11.881  0.3810 -0.0345 -0.0443
24012W        W37426   3.628  11.896   2.100  0.2037  0.0943 -0.0767
24013W        W37427  11.156  10.497   4.599  0.1817  0.0420  0.0705
24014W        W37428   8.633   0.675   0.453 -0.0317 -0.1945 -0.0202
24015W        W37429  17.128  16.533  15.542 -0.1979  0.0421  0.2249
24016W        W37430  10.460   9.789  13.370  0.2506  0.0097 -0.1879
24017W        W37431  14.188   0.741   1.902 -0.0264  0.0502 -0.0370
24018W        W37432  12.305   2.385  15.871  0.2137  0.0726  0.0023
24019W        W37433  17.341   0.786  11.612 -0.1094  0.2029 -0.2142
24020W        W37434  12.220  17.989  15.869  0.0345  0.1503  0.0985
24021W        W37435   1.134  10.530   0.501  0.2340  0.2689 -0.3667
24022W        W37436  10.511  11.589   4.325  0.1916 -0.0819 -0.1224
24023W        W37437  11.834   2.280  15.184  0.3325  0.0858  0.0945
24024W        W37438   5.876   9.988   1.037  0.1954 -0.2355 -0.0148
24025W        W37439  10.985   4.061   6.011 -0.1152 -0.5158 -0.2240
24026W        W37440   3.419  15.330   5.408  0.1083  0.1282  0.1469
24027W        W37441   3.571   7.140   3.105 -0.3562  0.1140 -0.0353
24028W        W37442  12.003   9.280  12.115  0.0089 -0.2218  0.0484
24029W        W37443   9.028   5.969  11.541  0.1607  0.0619  0.0194
24030W        W37444   6.202  15.708  13.413 -0.2377  0.0119  0.0846
24031W        W37445  17.679   0.475  15.764 -0.0332  0.4576  0.1420
24032W        W37446   7.120   5.820  13.147  0.0724 -0.0188 -0.2543
24033W        W37447   1.864  11.384   5.677 -0.1317  0.0197 -0.1108
24034W        W37448  11.379  11.893   5.909 -0.1048 -0.3173 -0.0446
24035W        W37449   4.604   6.877  13.826 -0.3068  0.1947  0.2158
24036W        W37450  17.335  11.819   5.006 -0.1820  0.1024  0.0397
24037W        W37451  18.197   7.508  11.361 -0.1812  0.0028  0.0134
24038W        W37452  10.290   8.036   2.424 -0.1397  0.1049 -0.0066
24039W        W37453   5.998   0.544  14.860 -0.0010 -0.0510 -0.0600
24040W        W37454   8.393  18.311  11.628 -0.1308 -0.0231  0.2194
24041W        W37455   6.921  17.274   4.323 -0.3362 -0.1198 -0.2373
24042W        W37456  11.678   7.207   1.100 -0.0526 -0.0806  0.1179
24043W        W37457   2.491  14.061  15.976 -0.1436  0.1695  0.1509
24044W        W37458  14.686  16.721  11.820  0.0387  0.2148  0.0729
24045W        W37459  18.367   2.068  11.137 -0.4207  0.1430 -0.0303
24046W        W37460   5.143   6.862   2.530  0.1252 -0.0773 -0.0909
24047W        W37461  17.527  17.293  13.907  0.1370  0.1159  0.1814
24048W        W37462   1.803   7.609   0.175  0.0881  0.1555  0.0065
24049W        W37463   9.520   7.732   2.081  0.2463 -0.1037 -0.0944
24050W        W37464   1.141   6.915   2.756  0.1986 -0.0562  0.0232
24051W        W37465   1.048  11.038  14.757 -0.1713 -0.1086  0.1259
24052W        W37466  14.507   8.330  13.082  0.1272  0.3879  0.0171
24053W        W37467  14.781   4.143   0.862  0.1797  0.1172 -0.0322
24054W        W37468   8.302  14.594   1.992  0.1585 -0.0205  0.0659
24055W        W37469   3.992  14.258   3.078  0.1445  0.1336  0.0078
24056W        W37470   4.769   4.498  15.235 -0.0068  0.2830 -0.1145
24057W        W37471  13.759  12.186  16.060 -0.3376 -0.2773 -0.0967
24058W        W37472  17.790  15.298   4.560 -0.2161  0.1922  0.4263
24059W        W37473  18.021   0.198   5.495 -0.1089  0.1485  0.1509
24060W        W37474   1.727  15.966  15.684  0.1152 -0.0976 -0.0567
24061W        W37475  10.000  14.586  11.410 -0.0279  0.2203  0.0919
24062W        W37476   0.535   4.041  14.165  0.0076 -0.1020 -0.2790
24063W        W37477   8.038   3.307   4.302  0.2055 -0.1629 -0.1851
24064W        W37478  12.905   5.796  11.920  0.2268 -0.0313  0.0208
24065W        W37479  16.326   4.912  13.829 -0.0721 -0.0334  0.0440
24066W        W37480  10.638  17.224   4.953  0.1536 -0.1557 -0.0169
24067W        W37481  10.416  13.678   1.296 -0.0204  0.2444  0.1421
24068W        W37482   2.689   9.441   5.500  0.1201  0.0195 -0.0864
24069W        W37483  13.096  10.533  13.536  0.0961 -0.1562  0.0778
24070W        W37484  14.603  17.270  15.082  0.2269 -0.0683 -0.0378
24071W        W37485   9.093   7.887  11.423  0.1288 -0.0844  0.2345
24072W        W37486  10.212  17.417   5.474  0.0097  0.1013 -0.0484
24073W        W37487   3.229   7.929  14.465  0.1413 -0.0340  0.0264
24074W        W37488  16.839  10.946   5.735 -0.3196 -0.2543  0.0537
24075W        W37489   2.078   1.363  14.346  0.1920 -0.0721  0.0246
24076W        W37490  11.582  13.845  11.977 -0.2749  0.2987  0.2408
24077W        W37491   2.393   5.461   1.678 -0.3463 -0.0963  0.0547
24078W        W37492  18.363   6.873   4.974  0.1070 -0.1954 -0.3815
24079W        W37493   3.991  14.370  12.877  0.1086  0.3997  0.0099
24080W        W37494  16.399  13.228  16.160  0.2539  0.0284  0.2723
24081W        W37495  10.103  10.770  10.887 -0.0387  0.2688 -0.1240
24082W        W37496   0.563  16.900   2.553 -0.1477  0.1878  0.2449
24083W        W37497   6.874  10.768  11.740 -0.2966 -0.2131  0.1917
24084W        W37498  14.643   1.546  11.145 -0.2185 -0.2861 -0.2809
24085W        W37499  17.323  15.247   3.222 -0.4501  0.1533 -0.2409
24086W        W37500   1.162   2.766   5.266  0.0136 -0.0685  0.1401
24087W        W37501   3.753  14.792  16.126  0.1061  0.1537  0.0587
24088W        W37502  16.742  14.241   1.359  0.0044 -0.1311  0.0586
24089W        W37503   5.657  13.799  11.096 -0.0782 -0.2271  0.1812
24090W        W37504   2.288   8.470   0.295 -0.1597  0.1550  0.2710
24091W        W37505  10.107  17.073  15.634 -0.1539 -0.3043  0.0810
24092W        W37506  10.529  14.860   3.701 -0.2671  0.3166  0.0280
24093W        W37507   6.272   3.328   4.696  0.1922 -0.2555 -0.0953
24094W        W37508   8.160   1.094   1.658 -0.0866 -0.0278 -0.1359
24095W        W37509   9.958  16.762  12.530 -0.1880 -0.1290  0.1389
24096W        W37510  14.065  13.932  13.278 -0.0473 -0.0505  0.0540
24097W        W37511   4.190   2.821  13.382 -0.1913  0.0998 -0.0066
24098W        W37512  12.924  16.640   9.632  0.3341 -0.1715 -0.2531
24099W        W37513   6.696  12.894  14.178  0.0408  0.0981 -0.0308
24100W        W37514   8.227   4.531   1.343 -0.1273 -0.3473  0.0809
24101W        W37515   5.968  13.867  16.023  0.1414  0.2108  0.0217
24102W        W37516  10.577  17.992  12.327 -0.1705 -0.1206 -0.3256
24103W        W37517   2.588   9.955   5.390 -0.0241  0.0064  0.0415
24104W        W37518  16.936  15.592  16.186 -0.2989 -0.1861 -0.2635
24105W        W37519   2.100  17.137  15.888 -0.0333 -0.1394  0.3263
24106W        W37520  16.530  14.997  11.830  0.1152 -0.0325  0.0727
24107W        W37521   2.748   9.921   3.217  0.0184  0.1631 -0.0823
24108W        W37522   8.040   4.866  13.105 -0.1979 -0.2540  0.0984
24109W        W37523   8.605   9.400  12.213 -0.1947 -0.2673  0.0781
24110W        W37524  11.775  16.850   4.191 -0.0527  0.1387 -0.0756
24111W        W37525   6.176   9.791   4.185  0.0566  0.0320  0.0467
24112W        W37526  14.451  18.002   0.633 -0.0325 -0.3235 -0.0746
24113W        W37527   9.919  17.859   2.195  0.0754 -0.0915  0.1799
24114W        W37528   0.221  15.348  13.984  0.1165 -0.1193  0.2361
24115W        W37529   7.797   2.343  12.741  0.0572 -0.2356  0.1832
24116W        W37530   8.922   2.809   1.829 -0.0762 -0.2096 -0.0029
24117W        W37531  17.912  10.268   3.092 -0.1303  0.0715 -0.0700
24118W        W37532   3.942   7.757  10.740  0.2576 -0.0838  0.1899
24119W        W37533  12.368  10.159   5.068 -0.1467 -0.2330 -0.1815
24120W        W37534  17.976  13.093  13.005  0.1002  0.1567  0.0229
24121W        W37535  14.083   8.422  12.088  0.2705 -0.0011  0.2604
24122W        W37536   5.870  14.685  10.061  0.1747  0.0359 -0.1821
24123W        W37537  17.879  15.916   0.082  0.1533 -0.1249 -0.1482
24124W        W37538   3.449   8.527   2.169 -0.0155  0.3463  0.2423
24125W        W37539  13.780  11.105   3.492  0.0208  0.1194 -0.0371
24126W        W37540  18.270   2.422   1.398  0.2511 -0.6176 -0.0032
24127W        W37541   4.529   1.294   2.975  0.0749 -0.4566  0.0643
24128W        W37542  15.313  12.737   4.326  0.2255  0.0288  0.0744
24129W        W37543   2.611  16.466  10.555  0.0652  0.0505  0.0184
24130W        W37544   7.539  17.898   3.526 -0.2005 -0.1170 -0.2415
24131W        W37545   4.859  12.100  10.292  0.0633 -0.2230  0.2254
24132W        W37546   1.313   0.425  11.711 -0.3390 -0.1058 -0.1539
24133W        W37547  14.607  16.033   3.062 -0.0023 -0.1046  0.0539
24134W        W37548  12.970   7.663   4.700  0.0685 -0.1517  0.0104
24135W        W37549  16.680  10.155  12.734  0.0229 -0.0317  0.3380
24136W        W37550  14.309   6.764  12.016 -0.1562  0.0850  0.1084
24137W        W37551  13.534  11.229   5.717  0.0551 -0.0155  0.0854
24138W        W37552  18.346   9.431   3.783  0.0758 -0.2593  0.0033
24139W        W37553  10.753   7.429   6.647 -0.2965  0.1343  0.1589
24140W        W37554   8.388   1.824  10.608 -0.0332  0.2002  0.1907
24141W        W37555  12.892  13.299   6.296 -0.2872  0.2076 -0.4101
24142W        W37556   5.918  11.489   1.388  0.0378  0.1275  0.2513
24143W        W37557   5.307   1.873   2.066 -0.1686 -0.1217 -0.2231
24144W        W37558   2.737  11.170  15.458 -0.1657 -0.0825 -0.0985
24145W        W37559  10.975   8.615  13.814  0.0387 -0.0287 -0.2212
24146W        W37560  12.807   6.697  11.939  0.2015  0.2360 -0.3195
24147W        W37561   0.210   3.732  13.426  0.0193  0.2842  0.1729
24148W        W37562   5.885   4.932   6.134  0.0564  0.1154  0.0162
24149W        W37563   8.265  18.340  13.446 -0.0019 -0.0723  0.1999
24150W        W37564   7.067   2.324  14.196 -0.1530 -0.2316 -0.0886
24151W        W37565   4.163   7.533   1.676 -0.1844  0.2250 -0.3814
24152W        W37566  16.200   4.181  10.922  0.0461 -0.1048  0.0461
24153W        W37567   1.127  11.118   1.786  0.0019  0.3892  0.1663
24154W        W37568  16.569  15.981  14.445 -0.4044 -0.4796  0.2884
24155W        W37569   5.525  14.433   4.136  0.0012 -0.1483  0.1422
24156W        W37570   4.320   5.791  14.381  0.1112 -0.0734 -0.0004
24157W        W37571   0.120   6.494   1.160  0.1600 -0.0070  0.3300
24158W        W37572  12.834   5.089  15.241 -0.1302  0.1364 -0.2253
24159W        W37573   3.840  17.023  13.639  0.0581 -0.0853 -0.3830
24160W        W37574  17.888   4.065   1.990  0.2650 -0.1200  0.0044
24161W        W37575  15.984   5.460   1.152  0.0071  0.1444 -0.0220
24162W        W37576   4.064  15.601  13.041  0.2228  0.3457  0.0288
24163W        W37577   8.587   9.704  14.345 -0.1564  0.1094 -0.1222
24164W        W37578   6.662  14.352  10.409 -0.1978 -0.0663  0.2518
24165W        W37579  10.304  13.820  11.166  0.1252 -0.2310 -0.0306
24166W        W37580   7.109   9.371   1.594 -0.2519  0.0733  0.1803
24167W        W37581   8.890   7.042   5.064 -0.0309 -0.2672  0.1294
24168W        W37582  13.767  16.509  15.373 -0.2160  0.1309 -0.1703
24169W        W37583  14.626  12.769  12.702  0.0136  0.2904  0.1360
24170W        W37584  18.217  18.118  12.361 -0.0162  0.2304 -0.1086
24171W        W37585   8.948  17.677   0.596 -0.1061  0.2354  0.1407
24172W        W37586   9.150   6.351   4.670 -0.5522  0.2324 -0.0196
24173W        W37587   3.105  11.290   3.375  0.0126  0.1168  0.1258
24174W        W37588  15.192  10.913  15.140  0.1137 -0.0656 -0.1523
24175W        W37589   1.376  11.391  14.795 -0.1512 -0.1544 -0.0306
24176W        W37590  12.386  14.264  14.423  0.3953  0.0207  0.1129
24177W        W37591  15.447   2.384   0.183 -0.0336  0.4515  0.0335
24178W        W37592   3.372   9.953   5.304  0.2988  0.1645  0.3319
24179W        W37593   4.097   8.751   4.682  0.0133 -0.1994  0.1580
24180W        W37594   0.565  14.215  11.667  0.1443 -0.1933 -0.2969
24181W        W37595  11.739  18.272  15.172  0.1650  0.1958 -0.1252
24182W        W37596   0.218  16.354   4.824 -0.0134  0.2195 -0.1426
24183W        W37597   5.794  16.175   5.337  0.1386 -0.0343 -0.0259
24184W        W37598  14.063   1.719   4.930 -0.3768 -0.1607  0.1598
24185W        W37599  12.121   1.375  12.693  0.1288 -0.1549 -0.1903
24186W        W37600  11.747  10.207   0.038  0.1307  0.1191  0.1654
24187W        W37601   4.107   7.075  15.200 -0.0321  0.0897  0.1778
24188W        W37602  10.358  13.636  10.427  0.1606  0.0872  0.4853
24189W        W37603   1.768  10.625  15.077 -0.1453 -0.1490  0.2966
24190W        W37604   2.694   2.167   0.127 -0.0356  0.0996 -0.1420
24191W        W37605   3.789  11.049  11.108  0.3739  0.1417 -0.0344
24192W        W37606   7.030  10.924   1.863  0.0823  0.0269  0.0644
24193W        W37607  17.658  10.424  14.108 -0.0890  0.2862 -0.0142
24194W        W37608   0.348   8.593   5.589  0.0380  0.0068  0.0572
24195W        W37609   4.540   5.948  15.262 -0.1089 -0.1996 -0.1084
24196W        W37610  10.886   1.661   1.428 -0.2374 -0.0142  0.0560
24197W        W37611   3.476   9.613   2.467 -0.0204  0.0494  0.1554
24198W        W37612  11.964   6.016  14.125 -0.3035 -0.0090 -0.0625
24199W        W37613   8.371   1.014  14.081 -0.2039  0.3379  0.0987
24200W        W37614  10.134   8.576   1.773 -0.0600  0.1980 -0.1820
24201W        W37615   6.781  12.082  10.417 -0.2197 -0.1318 -0.2533
24202W        W37616  17.660  17.402   3.969 -0.3906 -0.4586 -0.1334
24203W        W37617   6.197  18.311   6.310  0.1090 -0.0060 -0.0380
24204W        W37618   2.600  11.762  16.218  0.1858 -0.0942  0.5190
24205W        W37619   4.832  17.384   4.763 -0.2537 -0.0862 -0.0436
24206W        W37620  11.443  12.334   1.976 -0.0994 -0.0079 -0.0248
24207W        W37621  13.662  16.341  11.265 -0.3573 -0.0485 -0.4282
24208W        W37622   7.769   1.753   4.140  0.1506 -0.0006 -0.1128
24209W        W37623  18.177  12.323  15.086  0.3132 -0.0678 -0.0559
24210W        W37624   8.233   0.586   2.956  0.0844  0.1452  0.1002
24211W        W37625  15.463  11.041  12.264  0.1075  0.0945 -0.1734
24212W        W37626   7.636  10.014  14.454  0.1616  0.2506  0.0517
24213W        W37627  16.853   5.916   5.420 -0.5590 -0.0906 -0.1115
24214W        W37628   3.041   4.365  15.683  0.0027  0.0750  0.1142
24215W        W37629  15.537   9.774  11.802  0.2321  0.3845 -0.2214
24216W        W37630  16.912   0.278  10.675  0.1632  0.1576  0.0154
24217W        W37631  10.233   5.317  13.258  0.1128  0.0454 -0.2916
24218W        W37632  17.170  13.389   1.794  0.4117  0.2097  0.1980
24219W        W37633   1.310   3.735  13.728  0.1542 -0.1178  0.0460
24220W        W37634   2.096  11.275   3.352 -0.0142  0.0146  0.0793
24221W        W37635   9.330   9.721   1.079  0.3224  0.3424 -0.0563
24222W        W37636  12.858  16.346  16.124  0.2700  0.2962 -0.3633
24223W        W37637  17.746  17.638  13.227  0.0656  0.0492 -0.0408
24224W        W37638  11.403  11.266   1.158 -0.2120  0.0653 -0.0891
24225W        W37639   9.198   5.943  12.731  0.1615 -0.0457  0.0085
24226W        W37640   8.040   0.121   9.920 -0.3669  0.2777 -0.2472
24227W        W37641   6.803  14.955   1.761  0.1149  0.0162  0.1478
24228W        W37642   8.215   9.314  13.018 -0.3880  0.0210  0.0035
24229W        W37643  16.083   5.433  15.852 -0.1167 -0.0835 -0.0323
24230W        W37644   9.763  12.936   0.430 -0.2432  0.3421  0.0374
24231W        W37645  10.256   4.806   5.109  0.1070 -0.0709  0.2911
24232W        W37646  16.474   0.913   6.378  0.3211 -0.1160 -0.1304
24233W        W37647   3.645   8.793   4.425 -0.0775  0.0348 -0.0680
24234W        W37648  13.102  11.809   0.823  0.0622 -0.3763 -0.0612
24235W        W37649   1.548   2.645  13.457 -0.1855  0.0440  0.1481
24236W        W37650   7.159   5.956   3.913  0.0127 -0.2268  0.2470
24237W        W37651  11.075  11.066   2.834  0.0030  0.1239 -0.3868
24238W        W37652  10.794  11.446   3.732 -0.1261 -0.1280  0.1902
24239W        W37653  13.745   7.514  12.402  0.1275  0.2823 -0.0538
24240W        W37654   3.463  14.418   5.602 -0.2497 -0.0633 -0.1167
24241W        W37655  11.868   9.018   5.176  0.0239  0.0687 -0.0099
24242W        W37656  12.580   1.408   2.513 -0.0279  0.0160  0.3015
24243W        W37657  11.741   4.986   4.518 -0.0257  0.2164 -0.1752
24244W        W37658   9.898  10.262   1.400  0.0090  0.0359 -0.1833
24245W        W37659   0.384   7.286   4.697 -0.0549 -0.3302  0.0839
24246W        W37660   2.699   1.605   1.331 -0.1087  0.2016 -0.2496
24247W        W37661   4.462  10.814  11.530 -0.2261 -0.3368  0.2267
24248W        W37662  13.033  17.422  15.692  0.1745  0.3684 -0.1372
24249W        W37663  12.382  12.468  13.701  0.2424  0.3594 -0.3711
24250W        W37664  13.305  17.805  15.907  0.0397 -0.0921  0.3665
24251W        W37665   3.028   5.660   3.177  0.0180 -0.1180 -0.1092
24252W        W37666   2.706   3.392  12.461  0.0626  0.2827  0.1438
24253W        W37667   9.884   3.922  14.731 -0.1738 -0.0918  0.1711
24254W        W37668   3.436  18.270  13.855  0.0534 -0.0749  0.1113
24255W        W37669  14.864  10.240   6.359  0.2897 -0.2349 -0.2356
24256W        W37670   9.452   1.685  13.396  0.3193  0.3426  0.1423
24257W        W37671   4.756  17.298   3.374  0.1795 -0.0872 -0.0742
24258W        W37672   3.561  13.576   4.836 -0.0848  0.0199  0.1264
24259W        W37673   0.193   2.744  13.019 -0.1422  0.0828 -0.1321
24260W        W37674  14.748   9.885   0.651 -0.2400 -0.0564 -0.3506
24261W        W37675  11.481  11.150  14.730 -0.2414 -0.0346 -0.0684
24262W        W37676   9.823   4.487   0.695  0.0868 -0.4233  0.1147
24263W        W37677   0.537  16.160   4.437 -0.2779  0.1490 -0.4046
24264W        W37678   1.744   3.562   1.596 -0.2011  0.2079  0.0796
24265W        W37679  12.603   5.634  12.257 -0.0681  0.0692 -0.0993
24266W        W37680  16.352  15.350  11.075 -0.0814 -0.0586  0.0604
24267W        W37681   3.343   6.951   2.757  0.0718  0.0238 -0.3076
24268W        W37682   3.818  14.781   2.214 -0.1715  0.1911 -0.1928
24269W        W37683  10.317  18.444  11.125 -0.2091  0.4261  0.2241
24270W        W37684  11.284   0.378  13.105  0.0079 -0.2943 -0.1079
24271W        W37685   0.075   4.851   1.854 -0.2168 -0.2072  0.1294
24272W        W37686   6.696   2.537  14.528 -0.2144  0.1338 -0.0686
24273W        W37687   1.666   1.731  15.819  0.0857  0.2757 -0.0811
24274W        W37688   9.183  10.701  10.804 -0.1648  0.0266  0.3562
24275W        W37689  13.854   1.875   0.370  0.2877 -0.1907  0.0467
24276W        W37690  15.262   7.674   1.396 -0.1152  0.0638  0.0522
24277W        W37691  16.081   3.365  11.055 -0.1108 -0.1174  0.0571
24278W        W37692  15.815   6.780   2.325  0.3314 -0.1728 -0.2675
24279W        W37693  10.351   9.831  12.720 -0.1062  0.0149  0.2486
24280W        W37694   7.765   3.868  13.565 -0.2626  0.0853 -0.1808
24281W        W37695   3.766   1.498  13.830 -0.3243  0.1132  0.2577
24282W        W37696   3.860   6.566   4.361 -0.0296  0.1194 -0.1006
24283W        W37697  16.068   9.391   3.294  0.0017 -0.0200 -0.1034
24284W        W37698   4.709  12.669  11.530  0.2223  0.0086 -0.0603
24285W        W37699  10.907  16.021   1.715  0.1878  0.5049 -0.0578
24286W        W37700   7.348  15.903   3.071 -0.1253 -0.0670  0.2702
24287W        W37701   9.285   0.332   4.116 -0.2624 -0.1983 -0.2721
24288W        W37702   3.952   0.477   1.652 -0.0505  0.1140  0.3551
24289W        W37703  13.361   5.261  15.372  0.2701 -0.1874  0.4561
24290W        W37704  10.120   8.344   0.394  0.2367  0.0473 -0.0377
24291W        W37705   9.942   5.860  10.694  0.2930  0.0161  0.2891
24292W        W37706   4.839  14.107  14.123  0.0273 -0.2034  0.1767
24293W        W37707  14.339   5.652  15.394 -0.1397 -0.4211 -0.2146
24294W        W37708   7.407  17.780   9.717 -0.1223 -0.1192 -0.0516
24295W        W37709  16.732  17.320   5.581  0.2607 -0.1050  0.0216
24296W        W37710  17.023  15.550   4.573  0.0684 -0.0087  0.0608
24297W        W37711   1.199   2.481  12.878  0.1558 -0.1303 -0.2092
24298W        W37712  11.890   0.285  14.957 -0.2831 -0.0510 -0.0452
24299W        W37713   9.067  14.737   2.478  0.1200 -0.1946 -0.0173
24300W        W37714   0.447  13.548  11.744  0.0181 -0.0241 -0.3212
24301W        W37715  16.870  13.520   0.683 -0.0002 -0.0631  0.0934
24302W        W37716   9.142   3.865   3.284 -0.1680 -0.1245 -0.3476
24303W        W37717   4.550  16.750   3.179 -0.0737  0.1179  0.0912
24304W        W37718   4.775   9.236  14.718 -0.2831 -0.0938 -0.2361
24305W        W37719  10.440   0.552   2.517  0.1223 -0.0530 -0.1602
24306W        W37720   6.317   1.814  12.714 -0.2584 -0.0437  0.2576
24307W        W37721  17.101   6.710   3.924  0.0256 -0.3165  0.4422
24308W        W37722   0.247  17.048   5.544  0.0074 -0.0299 -0.0649
24309W        W37723  15.490   1.814   1.832 -0.1402 -0.2690 -0.2630
24310W        W37724   0.586   0.844   9.934 -0.1857 -0.0318  0.0138
24311W        W37725   4.334  10.175  13.194 -0.2035 -0.0931 -0.1013
24312W        W37726   1.253   0.681   0.492  0.3508 -0.0869 -0.0253
24313W        W37727  10.673   5.701  11.974  0.1822  0.2118  0.0861
24314W        W37728   8.912   6.685   5.487  0.0876  0.1092  0.0649
24315W        W37729  13.313  14.193  13.901 -0.1714 -0.0427 -0.0860
24316W        W37730   9.965   5.930   5.142 -0.0091 -0.1897 -0.1066
24317W        W37731  15.163  12.496  13.613  0.1342  0.0571 -0.1844
24318W        W37732   4.941  13.208  10.332 -0.2224 -0.1406  0.2496
24319W        W37733   5.979  16.412   1.272  0.0635  0.2660  0.0770
24320W        W37734  11.087  18.344   1.963 -0.1472 -0.0003 -0.0568
24321W        W37735  12.491   3.897   4.221  0.3640 -0.1047  0.1595
24322W        W37736   5.184   8.768   0.987 -0.2229 -0.3681 -0.0102
24323W        W37737  10.485   3.125  12.353 -0.0820 -0.1027 -0.0085
24324W        W37738   0.480   5.461   0.787  0.2227 -0.1720 -0.0550
24325W        W37739   0.294   0.973  11.007  0.0400  0.1493  0.1543
24326W        W37740   1.234   9.090  14.079  0.1150  0.0356 -0.0378
24327W        W37741   9.611   8.176  12.760 -0.1093  0.2936  0.0987
24328W        W37742   5.536  18.203   5.184 -0.2027  0.1271 -0.3284
24329W        W37743  18.173   4.475  13.390 -0.2701  0.1068 -0.1209
24330W        W37744  16.411   6.162   0.434  0.2662  0.0349 -0.0842
24331W        W37745   1.349   9.883  14.678  0.1016  0.1825 -0.0441
24332W        W37746   0.774  11.250   2.197 -0.0900  0.0845  0.1363
24333W        W37747  16.953  17.715  12.280  0.3437  0.1703 -0.2131
24334W        W37748  10.698  11.164   4.105  0.0803 -0.2041  0.2893
24335W        W37749   9.166  13.845   4.221  0.1733  0.2323 -0.1601
24336W        W37750  15.858   2.183   2.489  0.1219  0.1753  0.0103
24337W        W37751  12.004   0.065   0.899 -0.0974  0.2480 -0.0712
24338W        W37752   1.967  10.155   1.907 -0.1359 -0.1324 -0.3310
24339W        W37753  10.668   1.825  12.089 -0.1494 -0.0160 -0.0993
24340W        W37754  14.783  13.123   0.704  0.0094  0.0279  0.0635
24341W        W37755  14.618  10.731   3.209 -0.1371  0.3145  0.1021
24342W        W37756  16.268   9.216  14.241  0.0656 -0.0442  0.0481
24343W        W37757   6.460   4.326  10.403 -0.2790 -0.1699  0.0449
24344W        W37758   7.276   4.242   1.542 -0.0131 -0.1239  0.0311
24345W        W37759  17.246  14.910   1.782  0.2523 -0.0417  0.1646
24346W        W37760   1.142  13.640  14.302 -0.1985 -0.0535  0.2769
24347W        W37761  10.195   0.157   4.420  0.3678 -0.1847  0.1245
24348W        W37762   4.647   5.005  11.337 -0.2767  0.2154  0.0994
24349W        W37763   6.339   8.059   2.293  0.3132  0.0664 -0.2354
24350W        W37764   5.477   6.962  11.562 -0.1493  0.2066 -0.1404
24351W        W37765  12.549  15.548   4.423 -0.2798  0.1073 -0.2258
24352W        W37766  13.211  16.366   1.540  0.0426 -0.1260  0.0994
24353W        W37767  11.567  13.410  14.075  0.2405 -0.1597 -0.1885
24354W        W37768   3.259   1.198  13.728  0.0177 -0.0394  0.0239
24355W        W37769   0.397   1.952  12.903  0.3585 -0.1043  0.1119
24356W        W37770  18.292  15.955  16.092 -0.3298  0.1127 -0.0229
24357W        W37771   0.900   0.435   5.423  0.0548  0.3837 -0.0201
24358W        W37772  13.429   7.129   5.198  0.1707  0.0033 -0.0113
24359W        W37773  18.251   8.032  13.755  0.0738 -0.2268  0.0833
24360W        W37774   3.888   7.278   3.435 -0.3316  0.1024  0.2484
24361W        W37775   2.282  10.674  11.432 -0.2966 -0.1514  0.0690
24362W        W37776  10.079  13.562  16.214 -0.1732  0.0711  0.1386
24363W        W37777   0.855   8.455   0.791 -0.4379 -0.2294 -0.1458
24364W        W37778  17.833   4.028   1.014 -0.3818 -0.3924  0.3841
24365W        W37779  15.969  10.166  14.179 -0.0854 -0.0767 -0.1674
24366W        W37780   1.516   3.326  16.019  0.0730  0.0920 -0.2831
24367W        W37781  15.239   0.251   2.303  0.1609  0.2717  0.1877
24368W        W37782  14.533   2.633   0.081  0.0602  0.1145  0.1933
24369W        W37783   6.490  18.211   2.663  0.0498  0.0350  0.3352
24370W        W37784  16.165  11.962  14.073  0.0258  0.0400 -0.2450
24371W        W37785  12.272   8.125  15.182  0.1701 -0.0180 -0.1328
24372W        W37786  14.942   3.037  11.252 -0.2561  0.1025 -0.1346
24373W        W37787   6.048  12.254   3.709 -0.0211  0.2043 -0.1628
24374W        W37788  11.653  14.665   3.442  0.0981 -0.1982 -0.2045
24375W        W37789  16.480   1.778  12.289  0.0943 -0.1721 -0.0558
24376W        W37790  17.254   0.756   5.519  0.1138  0.3947 -0.0899
24377W        W37791  13.428   2.232  12.483 -0.0901  0.2439  0.2399
24378W        W37792   1.156   0.512  14.520 -0.0833 -0.0506 -0.2065
24379W        W37793  10.281   7.460  12.463 -0.0412  0.2006  0.0865
24380W        W37794  15.840  10.940   2.299  0.1354 -0.3506 -0.0215
24381W        W37795  16.586  12.566   0.400 -0.0371 -0.0237 -0.2281
24382W        W37796   5.559  16.561   5.594  0.1200  0.0647  0.1401
24383W        W37797   9.474   7.472  15.295 -0.3072 -0.1505  0.1623
24384W        W37798  16.009  12.463  13.874 -0.3269 -0.3927  0.0452
24385W        W37799   3.269   7.247  15.400  0.2357  0.2911 -0.0058
24386W        W37800   3.165   2.368   1.566 -0.0701 -0.0023 -0.0045
24387W        W37801  10.589  12.878   0.195 -0.1542  0.1164  0.1544
24388W        W37802   5.455   6.858  12.152  0.1273  0.4017 -0.1088
24389W        W37803   4.045  15.962   5.017 -0.0273 -0.2363  0.0224
24390W        W37804  12.758  14.337  15.761 -0.2675 -0.4259 -0.0423
24391W        W37805   1.399  11.524  12.025 -0.0987 -0.0544  0.0570
24392W        W37806  12.431  14.506   2.570 -0.0283 -0.2169 -0.1684
24393W        W37807   4.132   0.392  13.011 -0.2195 -0.0224  0.0442
24394W        W37808   8.027   4.184  12.775  0.1274 -0.0386  0.2038
24395W        W37809   7.513  10.914  11.827 -0.1093 -0.2841 -0.0763
24396W        W37810  18.354   4.402   0.281 -0.2163  0.0582  0.0713
24397W        W37811  11.360  12.259  14.214  0.4821 -0.0422 -0.0548
24398W        W37812  11.746   6.964   4.775  0.2014 -0.1141 -0.1124
24399W        W37813  15.871   9.499  16.091 -0.1426 -0.0836 -0.1013
24400W        W37814   6.849   4.275  13.621  0.0365 -0.1312  0.1400
24401W        W37815  16.049   5.203   6.412  0.3326  0.0090  0.0182
24402W        W37816   4.284  14.568  15.382 -0.2448 -0.1372  0.2826
24403W        W37817  18.258  14.938  11.047 -0.2352 -0.1348  0.0883
24404W        W37818   0.787  11.831   5.198 -0.2285 -0.0026  0.2237
24405W        W37819   2.326  16.276  10.108  0.0293  0.0162 -0.3011
24406W        W37820  18.295  14.388  12.698 -0.1112  0.0750 -0.1249
24407W        W37821  17.034   9.092   2.290 -0.0653  0.2072  0.0118
24408W        W37822  16.925   1.081   4.332  0.0866  0.3570 -0.1948
24409W        W37823   0.187   9.188  13.151 -0.0780 -0.1000 -0.1465
24410W        W37824   8.678  16.538  12.681  0.0211  0.0746 -0.1297
24411W        W37825   2.249   1.627  15.740 -0.0712 -0.3052  0.1150
24412W        W37826   4.078   9.736   2.572 -0.0476  0.0003 -0.2502
24413W        W37827  10.179  15.558   5.213  0.1589 -0.1211  0.3259
24414W        W37828   7.959   5.951  12.175 -0.1194  0.2606  0.1178
24415W        W37829  14.003  18.430  15.321  0.0559 -0.2133  0.1913
24416W        W37830   0.233   6.526   4.704  0.0691  0.1526 -0.2979
24417W        W37831   3.248   0.721  12.708  0.3168  0.0979  0.1560
24418W        W37832   9.578   2.160   4.514 -0.1441 -0.1684 -0.0372
24419W        W37833   8.565  17.744   4.099 -0.0803  0.2479  0.2625
24420W        W37834   2.254   2.350   0.137 -0.0992  0.1129  0.1393
24421W        W37835  10.645   7.275  14.336 -0.2122 -0.2661  0.1511
24422W        W37836   2.364   9.265  13.057  0.2713 -0.0934  0.1744
24423W        W37837  12.880  15.142  13.778  0.3090 -0.1730  0.1502
24424W        W37838  14.635   5.590   3.365  0.1917  0.1198 -0.0902
24425W        W37839   3.275   1.908  10.555 -0.1120 -0.0198  0.3241
24426W        W37840   2.067   3.090  11.778  0.2482  0.1094  0.1551
24427W        W37841  12.180  16.798   3.343 -0.0394 -0.2774 -0.3110
24428W        W37842  12.576   0.518  10.928  0.1766 -0.0618 -0.0966
24429W        W37843   9.802   2.845   4.429  0.2464 -0.3125 -0.0386
24430W        W37844   3.660   8.232  10.646  0.2569  0.2015  0.0317
24431W        W37845  14.722   9.075  11.314  0.0665  0.0483  0.0692
24432W        W37846  13.963   5.748  13.908 -0.0379  0.0703  0.1509
24433W        W37847   4.031   3.204   0.991 -0.1159  0.1438 -0.0898
24434W        W37848   9.083  10.594  14.238  0.3274 -0.0553 -0.1024
24435W        W37849   8.116   4.377  14.866  0.0941  0.1544 -0.1286
24436W        W37850   2.334  17.472   1.461 -0.3810  0.1513  0.2417
24437W        W37851   2.062  13.078  15.059  0.1315 -0.0988  0.0734
24438W        W37852  11.483  10.104   4.646 -0.0159  0.1220 -0.1361
24439W        W37853  14.421   2.412  12.500  0.2423 -0.0845  0.1507
24440W        W37854   5.096  15.409   4.541 -0.2550  0.2035 -0.1823
24441W        W37855   7.064  12.725   4.338 -0.0144  0.1677 -0.1930
24442W        W37856  16.707   0.503  11.122  0.2193  0.1860  0.0463
24443W        W37857   2.959   8.865   2.496  0.2134 -0.0694 -0.0470
24444W        W37858  13.986   8.261   4.710 -0.2192  0.1699 -0.5267
24445W        W37859  13.552   5.959   2.843  0.2418 -0.1367  0.2564
24446W        W37860  16.999   9.748  10.647 -0.5195 -0.4294  0.0964
24447W        W37861   0.834   3.077   1.507 -0.2626 -0.1563  0.0487
24448W        W37862   5.869   2.937  14.690  0.1464 -0.0417 -0.0429
24449W        W37863   8.455  15.729  14.325 -0.1675 -0.1259 -0.0512
24450W        W37864  18.400   0.492   5.444 -0.4322  0.1390 -0.2299
24451W        W37865  15.817   8.463   4.375 -0.0303  0.0715  0.1843
24452W        W37866   8.430  11.737   1.417 -0.0337  0.1032 -0.1572
24453W        W37867  13.889  13.180  10.924 -0.1336 -0.1509 -0.0339
24454W        W37868   4.719  13.413  15.743  0.1019 -0.0231 -0.1327
24455W        W37869  16.200  10.012  11.708  0.2100 -0.1230 -0.3561
24456W        W37870  16.328   6.473  11.537 -0.0600  0.5109 -0.2832
24457W        W37871   3.462  14.589  15.717  0.2254 -0.0960 -0.1392
24458W        W37872   5.448   5.646  14.714 -0.0847 -0.5273  0.0939
24459W        W37873  13.253   3.916   2.209  0.1304  0.0684  0.2212
24460W        W37874   2.546   0.711   6.673 -0.1365  0.1676 -0.1719
24461W        W37875   2.103  15.913  12.940 -0.1394 -0.1157 -0.0403
24462W        W37876  16.005   5.318   5.886 -0.0151 -0.2140 -0.1154
24463W        W37877   1.961  10.886  16.016  0.3507 -0.1223  0.1929
24464W        W37878   0.508  10.065   6.478 -0.2846 -0.0242 -0.4725
24465W        W37879  12.447   7.592   1.262  0.2482  0.2911 -0.0443
24466W        W37880  10.970   2.518   5.155 -0.1398 -0.2913  0.0503
24467W        W37881  13.608  18.055  13.737 -0.0345 -0.3877 -0.3232
24468W        W37882   9.236  16.523  13.337 -0.0303 -0.2075 -0.0963
24469W        W37883   0.268   9.806   4.660 -0.2929  0.2317  0.4213
24470W        W37884   9.528  16.751  10.666  0.2024  0.2634  0.1638
24471W        W37885  15.841  14.074   4.047  0.1111 -0.1358 -0.2096
24472W        W37886   1.981   0.519  11.421  0.0712  0.0235 -0.3921
24473W        W37887   5.138  15.518   3.679 -0.0481 -0.1790  0.1261
24474W        W37888   8.669   0.915   2.792  0.0589 -0.2404 -0.3288
24475W        W37889  12.825   4.186   2.978  0.1314 -0.1459 -0.1179
24476W        W37890   8.824  13.368  11.132  0.2314 -0.1152  0.0385
24477W        W37891  16.830  14.134  13.452 -0.1933 -0.2897  0.0624
24478W        W37892   4.582  16.255  11.319  0.0363  0.0952 -0.0022
24479W        W37893   6.477  10.456  16.200  0.0329  0.0591  0.2866
24480W        W37894  15.066   9.422   2.014  0.0463  0.1313 -0.0072
24481W        W37895   7.000  17.231  13.046 -0.4133  0.0249  0.0458
24482W        W37896  11.373  14.400   0.958 -0.0307  0.3504  0.2505
24483W        W37897  15.590  17.391  14.226 -0.2158  0.2857 -0.1238
24484W        W37898   6.685   4.053  15.176 -0.1426  0.1353 -0.1965
24485W        W37899  16.169   5.793  11.241 -0.2829  0.0081  0.0906
24486W        W37900   3.206  11.272  14.607  0.3430 -0.1983 -0.2460
24487W        W37901   9.366  14.341  15.750  0.3271 -0.1795 -0.1845
24488W        W37902   4.275  15.887  11.246 -0.2624 -0.1326  0.2109
24489W        W37903   2.028  12.121  10.947  0.0091  0.3047  0.0990
24490W        W37904  12.550   4.253  14.129  0.3739  0.1496  0.0599
24491W        W37905  13.111   2.796  10.816 -0.0981 -0.1123  0.0480
24492W        W37906  14.206  10.809  16.096 -0.3029 -0.1486 -0.1523
24493W        W37907   0.490  15.854  11.978  0.1814 -0.0244  0.1194
24494W        W37908  16.197  14.370   1.549 -0.2665  0.0269 -0.1860
24495W        W37909  11.874   5.809  11.079  0.0159 -0.0049  0.7510
24496W        W37910   3.899   2.993  16.217 -0.0980 -0.0015  0.0421
24497W        W37911   4.247  11.732  13.793 -0.1622  0.0458  0.0110
24498W        W37912  17.227   0.662   1.728 -0.0245 -0.3757 -0.4053
24499W        W37913   2.704   0.108   5.931  0.0180 -0.1230 -0.2716
24500W        W37914  12.763  17.936   1.356 -0.2157  0.2022  0.4951
24501W        W37915   8.220  10.440   3.246 -0.0106 -0.0645 -0.1363
24502W        W37916   5.346   5.358   2.010 -0.0949  0.3619 -0.0183
24503W        W37917   9.249   8.996   1.069  0.0582  0.0766 -0.0370
24504W        W37918  12.236  15.652  15.577 -0.0551  0.1435  0.0464
24505W        W37919   9.510  17.562   2.910  0.0965 -0.0735 -0.2551
24506W        W37920  15.543   5.639   0.889 -0.2433  0.2108 -0.3049
24507W        W37921   5.434   7.982  12.006 -0.0502 -0.2927 -0.2036
24508W        W37922   8.378   7.955   2.338 -0.1446 -0.0045 -0.0822
24509W        W37923   1.548   7.671   4.728  0.2343  0.0821 -0.4059
24510W        W37924   9.495  14.053  11.388  0.5045  0.1135 -0.0325
24511W        W37925  15.002  13.566   5.360 -0.0105 -0.0123 -0.1951
24512W        W37926   6.882   4.976  13.922 -0.1783 -0.1040  0.0232
24513W        W37927   5.056   0.713  10.918 -0.2544  0.1168 -0.0094
24514W        W37928  12.565   3.796   4.720  0.0597  0.4059 -0.0422
24515W        W37929   0.180   1.111   2.599  0.0531 -0.1617 -0.4533
24516W        W37930   7.680   2.910  13.622  0.0378 -0.0818  0.3880
24517W        W37931  14.305   2.965  16.039 -0.0236  0.1256 -0.2558
24518W        W37932  13.426  14.917  15.360 -0.0034 -0.1084 -0.1791
24519W        W37933  10.855  17.251  12.925 -0.0050  0.1990 -0.1807
24520W        W37934   2.320  11.728  11.116  0.1921 -0.1462  0.0009
24521W        W37935   9.323   5.676  11.827  0.0325 -0.1623  0.0902
24522W        W37936   1.680  10.791   3.479  0.0835 -0.1823  0.0902
24523W        W37937   4.301   9.830  12.570 -0.1570  0.1563 -0.1835
24524W        W37938  12.380   0.486   2.320  0.1614  0.0570 -0.0864
24525W        W37939   9.198  12.224   3.785 -0.2116 -0.0515 -0.4908
24526W        W37940  16.817  17.484  11.004  0.0270  0.0277  0.1801
24527W        W37941   0.914   8.915  13.763 -0.0234 -0.0097  0.1464
24528W        W37942   3.755   6.346   0.227 -0.1243  0.0149  0.1696
24529W        W37943  10.048  12.461   2.777  0.0496 -0.1148 -0.2856
24530W        W37944  16.771   8.890  15.066 -0.0321 -0.0623  0.1910
24531W        W37945   5.586   9.741   9.758 -0.1539  0.1341 -0.0915
24532W        W37946   0.950  15.210  14.354 -0.2152  0.0474  0.0468
24533W        W37947  11.292  14.920   5.743  0.0598  0.2561 -0.1357
24534W        W37948   8.658   9.428   2.007  0.1905  0.0829  0.1755
24535W        W37949  17.557  14.345  13.672  0.0980  0.2872 -0.0755
24536W        W37950   2.498  16.296  13.907  0.0535  0.3201  0.0233
24537W        W37951  14.734   7.637   6.401  0.0590 -0.3552  0.2340
24538W        W37952  17.550   3.960   2.839  0.1933 -0.1933  0.0838
24539W        W37953  11.374   4.972   6.325  0.0805  0.0349  0.1714
24540W        W37954   3.142  14.769   1.604  0.0837 -0.0248  0.0558
24541W        W37955   4.835  14.691  15.504 -0.0125  0.0178 -0.0186
24542W        W37956   7.746   1.261   1.136  0.1508  0.2650 -0.1102
24543W        W37957   9.431   1.455  11.923  0.0844 -0.2071 -0.0752
24544W        W37958   9.720   0.488  10.795  0.0104  0.3051  0.0777
24545W        W37959   0.663  13.848  12.041 -0.2793  0.0827  0.0215
24546W        W37960  13.134  18.304  13.803 -0.1795  0.0191  0.0160
24547W        W37961   2.396  10.851  10.867 -0.0183  0.0025 -0.1210
24548W        W37962   5.688  14.878  14.715 -0.1729  0.2790  0.1288
24549W        W37963  10.336   9.986   0.688  0.1772 -0.0402  0.0446
24550W        W37964   7.436   3.884  14.383  0.0740 -0.0377 -0.0724
24551W        W37965  15.646   0.994  12.796 -0.5392  0.1632 -0.0123
24552W        W37966   8.037  12.495  13.902  0.2833 -0.0203 -0.1695
24553W        W37967  10.964   3.564   4.296  0.4388 -0.1297  0.2345
24554W        W37968  12.902   1.410  13.227  0.1762 -0.0255  0.0979
24555W        W37969   4.099  12.659   4.407  0.1284 -0.0691  0.0577
24556W        W37970   7.652  14.732   0.086 -0.0215 -0.0603 -0.0906
24557W        W37971  13.151  18.383   5.019  0.0786  0.2136 -0.0575
24558W        W37972   4.665   7.671   3.869  0.2838  0.1210  0.0900
24559W        W37973  10.857   9.811  11.176 -0.0043  0.3422  0.2089
24560W        W37974  17.589  17.107  13.264  0.1067 -0.0185  0.2177
24561W        W37975  14.354   2.393   3.983 -0.0697 -0.0612  0.1210
24562W        W37976   6.179  13.696   0.337  0.0485  0.0362 -0.2514
24563W        W37977   4.930  10.062   1.192 -0.2015 -0.0256 -0.0138
24564W        W37978  18.214   3.728   0.601 -0.0250 -0.0002 -0.0437
24565W        W37979   9.755  10.913   1.909  0.1163  0.1598 -0.0731
24566W        W37980   8.311  12.827   9.677  0.0516  0.0634 -0.0205
24567W        W37981  15.199   5.932  12.962  0.0770 -0.0520  0.2452
24568W        W37982  15.782  10.499  14.798  0.1562 -0.3965 -0.0430
24569W        W37983   6.666  12.183   5.185 -0.4629  0.0289 -0.0778
24570W        W37984  11.586  16.523   9.627  0.0361  0.0900 -0.2578
24571W        W37985   8.098   0.025   1.564 -0.2148 -0.1921 -0.1725
24572W        W37986  10.002  17.983  15.383  0.1087 -0.0563 -0.3535
24573W        W37987   8.772  12.639  12.345 -0.0871 -0.0118  0.0005
24574W        W37988  14.645   4.975   1.388 -0.0679 -0.0361  0.0476
24575W        W37989  10.664   8.361   0.288  0.2625 -0.3275 -0.0308
24576W        W37990   5.522   9.557  12.829  0.2194  0.2609 -0.1817
24577W        W37991  13.542   0.163  14.030  0.0789  0.1696  0.1281
24578W        W37992   4.137  16.024  10.382 -0.0930 -0.3526 -0.0036
24579W        W37993   1.968   7.944   1.101 -0.2932 -0.1344 -0.1909
24580W        W37994  14.295  13.207   2.573 -0.1752 -0.0049 -0.0901
24581W        W37995   0.961   4.139  15.663 -0.0424  0.3705 -0.4445
24582W        W37996   4.439   0.516   2.327 -0.0062  0.3245  0.1956
24583W        W37997   1.151   2.819  12.167 -0.2437 -0.1448  0.3475
24584W        W37998  12.735   3.090  10.949 -0.0268 -0.0686 -0.0105
24585W        W37999  17.090  17.163  13.509 -0.0747  0.2851  0.1150
24586W        W38000   3.481  13.466  15.814 -0.2371  0.0712 -0.0506
24587W        W38001   0.677   8.937  15.767 -0.0887  0.0282 -0.0447
24588W        W38002  14.774   9.505   3.039  0.0499 -0.0148 -0.1677
24589W        W38003  12.260   3.663  10.895 -0.0125  0.2996  0.0424
24590W        W38004   5.311  15.946   5.577 -0.4402  0.2776 -0.1462
24591W        W38005   1.729   9.457   4.394  0.1603 -0.0638 -0.1751
24592W        W38006  14.747  14.945   9.815 -0.0262 -0.2770 -0.1643
24593W        W38007  10.888  18.115   1.586  0.1999 -0.0880 -0.2040
24594W        W38008   7.452   0.475  14.668  0.1839  0.0537  0.0266
24595W        W38009  15.343   0.743  14.776  0.1231  0.3076  0.2867
24596W        W38010  12.120  11.061   0.016 -0.2894 -0.0950  0.5053
24597W        W38011  11.685   9.763   5.109  0.1011  0.0487  0.1120
24598W        W38012   6.235   4.484   2.849  0.2001  0.2822  0.2413
24599W        W38013   4.223   5.175  11.507  0.0164  0.0788  0.3291
24600W        W38014   8.194  15.917   3.817  0.1209 -0.0881 -0.0143
24601W        W38015  12.212   2.778  12.863 -0.1126 -0.0204 -0.3422
24602W        W38016  11.585  13.129   2.411  0.2069 -0.0436  0.0034
24603W        W38017   2.122  10.440   2.392  0.0137  0.0680 -0.0798
24604W        W38018   3.237  11.549  11.773 -0.1873  0.6618 -0.1728
24605W        W38019   0.442   1.560   3.340  0.0504  0.1430 -0.1145
24606W        W38020  16.704   0.607   2.895 -0.1568  0.0818  0.0974
24607W        W38021   3.544  15.129   4.115 -0.0937  0.4207  0.1086
24608W        W38022  15.194  17.291  12.384 -0.1037  0.0932 -0.2759
24609W        W38023  13.125  11.772   3.122 -0.1038  0.3742 -0.1654
24610W        W38024   2.612   9.956   6.943 -0.0732  0.3376  0.0402
24611W        W38025   4.282   7.895  11.047  0.0587  0.0648  0.1383
24612W        W38026  15.671   1.475  12.855  0.0459 -0.4660  0.1418
24613W        W38027   8.361   4.337  10.714  0.0376 -0.0757 -0.1655
24614W        W38028  12.490  17.398  14.616  0.1329  0.1647 -0.2062
24615W        W38029   9.683   5.012  14.925 -0.3214  0.1272 -0.2952
24616W        W38030  15.592  15.244  15.684  0.0204  0.0862 -0.3310
24617W        W38031  12.098   7.752   2.721 -0.1196  0.1666 -0.5532
24618W        W38032   9.556  13.935   1.213  0.1144 -0.1915  0.0894
24619W        W38033   8.465   8.542  12.574 -0.1901 -0.2385 -0.0959
24620W        W38034   9.436   0.033   3.598  0.1092 -0.1477 -0.0984
24621W        W38035   4.490   0.321  12.561 -0.3535  0.1226  0.1663
24622W        W38036   5.708  18.061  15.995  0.3031  0.4339 -0.1729
24623W        W38037   3.419   2.647   2.972 -0.1265  0.1063  0.0166
24624W        W38038   9.795   9.629   5.537 -0.0143 -0.2764 -0.1579
24625W        W38039   8.627  14.093  13.524  0.0284  0.1030 -0.0582
24626W        W38040   4.154   6.544   1.388  0.0930  0.2585  0.0568
24627W        W38041  12.140   4.537  12.966  0.2387 -0.1397  0.2144
24628W        W38042  10.949   4.866   4.310  0.1664 -0.2624  0.0195
24629W        W38043  11.846   0.633  12.602  0.0031  0.3623 -0.0850
24630W        W38044   1.098  17.158  16.023 -0.0083  0.0522 -0.2849
24631W        W38045   6.652   7.091   4.504  0.1983  0.1053  0.0525
24632W        W38046   7.653  15.814   1.592  0.1489  0.0438  0.1350
24633W        W38047  13.402   6.449  14.206  0.1219  0.3701  0.1176
24634W        W38048   8.774  10.239   0.593  0.0553 -0.1004  0.1798
24635W        W38049  17.361   9.120  11.303 -0.2770  0.0591  0.3491
24636W        W38050   6.592   6.316  12.359 -0.2061  0.1455 -0.0177
24637W        W38051   9.215   7.384  13.820  0.1702 -0.1275 -0.1252
24638W        W38052   9.811  15.505   0.810  0.1490  0.1010  0.1335
24639W        W38053   9.680   6.874   1.803  0.4163 -0.0260  0.2163
24640W        W38054   6.454  12.717   1.759 -0.0908  0.1131 -0.2816
24641W        W38055   5.382   2.182  16.093  0.1534  0.1113  0.0311
24642W        W38056   9.989  17.730  14.877  0.0130 -0.0860 -0.0718
24643W        W38057   1.388   3.747  14.230  0.2763 -0.3986  0.0716
24644W        W38058   5.954   9.083   4.774  0.0381 -0.0753  0.2561
24645W        W38059  10.206   9.520   0.827 -0.3372 -0.4428  0.2963
24646W        W38060   8.840   4.247   2.456 -0.1366 -0.2081  0.0377
24647W        W38061  15.391  13.885  10.353  0.0134 -0.2726  0.1062
24648W        W38062   6.059  11.613  13.704  0.2002 -0.1299  0.2190
24649W        W38063  16.955  17.223   1.708 -0.0997 -0.1467 -0.0344
24650W        W38064   7.000   9.717   2.932 -0.1527  0.0982 -0.1133
24651W        W38065   9.413  11.635   2.404  0.0286  0.1793  0.2176
24652W        W38066  13.398  15.015  14.834  0.2863 -0.2159 -0.3667
24653W        W38067   4.887   1.854   4.481 -0.1343 -0.0386 -0.3603
24654W        W38068  18.249   6.949  16.244 -0.2785  0.4049  0.0486
24655W        W38069   5.860  13.964  14.971 -0.1856 -0.1999  0.2253
24656W        W38070  12.571   9.627  16.081  0.1333 -0.1945  0.3582
24657W        W38071  14.203  16.318   4.347  0.3403  0.0867  0.2001
24658W        W38072   2.543  17.945  15.180 -0.1719  0.1411  0.3224
24659W        W38073  10.540  13.560   3.189  0.1883  0.1043  0.2351
24660W        W38074   1.977   9.301   3.941  0.1677  0.0857 -0.0113
24661W        W38075  13.624  10.748  10.753 -0.0655  0.0727  0.1396
24662W        W38076  17.717   7.385  11.102 -0.0767  0.0489  0.0344
24663W        W38077  10.500   9.174  15.608  0.0961 -0.2968  0.1772
24664W        W38078   7.325   0.351  15.312  0.1158  0.2078  0.1354
24665W        W38079   0.822  18.290  12.612  0.1176 -0.1227 -0.1854
24666W        W38080   1.500  12.898   0.077 -0.2514 -0.1609 -0.1400
24667W        W38081  11.193  11.204  12.228  0.0758 -0.1663 -0.1604
24668W        W38082  14.592   4.125   3.926  0.0537  0.0201  0.0719
24669W        W38083   4.923   5.037  15.275  0.0129 -0.2575  0.1094
24670W        W38084  12.070  16.038  14.189  0.2139  0.1576  0.1429
24671W        W38085   8.594   8.524   0.052 -0.1856  0.0306 -0.2582
24672W        W38086   1.652  10.613  13.252 -0.0405 -0.0758  0.1479
24673W        W38087  18.349  13.117   5.515 -0.0282 -0.3743 -0.0361
24674W        W38088  15.729  10.932   4.664 -0.1554 -0.3107 -0.1901
24675W        W38089  10.650   9.096   3.408  0.3602 -0.0136  0.1141
24676W        W38090   2.018  10.919   2.420 -0.0474  0.1256  0.2098
24677W        W38091   3.745   8.316   1.858  0.1750 -0.2736  0.3020
24678W        W38092   2.613  10.227  14.002  0.3087  0.1442  0.0297
24679W        W38093  10.409  17.927   5.038 -0.0968  0.0730  0.0678
24680W        W38094  13.834  15.756  15.765  0.0968  0.2920 -0.1258
24681W        W38095  13.316  12.597  13.340 -0.2824  0.2816 -0.0560
24682W        W38096  15.101   0.494   4.054  0.3895 -0.2546 -0.1052
24683W        W38097   1.128  11.571  12.562  0.1086  0.2857  0.1702
24684W        W38098   0.992   9.804   6.444 -0.0359  0.0590 -0.0796
24685W        W38099   1.631   7.877  11.963  0.1960 -0.2506  0.1976
24686W        W38100   7.415   1.025   0.100  0.0553 -0.2085  0.1349
24687W        W38101   3.042   2.167  15.634  0.1324 -0.0505  0.1194
24688W        W38102  15.601   3.613   4.828 -0.0169 -0.0502  0.1445
24689W        W38103   5.690   3.935  11.640 -0.2338 -0.1331  0.1568
24690W        W38104   9.440  14.182   5.833 -0.0058 -0.2662 -0.1080
24691W        W38105   4.346  11.146   3.161 -0.1617 -0.0902 -0.0533
24692W        W38106   9.684   8.646   1.187 -0.0953  0.3883 -0.2165
24693W        W38107  13.560  17.424  10.232 -0.2721 -0.2856  0.0098
24694W        W38108  10.579  14.017  11.912  0.0017 -0.1058 -0.1567
24695W        W38109   0.428  12.633   0.548  0.1322  0.2006 -0.0113
24696W        W38110  11.973  18.371  15.722  0.1644  0.0359  0.0613
24697W        W38111   0.805   4.731  15.685  0.0522  0.3578  0.1937
24698W        W38112  12.720   3.676  14.019 -0.0311  0.2747 -0.0287
24699W        W38113   5.109   6.525   1.641  0.1640 -0.2305  0.1456
24700W        W38114   5.925   2.792  15.941 -0.2149 -0.1386  0.0132
24701W        W38115   5.549   6.840  14.469  0.0814  0.0106  0.1082
24702W        W38116  13.213  12.977   3.783  0.0619 -0.0236  0.3980
24703W        W38117  18.071   0.555  15.418  0.0583 -0.1369 -0.0535
24704W        W38118  10.766  14.858  16.114 -0.0243 -0.3683 -0.0221
24705W        W38119   7.387   2.481  12.942  0.1303 -0.1947  0.1075
24706W        W38120  14.620  12.450  13.096  0.2483 -0.3028 -0.0949
24707W        W38121   5.880   3.761   1.797  0.2187  0.2574  0.2067
24708W        W38122   3.174  14.829  14.387 -0.0807 -0.0717 -0.4443
24709W        W38123   8.604   5.302  10.825 -0.0839  0.1567  0.0696
24710W        W38124  10.830  15.898  10.640  0.1151 -0.0093 -0.1857
24711W        W38125  11.042  14.034  10.505 -0.0828 -0.1064 -0.0895
24712W        W38126   0.907   7.499   0.456 -0.1269 -0.1653  0.4217
24713W        W38127  11.349   9.329  10.814  0.0262 -0.0295  0.0212
24714W        W38128  13.165  15.945   2.843 -0.1312 -0.1734  0.0235
24715W        W38129   4.546  13.511   2.748 -0.2277 -0.0817 -0.0377
24716W        W38130  15.503   2.220   4.190 -0.0155  0.0266 -0.0171
24717W        W38131   0.205   7.542   3.838 -0.3127 -0.0775  0.0879
24718W        W38132   5.638   0.820  15.035 -0.0323 -0.0998 -0.0124
24719W        W38133  16.461   6.797  11.908 -0.0139 -0.1645 -0.4884
24720W        W38134   0.077   1.444   5.864 -0.1566  0.3699  0.0615
24721W        W38135  16.908   7.640  10.292  0.0750 -0.1611 -0.1734
24722W        W38136   4.391  12.954   3.991 -0.0509 -0.0084 -0.0104
24723W        W38137  17.161  14.750  15.633  0.2232 -0.1102 -0.1575
24724W        W38138  12.692  16.897  12.064 -0.4644 -0.0373 -0.0330
24725W        W38139   0.934   2.316  15.837 -0.2080  0.1938  0.0678
24726W        W38140   9.799  11.686   1.705  0.2300 -0.2087 -0.0514
24727W        W38141   8.419  15.909  15.734 -0.0942  0.1738 -0.0977
24728W        W38142  14.873  13.798   2.658  0.1623 -0.0849 -0.2258
24729W        W38143   8.218   2.783   3.493 -0.1211 -0.1311 -0.2660
24730W        W38144  11.907  11.526   0.038  0.0308  0.0101  0.0563
24731W        W38145   4.445  17.230   5.720 -0.3452 -0.1443  0.1691
24732W        W38146  11.168  15.261   0.668 -0.3840  0.0889 -0.1846
24733W        W38147  17.406  15.993  12.611  0.0203  0.1537  0.0189
24734W        W38148   0.475  17.313  14.129  0.0656  0.0960 -0.2500
24735W        W38149  14.904  13.233   4.478  0.2892  0.1721 -0.1663
24736W        W38150   2.216   4.906   2.643  0.0242 -0.0980 -0.0607
24737W        W38151  16.399  17.766   2.394  0.2901 -0.1946  0.1046
24738W        W38152   4.476  13.666   1.853  0.0016 -0.1273 -0.3115
24739W        W38153  16.263   3.891   1.011  0.0395 -0.0111 -0.2317
24740W        W38154   4.300   0.709  14.801  0.1224  0.3361  0.0908
24741W        W38155  16.884   7.295  11.363  0.0074 -0.0634 -0.0920
24742W        W38156  16.984  14.545  12.464 -0.1443  0.0915 -0.2137
24743W        W38157  14.292  14.820  15.280  0.0502  0.0807  0.0438
24744W        W38158   9.932  13.229  15.784 -0.0297 -0.0552 -0.3586
24745W        W38159   9.894  13.532  13.616  0.1319  0.0635 -0.0420
24746W        W38160  10.826   9.693  12.997 -0.0154 -0.1826 -0.2083
24747W        W38161   2.731   2.333   2.347  0.0646  0.0568  0.0459
24748W        W38162  11.180  15.528  11.605  0.0409  0.3721  0.1169
24749W        W38163  15.213   0.222  11.016  0.2454 -0.3571 -0.0334
24750W        W38164   9.918   7.363   9.919 -0.0534  0.1371  0.0481
24751W        W38165  17.109  16.907  15.938 -0.0379  0.3254 -0.2204
24752W        W38166  10.103   2.907   1.038  0.0458  0.1800 -0.0469
24753W        W38167   0.490   8.010   5.662 -0.3130  0.6262 -0.0186
24754W        W38168  17.396  16.360  12.976 -0.1230  0.0631 -0.1364
24755W        W38169   5.079   4.962   0.271 -0.1173  0.0929  0.2609
24756W        W38170   2.969  11.913   0.276 -0.0273  0.0196  0.0827
24757W        W38171  14.361   9.767  15.931  0.0825 -0.2018  0.1870
24758W        W38172  12.733   1.070  12.222  0.1349  0.3784 -0.0523
24759W        W38173   9.265   6.258   3.325  0.1164 -0.0937  0.2171
24760W        W38174  12.798   5.680   5.462 -0.1683  0.0261  0.0982
24761W        W38175  15.648  10.202   6.321  0.2367  0.0872 -0.2262
24762W        W38176   4.429   0.813   3.239 -0.1843 -0.0258  0.0174
24763W        W38177  18.096   6.665  13.949 -0.2134 -0.0914 -0.0881
24764W        W38178   6.970   6.867  13.514 -0.0181 -0.0780  0.2222
24765W        W38179   9.630   8.845   1.993  0.0525  0.2632  0.0357
24766W        W38180   0.395   7.574  11.259 -0.0693 -0.0113 -0.0664
24767W        W38181  13.601   1.943   5.017  0.1118 -0.4048 -0.0310
24768W        W38182   5.441  10.298  13.388  0.0810 -0.2190 -0.2622
24769W        W38183   4.230  15.514   5.802 -0.0105 -0.1136  0.0064
24770W        W38184  16.398  14.544   3.328  0.0780  0.0301 -0.0131
24771W        W38185   3.723   8.466   1.014  0.0328  0.2211 -0.4114
24772W        W38186   4.286   9.695   5.248 -0.0717  0.1917 -0.1525
24773W        W38187  12.625  17.221  15.970  0.1383 -0.1221  0.1397
24774W        W38188   9.180   8.040   3.840 -0.1641 -0.3592 -0.4158
24775W        W38189  16.384  15.131  12.949  0.1309  0.0587  0.1279
24776W        W38190   3.217  15.104   2.977  0.1717 -0.0108 -0.0403
24777W        W38191  17.406  14.547  14.108 -0.2368 -0.2487  0.0276
24778W        W38192  16.539  12.166   0.760  0.0759 -0.0195  0.2073
24779W        W38193  14.287   8.058  14.327  0.0080  0.3157 -0.0537
24780W        W38194   6.218  15.880   5.232  0.2667 -0.3507  0.0329
24781W        W38195  18.126  11.995   2.534  0.0279 -0.2283  0.0181
24782W        W38196  11.936   0.580  10.565 -0.1552  0.0143  0.0460
24783W        W38197  14.273   4.368   6.075 -0.5020  0.1769  0.4814
24784W        W38198   6.794  13.797   0.950 -0.1722  0.3265 -0.2155
24785W        W38199   5.478   4.076  12.576 -0.0890 -0.0188  0.3116
24786W        W38200  15.751  10.084   2.545  0.0502  0.0288 -0.1597
24787W        W38201  15.918   6.545   6.609 -0.0575 -0.0661 -0.1579
24788W        W38202   8.144   5.326  14.621 -0.1394 -0.3983 -0.3063
24789W        W38203   3.284   2.392   2.079 -0.1040 -0.0930  0.3625
24790W        W38204   7.128  16.153   0.776 -0.3156  0.1740 -0.3342
24791W        W38205  11.150   2.230  10.920 -0.4429 -0.0983 -0.0006
24792W        W38206  15.091  16.307   2.848 -0.1483  0.1976  0.1453
24793W        W38207   5.065  15.534  15.422  0.2976  0.0232 -0.5027
24794W        W38208   9.961  13.742  10.646  0.2516  0.0748 -0.1694
24795W        W38209   5.055  15.972  16.110  0.0462  0.2220  0.2184
24796W        W38210  10.411  13.905  15.359 -0.2106  0.2651  0.1346
24797W        W38211   6.167  16.225  14.247  0.1494  0.0429  0.0708
24798W        W38212   5.197   0.224   1.240 -0.1891 -0.0111  0.0030
24799W        W38213   8.914   4.995   2.858  0.0032 -0.2747 -0.0843
24800W        W38214  13.350   6.789   0.443  0.0154  0.0644 -0.0800
24801W        W38215  11.463   0.433  10.674  0.0415  0.0324  0.1551
24802W        W38216   9.443  10.394  11.158 -0.1562  0.4450 -0.0608
24803W        W38217   6.428   1.279   1.127  0.0706 -0.1184 -0.0287
24804W        W38218  11.568   6.066   4.223 -0.0640 -0.2681 -0.0948
24805W        W38219   7.373  10.009  12.766  0.2521 -0.2853 -0.6529
24806W        W38220   9.955  12.512  10.707  0.1541 -0.2001 -0.1595
24807W        W38221  16.229   8.259  12.388  0.1373 -0.2314  0.0680
24808W        W38222   6.802  17.940  13.219  0.1970  0.1549 -0.2696
24809W        W38223   1.606  10.457   0.836  0.1746 -0.3096 -0.2547
24810W        W38224   9.919  11.774   4.039  0.1206 -0.1242 -0.0672
24811W        W38225  18.271   0.993   1.192 -0.3385  0.0287  0.0741
24812W        W38226   2.344   2.704   4.757  0.0298 -0.1653  0.0721
24813W        W38227   1.643   8.552  12.505 -0.0109 -0.1449  0.0129
24814W        W38228   9.237   6.367  13.732  0.0596  0.0419 -0.1673
24815W        W38229   1.867   4.540   1.389 -0.2202  0.0538  0.0012
24816W        W38230   0.168   8.172   4.869 -0.2085  0.0550 -0.0082
24817W        W38231   3.232  10.833   5.549 -0.0762  0.0349 -0.1095
24818W        W38232   5.119   3.970  10.780  0.2706  0.0316 -0.0355
24819W        W38233   5.484   2.526   5.108 -0.3323  0.1525  0.0510
24820W        W38234   9.616  14.571   5.121  0.0575  0.0205 -0.1485
24821W        W38235   1.549   1.195  13.574  0.1437 -0.1615  0.1363
24822W        W38236   4.970   5.464   0.072 -0.3787  0.0537 -0.1047
24823W        W38237   4.242  13.095   0.737  0.3025 -0.3456 -0.1728
24824W        W38238  16.943   4.995  12.118  0.1295 -0.3415 -0.2311
24825W        W38239   5.753   7.779   3.397  0.1052 -0.0439  0.1021
24826W        W38240   4.800  17.797   5.687 -0.0013 -0.0588 -0.0041
24827W        W38241  15.884  12.630   1.403  0.0772  0.1025  0.2237
24828W        W38242   6.725   6.689   0.986  0.0217 -0.0226 -0.1930
24829W        W38243  17.654   9.709  15.722 -0.0201  0.1105  0.2806
24830W        W38244   7.526  10.129   1.355 -0.2065 -0.0968  0.1999
24831W        W38245  17.818  17.944   1.812 -0.1246  0.2464  0.4749
24832W        W38246  16.822  18.425  15.265  0.0264 -0.1188  0.0073
24833W        W38247   2.299   4.936  10.753  0.0014  0.0731  0.0126
24834W        W38248   7.265  15.747  14.586  0.0060 -0.0523 -0.0894
24835W        W38249   2.469  15.453  15.976 -0.0409 -0.1118 -0.0774
24836W        W38250  16.926  17.777   0.238  0.1840 -0.0602 -0.2127
24837W        W38251   9.647  15.300  10.415 -0.3690 -0.0697  0.1469
24838W        W38252   8.947  12.646   0.440 -0.0262 -0.0510  0.0313
24839W        W38253  18.335   7.086  14.667 -0.2529  0.2966  0.0536
24840W        W38254   3.977   0.534   3.335 -0.1187 -0.1481  0.1165
24841W        W38255   9.743   7.246   2.235 -0.0541  0.3339 -0.3502
24842W        W38256   9.316   5.077   2.416  0.1333  0.1062 -0.0154
24843W        W38257  13.717   3.144  12.086 -0.2116  0.0440  0.1088
24844W        W38258  14.237   9.210   2.076  0.2822 -0.4188  0.2656
24845W        W38259   0.460   4.934  14.440  0.0408  0.1136  0.0121
24846W        W38260   8.248   9.880   4.928  0.0446 -0.1288 -0.0763
24847W        W38261  16.571  15.854  13.306 -0.2368  0.1298  0.1302
24848W        W38262  15.367   5.617  12.507  0.1844  0.1530  0.0002
24849W        W38263   8.608  14.120   3.322 -0.1775  0.0530  0.0577
24850W        W38264   1.583  14.843   2.394  0.0610 -0.0593 -0.0784
24851W        W38265   6.540   7.165   3.082  0.1522  0.4640  0.2577
24852W        W38266   9.897   0.236   4.947  0.1105  0.0915 -0.1635
24853W        W38267  16.690   7.095   4.049  0.3712  0.1876  0.0732
24854W        W38268   6.857   1.642   1.296  0.0486 -0.2016  0.0547
24855W        W38269  12.492   2.083   1.318 -0.2438 -0.0466  0.1827
24856W        W38270   7.223   2.341   4.392  0.0071  0.2895 -0.1044
24857W        W38271   1.599   6.835   5.775 -0.1788  0.0741 -0.2217
24858W        W38272  14.385  10.543  13.036 -0.3758 -0.1236  0.0053
24859W        W38273   8.353  12.646   4.172  0.1288 -0.1474 -0.2936
24860W        W38274  18.110   3.069   0.264 -0.2189 -0.0390  0.2822
24861W        W38275  12.474   9.712  13.371  0.2166 -0.0954  0.0307
24862W        W38276  17.401   4.549   2.813 -0.1332  0.0311 -0.2665
24863W        W38277   5.941   2.800   1.123 -0.3214  0.0197 -0.2591
24864W        W38278   7.026  14.505   3.562 -0.1775  0.1471  0.1283
24865W        W38279  14.026  10.140  15.165 -0.0559 -0.1025 -0.0972
24866W        W38280   4.400  18.251   2.145  0.0712 -0.1178  0.1144
24867W        W38281   5.151  15.866   1.188 -0.2496  0.0492 -0.2423
24868W        W38282  12.439  18.082  13.057 -0.0603  0.0310 -0.0663
24869W        W38283   3.954   5.727   2.922 -0.2560 -0.3513  0.0413
24870W        W38284   0.254   6.289   0.644 -0.1678 -0.0779 -0.1250
24871W        W38285  17.763   6.912  14.692 -0.3360 -0.0353  0.0942
24872W        W38286  13.667   8.455   5.738 -0.1081  0.0590  0.0012
24873W        W38287   3.235  13.759  13.158 -0.1512  0.1101 -0.0850
24874W        W38288  18.228   5.087   6.480  0.0548 -0.0752  0.3681
24875W        W38289  16.893   1.553   0.317  0.0301 -0.0527 -0.1243
24876W        W38290  11.110   1.835   3.011  0.0370  0.3966  0.0033
24877W        W38291   5.217   1.755   6.740 -0.1625 -0.1469 -0.0834
24878W        W38292  16.574   0.428  14.267  0.0973  0.2975 -0.1171
24879W        W38293  13.857  17.931   4.437  0.1105  0.2989 -0.0704
24880W        W38294   7.786   7.412  13.403  0.2410 -0.0759  0.1040
24881W        W38295   8.265  12.171   4.195  0.3029  0.0825 -0.1396
24882W        W38296  10.672  10.316  12.030  0.1033  0.0929 -0.2331
24883W        W38297   9.406   5.415  12.665  0.3511 -0.1116  0.0820
24884W        W38298   2.081   2.770   5.352  0.0745  0.0705 -0.0321
24885W        W38299  15.482  11.943  14.189  0.0877 -0.0610  0.0858
24886W        W38300  12.434  14.855   2.013 -0.1352 -0.1202  0.0717
24887W        W38301  14.958   6.372   4.244 -0.2737 -0.1790  0.0599
24888W        W38302  10.270  15.780   0.215 -0.1248  0.0586  0.0584
24889W        W38303  11.317  14.365  14.460  0.1915  0.0061  0.2116
24890W        W38304   3.321  12.558  14.868  0.0242  0.2264 -0.0603
24891W        W38305  15.353  17.695   1.591  0.1087 -0.2162  0.0561
24892W        W38306   4.888  10.356  14.556 -0.0316  0.0659  0.1466
24893W        W38307  16.196   2.817   3.856 -0.1316 -0.1711 -0.2012
24894W        W38308   7.689   5.302   4.286 -0.3775 -0.0711  0.0395
24895W        W38309   4.836  11.867  14.634  0.1758  0.0175 -0.1266
24896W        W38310   4.238  13.238  15.624  0.4319  0.2326 -0.1691
24897W        W38311   4.344  17.818  15.210 -0.0328 -0.2014  0.0155
24898W        W38312  13.154   4.161  14.695  0.1809 -0.0355 -0.1591
24899W        W38313   8.900   1.013  13.761  0.1141  0.1904 -0.2684
24900W        W38314  11.229   8.545  14.285 -0.0892  0.1691  0.0912
24901W        W38315   7.457  11.259   2.816 -0.1482 -0.2240 -0.1839
24902W        W38316  17.580   2.412  14.191  0.1051  0.0308  0.1564
24903W        W38317  17.719  10.158  11.739 -0.2112 -0.1590  0.0218
24904W        W38318  16.509   6.328   4.569  0.1673  0.3235  0.1136
24905W        W38319   1.759  16.285   2.263  0.2132 -0.1315  0.2264
24906W        W38320   3.648  17.837   2.012  0.2540  0.0497  0.1406
24907W        W38321   4.408  14.281   5.013  0.2201  0.1010 -0.0676
24908W        W38322   1.177   3.192   3.269  0.2678 -0.1687  0.2719
24909W        W38323  13.756  14.415  10.413 -0.2744 -0.4494 -0.0361
24910W        W38324   8.249  12.075  15.781  0.0114 -0.0367 -0.4806
24911W        W38325  16.660   3.484  11.357  0.0057  0.1494 -0.2575
24912W        W38326   6.633  13.122   3.615 -0.2186 -0.0827  0.0432
24913W        W38327  10.508  14.309   4.953 -0.3030 -0.0463  0.4539
24914W        W38328   6.307  14.793   4.464  0.0140  0.0460  0.2359
24915W        W38329   2.773  15.786  14.017  0.0978 -0.2392  0.2080
24916W        W38330  12.157  10.026  13.688 -0.0668 -0.2430 -0.1875
24917W        W38331  15.823  11.729   3.457  0.3315 -0.1801 -0.5229
24918W        W38332  11.997   0.074  14.481 -0.0056  0.3768  0.1599
24919W        W38333   0.197   5.765   6.134 -0.0699  0.0364  0.1384
24920W        W38334   8.339   7.302   2.436  0.1431  0.2694  0.0962
24921W        W38335   4.044  13.337   2.715 -0.0794 -0.0222  0.0604
24922W        W38336   8.776  13.269  13.560  0.3864 -0.1461  0.2852
24923W        W38337  14.982  14.325  13.646  0.2378  0.1442  0.4357
24924W        W38338  14.935   5.053  12.777 -0.1942 -0.0212 -0.5434
24925W        W38339   7.135  15.818  11.817 -0.1715 -0.2168  0.0349
24926W        W38340   6.502   2.026  10.839 -0.1980  0.1720  0.0886
24927W        W38341   1.164  17.085  12.044 -0.2373 -0.0163  0.1167
24928W        W38342  18.257   1.916  16.239  0.0866  0.1149  0.1719
24929W        W38343   4.881   4.090  13.223 -0.0047  0.1054 -0.0257
24930W        W38344  18.077  10.906   0.054 -0.0881  0.0360 -0.0085
24931W        W38345  10.493   4.052   3.128  0.0723  0.0453 -0.1889
24932W        W38346   7.971   2.155   1.403  0.2072 -0.0123 -0.1596
24933W        W38347  10.980   4.376  10.733 -0.0132  0.2805 -0.0282
24934W        W38348   0.689  14.908  12.407 -0.0504  0.2549 -0.1056
24935W        W38349   3.410   4.469   3.057  0.2111  0.0249 -0.0778
24936W        W38350   6.018   4.173  11.344  0.0005 -0.1652 -0.0118
24937W        W38351  17.335   5.506   0.303  0.2252  0.1067  0.0497
24938W        W38352  12.170   0.305  13.546 -0.2159 -0.0415 -0.2106
24939W        W38353   7.117  16.877   2.697  0.0173  0.3117  0.1660
24940W        W38354   5.406  13.933  12.061 -0.3069 -0.0550 -0.0578
24941W        W38355   2.826   4.870  10.862  0.1044  0.0224  0.0260
24942W        W38356  11.716   9.365   3.942  0.2921  0.3605 -0.1568
24943W        W38357  17.268  16.711  10.049  0.0757 -0.0609  0.2163
24944W        W38358  15.634  17.495   3.539 -0.1061  0.1309 -0.0480
24945W        W38359   5.561  11.532  15.642 -0.0925  0.0525  0.2122
24946W        W38360   8.630   9.860  11.684  0.0457  0.1792  0.0566
24947W        W38361  16.917  12.814   3.814 -0.2318  0.0821 -0.2636
24948W        W38362   5.642  18.137  13.448  0.0251 -0.0159  0.0998
24949W        W38363  15.817   5.025  13.721  0.2886 -0.3033  0.1359
24950W        W38364   0.887  16.659  15.878  0.3556 -0.0887 -0.3143
24951W        W38365   7.515   4.307   3.062 -0.3959  0.1374 -0.1797
24952W        W38366   5.408   4.552   4.613  0.0467  0.1067 -0.0229
24953W        W38367   9.866   9.013  15.324  0.0514  0.3459  0.1503
24954W        W38368   9.469  13.486  10.509  0.2001  0.0749 -0.0016
24955W        W38369  16.820   5.418  14.331 -0.3745  0.1107 -0.1671
24956W        W38370   3.795  11.293   4.038 -0.0281  0.2838  0.0102
24957W        W38371  15.102  15.424  11.408  0.1067 -0.1779 -0.0843
24958W        W38372   0.438   0.420   3.805  0.1536 -0.0363  0.0040
24959W        W38373   6.254  11.228  10.987  0.1163  0.2588  0.1070
24960W        W38374  10.802   4.318   0.483  0.0681 -0.0440 -0.1254
24961W        W38375  15.003  17.593  14.982  0.3502  0.0891 -0.2873
24962W        W38376  15.285  10.803   4.819 -0.1526  0.4069 -0.0790
24963W        W38377   9.601  12.405  15.228 -0.5421 -0.3843 -0.0331
24964W        W38378   8.261   8.003  13.083  0.2059  0.0637  0.0923
24965W        W38379   7.821  11.452  15.316  0.0262  0.0931  0.1179
24966W        W38380   6.934  15.612   3.920 -0.1498 -0.0842 -0.0749
24967W        W38381  10.991   2.134  11.404  0.2078  0.0016  0.3256
24968W        W38382   1.775   9.546  12.185  0.1730 -0.0584 -0.0779
24969W        W38383   9.769  10.204   4.363  0.0494 -0.1929  0.1824
24970W        W38384   9.037  17.148  15.198  0.0810 -0.1184  0.0266
24971W        W38385   7.568  17.146  12.128 -0.1413 -0.0526 -0.0737
24972W        W38386  10.303   9.515  13.787 -0.0860  0.0543 -0.0857
24973W        W38387  16.659  15.765   0.286  0.2668  0.0235 -0.0378
24974W        W38388  12.332  11.127   1.580  0.1125 -0.3677  0.2486
24975W        W38389  15.922   8.805   5.749 -0.1993  0.0047 -0.0377
24976W        W38390   9.287  17.345  12.338 -0.1751  0.1254  0.0155
24977W        W38391  18.129  16.493  13.532 -0.1422  0.0360  0.0511
24978W        W38392   0.191   1.748  15.861 -0.0906  0.0036  0.0293
24979W        W38393  10.030   0.934   1.639  0.1434 -0.1137 -0.2379
24980W        W38394  15.287  14.305  14.164  0.3485  0.1074 -0.1565
24981W        W38395   7.674  11.757   2.860  0.2304  0.0012 -0.0169
24982W        W38396   9.265   3.729   3.764  0.0728  0.1104  0.4194
24983W        W38397   5.215  13.052  11.611 -0.3719 -0.3357  0.1428
24984W        W38398  10.410   3.458  11.535  0.2530  0.2954  0.0656
24985W        W38399   1.066  15.514   2.998  0.1647 -0.1548 -0.3010
24986W        W38400  15.701  16.276  10.272  0.2249 -0.1529  0.1084
24987W        W38401   0.977   4.121  13.948  0.1257 -0.0463  0.2664
24988W        W38402  11.544   8.734   3.211  0.1910  0.1337  0.1585
24989W        W38403  11.057  16.731  11.523  0.1285 -0.0390 -0.0002
24990W        W38404  14.105   8.332   2.542  0.1103 -0.1462  0.4144
24991W        W38405   6.642   1.966  10.312  0.1962 -0.1946  0.4141
24992W        W38406  10.287   6.899  15.677 -0.1441 -0.2361  0.0221
24993W        W38407  15.030   2.942   3.417 -0.0747  0.0786  0.2025
24994W        W38408   1.527   6.649  13.369 -0.0906 -0.0032 -0.0717
24995W        W38409  16.132  14.217  10.416  0.2199  0.2549  0.1594
24996W        W38410  14.481   5.180   5.613  0.1353 -0.2525 -0.0157
24997W        W38411  17.697   6.417   2.505 -0.1049  0.1636  0.0450
24998W        W38412   2.040   2.058  15.507 -0.1624 -0.1511 -0.0172
24999W        W38413   8.434   8.104   0.819  0.2503  0.2021  0.0239
25000W        W38414   5.902  17.461   0.444 -0.0788 -0.0813  0.2281
25001W        W38415  16.074  15.691   1.119  0.1173 -0.1360  0.2415
25002W        W38416   7.440   1.599   0.783 -0.0258  0.0094 -0.0809
25003W        W38417  11.606  18.158   0.715  0.0325  0.1744 -0.2467
25004W        W38418  12.380  17.191   0.142  0.0348 -0.0990  0.0356
25005W        W38419   3.122   0.173   2.600 -0.1919  0.0457  0.2880
25006W        W38420  14.483   4.627   3.101 -0.1612 -0.3047 -0.0914
25007W        W38421   3.074  15.188   2.247  0.1660  0.0352  0.3175
25008W        W38422   0.804  13.255   4.116 -0.1425 -0.0070 -0.1585
25009W        W38423  11.456  14.537  14.906 -0.2530 -0.0344  0.3069
25010W        W38424   4.327   8.749  15.836  0.2458  0.0625 -0.2978
25011W        W38425   1.761  18.356  15.072 -0.1950  0.0546  0.2578
25012W        W38426   2.603   1.119   3.835 -0.0254 -0.1152  0.1979
25013W        W38427  10.098   1.643  14.009  0.3337 -0.0191  0.0330
25014W        W38428   1.464   7.510   3.293 -0.1406  0.0912  0.2821
25015W        W38429   8.613  11.844  14.419 -0.2410 -0.0071  0.1181
25016W        W38430   9.155   2.277  14.676  0.3828 -0.0861 -0.0816
25017W        W38431  10.298  14.146  16.193 -0.0645  0.2086 -0.1416
25018W        W38432  17.182   2.239  14.531 -0.0427  0.0688 -0.0173
25019W        W38433   1.434   7.294   0.407 -0.1884 -0.2149  0.2260
25020W        W38434  13.567   6.229  12.135 -0.0570  0.3445 -0.4909
25021W        W38435  17.684   8.507  14.294  0.1390  0.2589 -0.0349
25022W        W38436   4.488   1.982  12.333  0.1058  0.0059 -0.3058
25023W        W38437   7.482  13.276   0.107 -0.2182 -0.5403  0.0039
25024W        W38438  16.256   3.362  14.113  0.1713 -0.2067 -0.0299
25025W        W38439  17.958  17.816   5.812 -0.0332 -0.1829  0.0892
25026W        W38440  12.087   8.015   1.284  0.1712  0.1929 -0.0349
25027W        W38441   2.729  16.012  11.763  0.1848  0.3206 -0.1995
25028W        W38442  15.199   9.957  15.434  0.2925  0.1052  0.0157
25029W        W38443   2.099  17.059  12.197 -0.0798 -0.0730 -0.3361
25030W        W38444   8.637  10.206  13.646  0.0601 -0.0895 -0.0110
25031W        W38445   4.224   4.967  11.067 -0.5897 -0.3199  0.0739
25032W        W38446   3.703   4.371   2.497  0.1753  0.2086  0.1462
25033W        W38447   1.415   9.110   2.625  0.4140  0.1918 -0.1921
25034W        W38448   7.351   2.413   1.844 -0.0650 -0.0214  0.3341
25035W        W38449   3.891   2.972  14.491  0.2468  0.0055 -0.0042
25036W        W38450   6.886   5.876   3.549  0.3382 -0.2937  0.0972
25037W        W38451  15.947   5.713  14.478  0.2159 -0.0421 -0.0720
25038W        W38452   6.048  12.802   0.087  0.0621 -0.0873  0.1472
25039W        W38453  10.148   9.435  15.370  0.0633  0.3109  0.2895
25040W        W38454  15.640  14.003  13.192  0.0107 -0.3974  0.1478
25041W        W38455  16.089  10.159   1.075 -0.3675 -0.1214 -0.1638
25042W        W38456   1.693   0.044   3.804  0.0567 -0.2405 -0.0935
25043W        W38457  14.078  12.034  13.067  0.1569  0.1511  0.2363
25044W        W38458  15.246  17.772  15.803  0.1768 -0.0556  0.1664
25045W        W38459  17.511  15.895  11.182  0.2493  0.1770 -0.0633
25046W        W38460  11.326  17.503  15.682  0.0010  0.3746 -0.1339
25047W        W38461   8.804  16.669  10.798 -0.1846  0.1790  0.1746
25048W        W38462  10.399   4.088   3.650 -0.0226  0.0016  0.4807
25049W        W38463  15.766   4.704   0.584  0.0694  0.1623  0.1052
25050W        W38464   8.003  14.326   4.716 -0.3565  0.1303 -0.0840
25051W        W38465   9.917  10.354  11.090 -0.0246 -0.0841 -0.0849
25052W        W38466   9.790   8.977  13.913  0.1846 -0.1538 -0.2351
25053W        W38467   7.985   3.792   1.816  0.0688  0.2129 -0.2137
25054W        W38468   8.199   5.470   3.328 -0.0550 -0.1194  0.2678
25055W        W38469   6.219  11.700   0.209 -0.0013  0.0833 -0.1415
25056W        W38470   3.296   8.518  13.306  0.0737  0.3721 -0.0185
25057W        W38471  12.980   3.819  10.488  0.2824  0.3983  0.3630
25058W        W38472  15.420  17.389  13.293 -0.0736 -0.0882 -0.0290
25059W        W38473  17.276   0.966  15.054 -0.2992  0.1996  0.0059
25060W        W38474  12.425  10.024   3.702 -0.1056  0.0850 -0.0016
25061W        W38475  10.506   6.499   2.677  0.0090  0.1740 -0.1581
25062W        W38476   9.656  10.626  11.561 -0.1255 -0.0784 -0.1074
25063W        W38477   7.054   7.672  15.445  0.2302 -0.1039 -0.0459
25064W        W38478  10.172   7.055   5.837 -0.2413 -0.1664  0.0498
25065W        W38479  17.492  13.558  10.646 -0.3914 -0.0811  0.2977
25066W        W38480  13.884  12.049   3.654  0.0150 -0.1234  0.1996
25067W        W38481  10.747   1.294  11.002  0.1335  0.4188 -0.0361
25068W        W38482   7.000   9.982  12.198 -0.1259 -0.0508 -0.0612
25069W        W38483   2.125  10.880   0.293  0.1260  0.0161 -0.0659
25070W        W38484  17.228  16.470   4.567 -0.2834 -0.2140 -0.1016
25071W        W38485  10.907  16.499  13.844  0.0307  0.1753 -0.1044
25072W        W38486  12.229  16.854  10.236  0.2021  0.1858 -0.0205
25073W        W38487   5.284   0.116  12.427 -0.2278 -0.2453  0.2450
25074W        W38488   7.397   5.358  10.050  0.0657 -0.0028 -0.3396
25075W        W38489   0.835   9.021  12.525  0.0175  0.0638  0.0317
25076W        W38490   6.084   2.550  12.322  0.0630  0.1745  0.3447
25077W        W38491  18.036  17.517  14.069 -0.3610  0.3148  0.1555
25078W        W38492   5.546  10.049   4.846 -0.0137 -0.0741  0.2711
25079W        W38493  11.351   0.877   2.636  0.1117 -0.1923 -0.0537
25080W        W38494  18.348  12.591   0.790 -0.1230  0.0845  0.3159
25081W        W38495  15.405   6.415  12.879 -0.0455  0.1347 -0.2473
25082W        W38496   1.025   2.901  11.667 -0.1157  0.1241 -0.0107
25083W        W38497  13.132   4.466  11.597  0.1080 -0.0025 -0.0007
25084W        W38498  11.754  11.673   1.300  0.1919  0.0370 -0.1824
25085W        W38499   7.965  15.758  11.029 -0.0893 -0.1281 -0.0547
25086W        W38500  12.541  14.996  15.653 -0.3009  0.0000 -0.1854
25087W        W38501   4.931   3.622   0.985  0.2429 -0.2072 -0.2007
25088W        W38502  10.560   3.079   3.485  0.0404  0.1313 -0.1032
25089W        W38503  14.965   3.165  14.029 -0.3089  0.3115  0.1422
25090W        W38504  10.549   4.786   5.815 -0.1430 -0.1029 -0.0705
25091W        W38505   2.957  15.131   4.439  0.2117  0.2529 -0.2332
25092W        W38506   2.981   5.888  15.041  0.1408 -0.3555 -0.1664
25093W        W38507   4.311   7.404   2.356 -0.2379 -0.1537  0.1241
25094W        W38508   6.619  10.553  14.850  0.0201  0.3693 -0.1568
25095W        W38509  16.678   5.108  11.616  0.0920  0.0005 -0.0523
25096W        W38510  17.847  10.843   6.238  0.0179 -0.0819 -0.2072
25097W        W38511  17.644   7.510  14.407  0.1500  0.1497  0.0769
25098W        W38512   8.395  13.169   2.212  0.1738 -0.0572 -0.0045
25099W        W38513   9.661   1.409  14.367 -0.1359 -0.1460 -0.1020
25100W        W38514   7.165   1.251  10.603  0.2519 -0.0797 -0.0421
25101W        W38515   4.399   1.583   5.191 -0.1303 -0.1032 -0.1256
25102W        W38516   3.940  17.749  15.584 -0.2223  0.1025 -0.1294
25103W        W38517  13.919   9.074  14.739 -0.2390 -0.0458 -0.3165
25104W        W38518   4.512   8.188  13.334  0.0937  0.3065  0.1661
25105W        W38519   6.188   6.555  12.241 -0.3514  0.0205  0.0945
25106W        W38520  10.781   4.619  12.207  0.2040 -0.1624  0.0451
25107W        W38521  18.403  16.827   1.640 -0.0842 -0.0945  0.0936
25108W        W38522  17.371   9.984  13.978  0.0885 -0.1820 -0.1592
25109W        W38523   3.947   9.501   6.283 -0.2009 -0.1263 -0.0834
25110W        W38524   4.417  13.057  16.097  0.0603  0.0616  0.2449
25111W        W38525  16.891  15.055  15.244 -0.2636  0.2304  0.2632
25112W        W38526   5.795  12.845  10.834 -0.1625  0.0611  0.0159
25113W        W38527   8.571  14.975   4.036  0.0728  0.1338  0.0397
25114W        W38528   7.142  12.176  12.783 -0.1194  0.4406  0.2167
25115W        W38529   0.838   9.235   4.732  0.0348 -0.1229  0.1420
25116W        W38530   8.676   7.080  10.777  0.0999 -0.0794 -0.0532
25117W        W38531  13.624   0.049   5.421 -0.4180 -0.2266  0.2087
25118W        W38532  12.258   3.886  13.813 -0.1176  0.2294  0.2255
25119W        W38533  14.975   5.101  15.206  0.1791  0.0299 -0.1182
25120W        W38534   9.108  10.605  11.510 -0.1391 -0.0163  0.0436
25121W        W38535  13.812  12.145   0.312  0.0137  0.3572 -0.1497
25122W        W38536  12.292   4.506  11.306 -0.0340  0.0849  0.0046
25123W        W38537  16.636   6.965  15.736  0.0386 -0.0511 -0.1042
25124W        W38538  17.703   3.265   4.411 -0.1488 -0.1108  0.0569
25125W        W38539   2.080   5.573  11.643 -0.0165 -0.1098  0.2142
25126W        W38540   1.482   5.214  15.250 -0.4058  0.0428  0.0554
25127W        W38541  10.690  12.318  11.228 -0.1307  0.1097  0.2897
25128W        W38542   2.816  15.653   2.294  0.1286  0.2107 -0.1862
25129W        W38543   1.716   2.879   5.698 -0.1045  0.2274  0.1204
25130W        W38544  12.090   5.939   1.919  0.3427  0.1028 -0.1150
25131W        W38545  10.424   8.740  11.713  0.0291 -0.1017 -0.3661
25132W        W38546  18.199  11.647  10.336  0.1709  0.1677  0.1543
25133W        W38547  16.682  11.580   3.161  0.0704  0.0979 -0.1490
25134W        W38548   5.600   9.617  14.586 -0.0928 -0.0867 -0.0043
25135W        W38549   3.598  10.678   2.533 -0.0766 -0.1704 -0.0917
25136W        W38550  13.438   7.601   3.476  0.1006  0.1214 -0.0896
25137W        W38551   8.738  11.264   1.206  0.1250  0.0578  0.0685
25138W        W38552  16.550   6.346   6.556  0.0187  0.0468 -0.0274
25139W        W38553   6.674  13.305  13.551  0.2226  0.0009 -0.2025
25140W        W38554   4.283   4.450  16.169  0.0069  0.1708  0.1581
25141W        W38555  15.110   8.121  13.842  0.0692 -0.0624 -0.1882
25142W        W38556   3.539  11.719   5.528 -0.0117  0.3893  0.1142
25143W        W38557   9.122  17.241   0.404 -0.2266 -0.2238  0.0978
25144W        W38558   9.259  12.786   1.151 -0.2173 -0.0722  0.3319
25145W        W38559  14.460  16.817  12.248 -0.0840 -0.0262  0.0181
25146W        W38560  13.172   5.746   5.144  0.2445  0.0569  0.1374
25147W        W38561  10.019   4.559  12.812  0.0733 -0.0849 -0.0391
25148W        W38562   5.311  16.380   3.801  0.0302  0.2035  0.1592
25149W        W38563   5.467   7.948  13.444 -0.0709  0.1964 -0.2128
25150W        W38564   0.661  11.795  13.791  0.3028 -0.1274 -0.0104
25151W        W38565   2.141   4.074  14.170 -0.2091  0.2885  0.0763
25152W        W38566   1.594   5.688  10.917 -0.2295  0.2725 -0.0383
25153W        W38567   9.762   4.295  15.092  0.2593  0.2653 -0.2527
25154W        W38568   6.546  11.073  13.249 -0.1819  0.1667 -0.0826
25155W        W38569   7.128  14.691   1.127 -0.2545 -0.1432 -0.4097
25156W        W38570  15.854  17.512   1.695  0.0010 -0.0210 -0.0620
25157W        W38571   9.907  17.842   3.237 -0.0872 -0.0171 -0.1396
25158W        W38572   1.769  17.951   3.812  0.1467  0.1614  0.0532
25159W        W38573  17.480   3.970  13.530 -0.0222 -0.0908  0.1180
25160W        W38574   5.694  12.946  12.493  0.2302 -0.1435 -0.0549
25161W        W38575   3.787  11.817  14.062 -0.0174 -0.1712 -0.0745
25162W        W38576  15.350  14.936  13.128  0.1443 -0.0661 -0.3964
25163W        W38577  13.517   3.214   2.683  0.0893  0.1137 -0.0828
25164W        W38578   0.391  14.459   2.850  0.0791  0.2015  0.1593
25165W        W38579   2.934   9.179   0.359  0.1270 -0.2375 -0.0302
25166W        W38580  12.153  11.703   3.146  0.2489  0.0180 -0.3399
25167W        W38581  17.258   8.340  10.975  0.0378 -0.1791 -0.0987
25168W        W38582  10.336   5.845   5.912  0.0782  0.1014  0.0453
25169W        W38583   2.177  10.894   6.137 -0.0448 -0.2394  0.2370
25170W        W38584  16.451   9.402   3.773  0.1617 -0.0228  0.1231
25171W        W38585  14.161   5.181  11.697  0.0617  0.0296  0.1027
25172W        W38586  12.148   5.917   2.867 -0.2642  0.2886 -0.3515
25173W        W38587  15.381   4.514   2.276  0.1155  0.2281  0.0913
25174W        W38588   4.013  14.866   3.948 -0.2053  0.1921 -0.1026
25175W        W38589  13.177  17.220  15.216  0.1231  0.0902 -0.1282
25176W        W38590  12.731  16.385  13.040  0.0495  0.3087 -0.0456
25177W        W38591  15.250   0.501  13.488  0.0523  0.0439  0.4661
25178W        W38592   6.837   8.149  12.499  0.2226 -0.0080  0.1678
25179W        W38593   7.528  17.082   2.433  0.0092 -0.1014 -0.0062
25180W        W38594  11.873  10.196   0.504  0.0616 -0.3708  0.2537
25181W        W38595  15.841   6.175  10.430 -0.2325 -0.2506  0.0282
25182W        W38596  14.673  15.103  13.265 -0.2318 -0.0910  0.3953
25183W        W38597   3.995   6.157   0.737 -0.1739  0.0882 -0.1246
25184W        W38598  17.942   2.105  12.324  0.0562  0.3160 -0.0932
25185W        W38599  12.119   6.898   6.214 -0.0515 -0.3173  0.2078
25186W        W38600  18.320   6.160  10.997  0.2451 -0.2652  0.1307
25187W        W38601  18.332  17.036  12.405  0.0918  0.0837  0.2836
25188W        W38602   3.858  10.654   5.014 -0.2404  0.0928  0.0377
25189W        W38603  16.296  17.742   1.908  0.2200  0.0173 -0.2104
25190W        W38604  16.180   4.412   2.632 -0.1012  0.2392  0.0363
25191W        W38605   0.470   5.960   3.336  0.0496 -0.1313 -0.1629
25192W        W38606   3.185   8.166   0.407 -0.0145 -0.0851  0.1727
25193W        W38607   5.446  16.001  15.635 -0.1891 -0.3929 -0.1512
25194W        W38608  16.100   5.851   5.813 -0.4321  0.2104 -0.0936
25195W        W38609   2.851   4.071   4.301 -0.2231  0.3884  0.0956
25196W        W38610   4.681  13.766   1.239 -0.0837  0.6267 -0.0737
25197W        W38611  16.154  13.866  15.652  0.0532 -0.0393  0.1694
25198W        W38612  12.753  13.205   4.510 -0.0558  0.1078  0.2535
25199W        W38613  17.759   0.521  16.248  0.1257  0.2427  0.1566
25200W        W38614   1.206   1.806  13.738  0.0899  0.1725 -0.1472
25201W        W38615  14.635  17.924   2.282 -0.1603 -0.0630  0.1118
25202W        W38616  13.902   7.678  11.007 -0.3747  0.7253 -0.1820
25203W        W38617   5.967  14.458  14.647  0.4811 -0.3395 -0.0729
25204W        W38618   1.542   5.521   1.634 -0.0571  0.1230  0.2872
25205W        W38619   3.818   7.445   4.011  0.2299 -0.1196 -0.0173
25206W        W38620   2.903   8.097  13.442  0.1117  0.0520  0.2413
25207W        W38621   1.747  10.476  16.207  0.2947  0.0620  0.0713
25208W        W38622  12.037  12.197   4.599  0.0140 -0.1362  0.1555
25209W        W38623   1.927   3.040   4.009 -0.0012  0.1070  0.2728
25210W        W38624   3.758  17.097  12.547 -0.3513 -0.0092  0.2123
25211W        W38625   1.047   5.327  15.525  0.2658 -0.3235 -0.0421
25212W        W38626  14.180   4.882   3.432 -0.2277  0.0145 -0.0743
25213W        W38627   6.942  13.616   5.302 -0.2531  0.0419  0.0575
25214W        W38628   4.848   5.997   0.952 -0.0909 -0.2817 -0.1106
25215W        W38629   0.134   0.456  10.861 -0.1224  0.0649  0.0040
25216W        W38630  11.643  11.243   3.542  0.2872 -0.1598 -0.0577
25217W        W38631   8.024   1.484  15.405  0.1703 -0.2705 -0.0374
25218W        W38632  14.874   0.063   2.005  0.0402 -0.2530 -0.3033
25219W        W38633   2.412  12.203  11.962 -0.0229  0.1414  0.0714
25220W        W38634   8.995   3.403   4.072  0.0241 -0.0503 -0.0394
25221W        W38635  17.761   1.680   1.131  0.0049  0.2526 -0.1715
25222W        W38636   8.419   8.509   1.980  0.1083  0.2169  0.0099
25223W        W38637  12.504   5.035   2.162 -0.4900  0.1720 -0.1407
25224W        W38638   6.926  12.217   4.240  0.2053 -0.4168 -0.0257
25225W        W38639  16.796  10.719   1.624  0.2244 -0.1879  0.3158
25226W        W38640   4.017   7.233  10.813 -0.2448 -0.1216 -0.0586
25227W        W38641  17.088   8.594  16.133 -0.0611 -0.2888  0.0155
25228W        W38642  15.506  11.014   3.222  0.0016  0.1428  0.0622
25229W        W38643  14.846   1.839  11.998  0.1713  0.0074 -0.2772
25230W        W38644   1.945  11.656   6.312  0.3224  0.2348  0.5228
25231W        W38645   8.431   9.846  14.969  0.2407  0.0026 -0.1934
25232W        W38646  14.048  11.522   1.749 -0.0115  0.0533 -0.1585
25233W        W38647   4.885  15.791  13.965  0.0875 -0.2543 -0.2309
25234W        W38648  13.289  11.873   4.106 -0.0991 -0.2536  0.3200
25235W        W38649  11.914  11.838   5.781 -0.1886 -0.0332 -0.2349
25236W        W38650   3.471  14.471  13.084 -0.3511 -0.1694 -0.1144
25237W        W38651   6.094   9.227   1.222  0.2317 -0.2499  0.1175
25238W        W38652  12.418  15.248   0.470 -0.0082 -0.1472  0.0177
25239W        W38653   1.060  14.617  12.639  0.0633 -0.0569 -0.0486
25240W        W38654  15.877   9.537   2.832  0.1821  0.0871  0.5388
25241W        W38655  14.636   0.529   1.093  0.0231 -0.3513 -0.2168
25242W        W38656   6.262   5.335  14.836 -0.0841  0.0432 -0.0458
25243W        W38657   8.206  13.872  15.245 -0.0259  0.0616 -0.0143
25244W        W38658   3.516   0.619  14.230  0.3348 -0.2526 -0.1081
25245W        W38659   1.894  17.356   4.631  0.0949  0.2017  0.1876
25246W        W38660  12.788   5.110   2.670  0.1046  0.1930 -0.6015
25247W        W38661   3.591  13.635   2.097  0.0786 -0.1083  0.0255
25248W        W38662   4.896   2.903  10.868  0.0936  0.2027  0.1331
25249W        W38663  16.383  14.078   4.177 -0.2693  0.1252  0.1993
25250W        W38664  17.509  16.730  12.647 -0.0951  0.1055  0.3033
25251W        W38665  14.482  13.635  13.432  0.2001  0.2349  0.0079
25252W        W38666   3.527   8.605   0.585  0.1547  0.0794  0.0789
25253W        W38667   0.894  10.513  12.827  0.0548 -0.0620  0.0375
25254W        W38668  17.196   7.411  10.974  0.0493 -0.0302  0.2312
25255W        W38669  17.429  10.133   5.795  0.0083 -0.1566 -0.0826
25256W        W38670   8.844   3.469  15.219  0.1511 -0.0860  0.0367
25257W        W38671   7.595  17.676  10.639 -0.1009 -0.0670  0.1032
25258W        W38672  17.881   7.124   4.913  0.0007  0.2047  0.1208
25259W        W38673   2.481   0.492  15.078  0.1389  0.0666  0.1830
25260W        W38674   7.029  12.535  14.960  0.0852 -0.0509 -0.0394
25261W        W38675  10.407  14.938   9.434 -0.0822  0.3302  0.4051
25262W        W38676  16.060  16.842   4.826  0.1857  0.1204 -0.0762
25263W        W38677  13.980  14.138  14.058 -0.2610  0.0169 -0.0072
25264W        W38678  11.252   9.566   0.415  0.0733 -0.0924  0.0799
25265W        W38679  11.396   0.764   1.131  0.0756 -0.2539  0.3620
25266W        W38680  16.605  11.728  14.150 -0.0828  0.2797 -0.0669
25267W        W38681  16.001   6.189   4.225  0.0028  0.1668  0.1102
25268W        W38682   7.927   0.429   5.548  0.2198  0.3190  0.4478
25269W        W38683  16.281  14.830  13.397  0.0060  0.0245  0.1138
25270W        W38684   6.985  16.190   3.276  0.0656  0.2138 -0.1053
25271W        W38685  17.289   6.570  12.442  0.2106  0.1390 -0.0321
25272W        W38686  15.694  15.286   2.952  0.0549  0.1181  0.1624
25273W        W38687   1.981  12.515  13.371 -0.2448 -0.0372  0.0187
25274W        W38688   4.095  10.481   0.928  0.1753  0.2653  0.1226
25275W        W38689  15.800  12.688   3.751  0.3157  0.0543 -0.1233
25276W        W38690   8.952  12.820   3.372 -0.0023 -0.0822 -0.0549
25277W        W38691   3.210  10.614   1.617  0.0970 -0.1693  0.0519
25278W        W38692  16.625   7.589  12.595 -0.2601  0.3706  0.5332
25279W        W38693  14.551  17.402   2.238  0.0313  0.1603  0.2113
25280W        W38694   1.711   8.759   2.878 -0.1142  0.4178 -0.0653
25281W        W38695  12.551  10.549  13.596  0.0971  0.1546 -0.1216
25282W        W38696  10.990   8.614   0.675 -0.0978  0.1746  0.2613
25283W        W38697   2.442  14.809  15.271  0.1347 -0.1558 -0.1815
25284W        W38698  14.289   6.752  15.947 -0.6428  0.0475  0.0428
25285W        W38699   5.310  14.279   0.317 -0.0545  0.1852 -0.0890
25286W        W38700   7.948   7.595   5.595 -0.0589 -0.1118  0.0232
25287W        W38701  14.729  13.640  12.486 -0.1430  0.0861  0.0899
25288W        W38702   4.179   7.247  13.508 -0.2642  0.0930 -0.0295
25289W        W38703   9.947   4.088   5.628  0.2193 -0.2662  0.2931
25290W        W38704  12.315   1.110  14.445 -0.1770 -0.5337 -0.0318
25291W        W38705   0.199  15.013   4.150  0.1064 -0.3836  0.0724
25292W        W38706   4.734   6.089   2.800  0.2166 -0.0773 -0.1194
25293W        W38707  10.714  11.388   0.328 -0.0587  0.1670 -0.0234
25294W        W38708  18.353  14.192  15.230 -0.0174  0.0355  0.1239
25295W        W38709   2.629  11.266  13.208 -0.1302 -0.0282  0.1150
25296W        W38710   8.491   1.685   4.531  0.1881  0.0538 -0.0801
25297W        W38711   4.751  14.130  10.928 -0.0121  0.0911  0.1132
25298W        W38712   5.553  18.167   1.336 -0.1432 -0.0424 -0.0279
25299W        W38713  11.956  13.488  12.771 -0.1081 -0.1111  0.0214
25300W        W38714   1.786   8.013  10.142  0.2720 -0.1539  0.3039
25301W        W38715  16.959   6.238   5.879 -0.0840 -0.1246 -0.0060
25302W        W38716   6.568  17.686   0.964 -0.1646  0.1386  0.1824
25303W        W38717   0.323   2.448   2.473 -0.0904  0.2446 -0.0585
25304W        W38718  15.925  17.324  13.170  0.2861 -0.1349 -0.0296
25305W        W38719   1.018  15.597   1.741 -0.0728 -0.0742 -0.0764
25306W        W38720   7.973  12.506   9.377 -0.0671  0.1727  0.0509
25307W        W38721  11.924   3.331  15.682  0.1068  0.3603  0.1676
25308W        W38722   4.607   4.468  12.404  0.0793  0.4999  0.2004
25309W        W38723  17.153  18.361   3.205 -0.1771 -0.2510 -0.3925
25310W        W38724   9.238  10.208   4.488 -0.2019  0.2458 -0.2347
25311W        W38725  18.357   8.487   0.520 -0.0233  0.2614  0.0706
25312W        W38726  14.905  17.490  11.759  0.1162 -0.0173 -0.2416
25313W        W38727   2.506  15.975  15.780 -0.3115 -0.1638 -0.0976
25314W        W38728   9.358  16.916  14.929  0.4578 -0.2209  0.1354
25315W        W38729   7.453  15.058   2.435 -0.1243 -0.1184  0.0590
25316W        W38730   4.877   4.709  13.728  0.1786 -0.0511  0.0349
25317W        W38731  17.046  16.232   3.700  0.0106 -0.0917 -0.0932
25318W        W38732   7.361   0.883   1.795  0.1423  0.1871 -0.0420
25319W        W38733  15.314   5.636  13.792 -0.0458 -0.1172  0.3394
25320W        W38734   4.560   7.000  15.984 -0.1961  0.0533 -0.0982
25321W        W38735  10.350  16.245  10.678  0.1002 -0.0220  0.1466
25322W        W38736   5.488  17.775   4.984  0.1008  0.4541  0.0816
25323W        W38737  12.959  16.974   3.522  0.0464 -0.3212 -0.0311
25324W        W38738   0.209  17.032   0.468  0.0905 -0.4276  0.2201
25325W        W38739  12.733   4.637  12.510 -0.1187  0.1417  0.0457
25326W        W38740   2.532   5.603   3.068  0.0887 -0.1778  0.0892
25327W        W38741   4.025   2.454   4.814  0.2404  0.0339  0.1163
25328W        W38742   2.205   2.194   1.173 -0.0323 -0.0255 -0.4357
25329W        W38743  15.002  10.774   1.916 -0.1411  0.2325 -0.1491
25330W        W38744   5.539   2.420   0.253  0.0339  0.5078  0.0618
25331W        W38745  10.362  11.937  11.226 -0.0504  0.0120 -0.1806
25332W        W38746  13.172  16.550   2.786 -0.0328 -0.0463 -0.1317
25333W        W38747  10.276   8.088   9.987 -0.1470  0.0207  0.0900
25334W        W38748   6.884  10.508  11.321 -0.2672 -0.2607 -0.1207
25335W        W38749  17.476  16.149  11.580 -0.0804 -0.0349 -0.1661
25336W        W38750  13.919   6.332   4.378 -0.4552 -0.0173 -0.1710
25337W        W38751  14.215   2.336   0.402  0.0715  0.1056  0.3951
25338W        W38752   7.040  11.016  11.281 -0.0181 -0.3494 -0.2535
25339W        W38753  18.065  11.590   2.825 -0.0275 -0.4256  0.2563
25340W        W38754   9.913  10.878   2.514  0.0105 -0.0225 -0.2583
25341W        W38755  13.046  15.559   3.959 -0.1255 -0.0293  0.0837
25342W        W38756  13.503   1.065   5.413 -0.3821 -0.0465 -0.0290
25343W        W38757  18.414   8.463   2.284  0.2677 -0.0404 -0.0983
25344W        W38758  11.699  13.421  15.248  0.2831  0.2987  0.1422
25345W        W38759   2.459  17.472   0.809 -0.0250  0.0073 -0.3736
25346W        W38760  16.517   3.563   2.715  0.0256 -0.0970 -0.0166
25347W        W38761   9.959  10.073  13.063  0.0789 -0.3169  0.0951
25348W        W38762   0.124   3.974  14.562 -0.1272  0.0941  0.3321
25349W        W38763   6.162  16.400   5.037  0.2200 -0.2589  0.0359
25350W        W38764   8.014   7.128  11.978  0.1353 -0.2510  0.0327
25351W        W38765  12.385   5.275   6.417  0.1239 -0.1949 -0.0463
25352W        W38766  15.607  16.031   3.996  0.0704 -0.3362  0.3322
25353W        W38767   3.574   9.899  13.692  0.2169 -0.1275 -0.2393
25354W        W38768  17.545   4.169   1.487 -0.1677 -0.0399  0.1096
25355W        W38769   0.961   1.240  12.417 -0.2258  0.2510 -0.2831
25356W        W38770  11.578  18.447   2.038 -0.1260  0.0546 -0.0899
25357W        W38771   5.222   4.103  15.272  0.3779 -0.0007 -0.1616
25358W        W38772  14.490   4.938   5.212  0.0270 -0.2044  0.0686
25359W        W38773   0.220  15.899   0.710  0.0400  0.2341 -0.3527
25360W        W38774   1.806  18.396   4.753 -0.1381 -0.0021  0.1881
25361W        W38775   6.970   2.364   3.031  0.0569  0.1566 -0.1582
25362W        W38776   8.001  17.199   1.441  0.0305 -0.1790  0.0059
25363W        W38777  17.102   1.586  11.822 -0.0997 -0.0809  0.0787
25364W        W38778  13.269  16.896   2.334 -0.1212 -0.1198  0.1455
25365W        W38779   3.147   7.188   4.628  0.2909  0.2534  0.1583
25366W        W38780   8.661  15.217  14.204  0.3352  0.0236 -0.1781
25367W        W38781   8.972  16.465   2.561  0.2532 -0.2482  0.1306
25368W        W38782   1.760  10.715   4.220  0.0587 -0.0924 -0.2101
25369W        W38783  10.508   7.473   1.731 -0.0912  0.2170 -0.2768
25370W        W38784  17.271  11.729  10.134  0.1370 -0.1333 -0.4916
25371W        W38785   9.646   0.112  10.452 -0.2147 -0.0729 -0.3986
25372W        W38786  12.105   7.683   1.644  0.1886  0.1665 -0.1658
25373W        W38787  12.869   4.983   4.877  0.3392  0.2409 -0.1631
25374W        W38788   8.689  12.652   5.959  0.0258 -0.1934  0.1744
25375W        W38789   4.773   6.104   4.936  0.0124 -0.0081  0.2792
25376W        W38790   1.717  12.598  11.584  0.5105  0.1071 -0.0438
25377W        W38791   4.215  13.224  11.855 -0.1142  0.0289  0.1100
25378W        W38792   5.255  16.658   1.001 -0.0765  0.0686 -0.1718
25379W        W38793  14.584   9.544   3.987 -0.1127 -0.2114  0.0275
25380W        W38794  14.532   2.407   2.543 -0.1427  0.2046  0.1019
25381W        W38795   6.802  13.663  12.549  0.0294  0.1313 -0.3496
25382W        W38796   3.338   8.929   6.492  0.0955 -0.0622  0.0002
25383W        W38797  17.457   9.473  15.293  0.2598 -0.0758  0.1140
25384W        W38798   6.520  10.503  14.364 -0.0840  0.1200 -0.1214
25385W        W38799   7.990   1.684   2.842 -0.1276  0.1109  0.1637
25386W        W38800  15.646  16.341   3.023  0.1275  0.1439 -0.1653
25387W        W38801  10.776   8.340   3.250  0.2085  0.1188 -0.3476
25388W        W38802  16.340   1.556   3.044 -0.0501  0.0624  0.1731
25389W        W38803  10.990  16.869  13.377 -0.1350  0.0605 -0.1110
25390W        W38804  13.175  13.001   3.245 -0.1352  0.0953 -0.0922
25391W        W38805  14.805  18.035  15.941  0.2387 -0.1260  0.1148
25392W        W38806   0.095   6.802   0.686  0.0239  0.4408 -0.0871
25393W        W38807  12.941  10.969   2.965 -0.2039 -0.3772  0.1435
25394W        W38808   3.217  11.184  15.387  0.2518  0.3339  0.3757
25395W        W38809  18.193  14.030   4.188 -0.0704  0.0059 -0.0121
25396W        W38810   2.609   6.104  13.523 -0.3570 -0.1795 -0.0873
25397W        W38811   6.235   9.070  12.367 -0.0578 -0.0145 -0.1832
25398W        W38812  13.026   3.902   0.400  0.1003 -0.0267 -0.0262
25399W        W38813   8.183  10.820   2.679 -0.1588 -0.0155 -0.1796
25400W        W38814  13.805  11.680  15.855 -0.0621 -0.0796 -0.0689
25401W        W38815   4.553  16.907   4.791  0.0145 -0.1561 -0.1526
25402W        W38816   1.101   2.718  13.315 -0.0215  0.0973  0.1163
25403W        W38817  13.755   5.769   1.993 -0.0006 -0.1928 -0.0556
25404W        W38818   6.998   1.075   4.107  0.3862  0.0158 -0.2500
25405W        W38819  15.792  15.548  11.047 -0.0957 -0.2309 -0.3740
25406W        W38820  10.144  17.437   3.491  0.0038  0.2183  0.1571
25407W        W38821  11.404   3.717   4.808 -0.1500 -0.1263 -0.1477
25408W        W38822  10.693  18.343  14.687  0.0957  0.2396  0.3716
25409W        W38823  11.104  13.723   4.869  0.2463  0.1682 -0.1090
25410W        W38824  11.963   2.334   5.097  0.1940 -0.2870 -0.2656
25411W        W38825   0.072  15.161   2.832 -0.2750  0.2417 -0.2850
25412W        W38826  17.997  10.966   4.182 -0.1097 -0.2479  0.0643
25413W        W38827  11.311  10.598  12.132  0.2962 -0.0198  0.0795
25414W        W38828  12.472   7.662  13.137 -0.2094  0.1731  0.1220
25415W        W38829   2.201   9.264   5.679 -0.1174  0.0417 -0.0196
25416W        W38830   6.649   5.479  11.363 -0.0674 -0.2814  0.1114
25417W        W38831   4.927   9.820   2.928  0.3201 -0.3876 -0.3370
25418W        W38832  15.370   8.133   2.172  0.1896 -0.1317 -0.0912
25419W        W38833  15.024   4.636  13.621 -0.0490 -0.2740  0.0694
25420W        W38834  15.543   9.503   1.352  0.1370 -0.0905 -0.0120
25421W        W38835   4.284  13.079  14.226 -0.2002  0.1144 -0.0523
25422W        W38836  10.579  18.079  10.440  0.2190  0.3779  0.2467
25423W        W38837  18.204   1.400  11.807  0.0475 -0.2839  0.1466
25424W        W38838  18.317   5.376   6.101  0.0324  0.0706 -0.0369
25425W        W38839  15.737   6.825  15.010 -0.3146 -0.2702  0.0327
25426W        W38840   1.606  14.664   1.457  0.1433 -0.0870  0.1883
25427W        W38841   9.214   4.731  11.651 -0.2281  0.2913 -0.1894
25428W        W38842  13.047  11.477   2.709  0.1361  0.0413 -0.3286
25429W        W38843   1.137  16.210   6.110 -0.0867 -0.0324 -0.1061
25430W        W38844  11.905  15.123  14.318 -0.2414 -0.1144 -0.1432
25431W        W38845   7.500   9.729   9.909 -0.1058 -0.2370  0.1419
25432W        W38846  12.809  10.831  13.303  0.2599 -0.2568  0.1881
25433W        W38847  11.531   1.961  11.504  0.0628 -0.2260 -0.0921
25434W        W38848  11.003   6.753  12.437  0.1276 -0.3407  0.1564
25435W        W38849   1.950  15.651   0.297  0.0714 -0.1845  0.0415
25436W        W38850   6.749  11.292   1.978  0.0245  0.3108 -0.1130
25437W        W38851  16.406  17.136  13.422 -0.0076  0.1003  0.1032
25438W        W38852  12.782   4.686  14.956  0.1745 -0.1963 -0.1647
25439W        W38853   0.187  13.720   0.595  0.0581 -0.1560  0.1165
25440W        W38854  14.246  12.459  12.166  0.3236 -0.0112 -0.1762
25441W        W38855   5.522   9.013  15.361 -0.0474 -0.1654 -0.2499
25442W        W38856  13.451   6.260   0.578  0.2128 -0.1450 -0.0699
25443W        W38857  10.725   6.118   2.374  0.1003  0.0019 -0.0203
25444W        W38858   2.959   6.083  11.281  0.1024 -0.1198  0.2169
25445W        W38859   8.222   3.311   5.817  0.1964  0.5186 -0.0712
25446W        W38860   0.510  16.714   3.833 -0.0605 -0.0584  0.2428
25447W        W38861  18.270   1.374   1.907 -0.0933 -0.0471  0.0443
25448W        W38862   0.011   5.391   4.596  0.0812 -0.4092  0.1552
25449W        W38863  11.152  16.539  14.326 -0.0369 -0.0627  0.1450
25450W        W38864   7.963  12.780   0.993 -0.2019  0.0921  0.0638
25451W        W38865   6.116   2.861   2.282  0.2202 -0.2219 -0.0173
25452W        W38866  10.354   0.503  15.599 -0.0176 -0.0477  0.1136
25453W        W38867   9.880   9.521   4.748 -0.1382 -0.3306 -0.1191
25454W        W38868   9.018  15.557  11.727 -0.4112 -0.0778  0.1283
25455W        W38869   3.156   4.706  14.234  0.0221 -0.1153  0.0885
25456W        W38870  16.832   2.086  14.853  0.1929  0.1207  0.1247
25457W        W38871  15.246  14.520   1.552  0.1695  0.3331  0.1129
25458W        W38872   0.711   8.995  11.514 -0.0175 -0.1919 -0.1806
25459W        W38873  17.442  17.342   3.127  0.1155 -0.1133  0.0256
25460W        W38874  12.679  12.535  11.253  0.0918  0.0022 -0.1145
25461W        W38875   4.284   5.337  13.351 -0.2658  0.0534 -0.0396
25462W        W38876  10.840   5.658   5.788  0.0103 -0.0191 -0.1363
25463W        W38877   2.462  13.846  12.594 -0.0223  0.2896  0.1790
25464W        W38878  18.236   8.374  11.152 -0.4746  0.0239  0.0120
25465W        W38879  10.663   7.251  12.662 -0.0858 -0.1022 -0.1568
25466W        W38880   3.527   4.514   4.757  0.1646  0.3106 -0.0415
25467W        W38881   1.174  10.245   1.284 -0.0802 -0.0563 -0.0345
25468W        W38882   2.464  11.253   2.988 -0.1910  0.0846 -0.0446
25469W        W38883  15.095  13.937  12.344  0.1023  0.0893 -0.2697
25470W        W38884  12.943  15.648  10.271 -0.2459  0.3296  0.1540
25471W        W38885  15.293  16.219   0.317 -0.0154  0.0169 -0.0422
25472W        W38886   9.817  16.671   2.515 -0.1098  0.2876  0.0884
25473W        W38887   8.440   0.085  14.906  0.0585  0.1586  0.1260
25474W        W38888   7.832  17.920  14.884  0.2202 -0.1350  0.0557
25475W        W38889   3.522   5.132  14.020  0.3663 -0.0087 -0.0873
25476W        W38890  15.217   8.492   1.045 -0.4318  0.0080  0.1817
25477W        W38891   6.666   0.625   4.966  0.2696  0.3450  0.0696
25478W        W38892  13.485  10.615   0.075  0.1032 -0.1585 -0.0008
25479W        W38893  10.642  12.690   2.257 -0.2704 -0.1594 -0.0994
25480W        W38894  11.180   0.164  14.684 -0.1400  0.2537  0.0650
25481W        W38895  13.980   5.783   4.740  0.3822  0.1935  0.2029
25482W        W38896  10.990  17.210   2.815  0.0174  0.2976  0.0367
25483W        W38897  14.579   3.224  15.687 -0.2256 -0.0062 -0.0193
25484W        W38898   2.286  16.172   5.214  0.0709 -0.2033 -0.3785
25485W        W38899  11.325   5.234  12.245 -0.2383  0.0081 -0.1621
25486W        W38900   3.941   3.968   2.685  0.1350 -0.0598 -0.0015
25487W        W38901   9.820  12.929  15.261 -0.1316  0.2212 -0.1680
25488W        W38902  13.498  14.435  13.410  0.0057  0.2859 -0.0452
25489W        W38903  13.056   4.169  13.808 -0.0023 -0.0168  0.0890
25490W        W38904   3.877   9.736  13.001 -0.0968 -0.1110 -0.4043
25491W        W38905  15.398   9.892   4.429  0.0412  0.3144  0.0761
25492W        W38906  12.710  14.922   3.222 -0.0927 -0.0713  0.1742
25493W        W38907  16.409   3.656   5.744 -0.1225  0.3669 -0.1234
25494W        W38908   9.550  17.273  12.813  0.1973 -0.0370  0.0781
25495W        W38909   5.535   2.017   1.607  0.1088 -0.1191 -0.2074
25496W        W38910  14.370   7.820   3.500  0.0481 -0.1105  0.1550
25497W        W38911   8.957  15.092  11.914  0.1999  0.3214 -0.1594
25498W        W38912   7.435   6.677   3.274  0.2209 -0.2067  0.1029
25499W        W38913  14.556   6.212  12.042  0.1784 -0.1105 -0.1023
25500W        W38914   2.832  14.391  12.716  0.2762 -0.0493  0.2899
25501W        W38915  16.576   7.094   3.262  0.2025 -0.1600  0.0042
25502W        W38916  12.690  11.787   1.656 -0.2161 -0.0365  0.2494
25503W        W38917   6.759   8.340  14.636 -0.0861  0.0627 -0.1304
25504W        W38918  10.013   8.283   1.364  0.0529  0.1651 -0.0396
25505W        W38919  11.699   0.625   5.269 -0.0038  0.0420  0.0506
25506W        W38920  15.816  10.482  10.417  0.0878  0.3136  0.0977
25507W        W38921  16.866  13.079   2.725 -0.0708  0.1914 -0.1284
25508W        W38922   2.601   2.178   3.102  0.2075 -0.1380  0.0284
25509W        W38923   7.311  12.391  13.631 -0.0173 -0.0280  0.0768
25510W        W38924   4.207  13.459  13.583  0.0172 -0.2494  0.2532
25511W        W38925   3.786  17.960   4.274  0.1523 -0.1788 -0.2815
25512W        W38926   7.764   8.562   1.132  0.2832  0.1379  0.0360
25513W        W38927   9.509   2.032  15.567 -0.0899  0.0801  0.0427
25514W        W38928  10.710   4.555  14.021 -0.1552  0.2823 -0.0026
25515W        W38929  16.847   0.829  15.293 -0.2201 -0.3018 -0.1702
25516W        W38930  14.968  17.080   2.142  0.2182 -0.0883 -0.0721
25517W        W38931   0.054  10.283  14.398 -0.0320  0.3713 -0.0780
25518W        W38932  16.367  17.333   1.653 -0.2984  0.2038  0.1099
25519W        W38933   3.564   5.890   0.048  0.2324  0.0792 -0.4324
25520W        W38934   2.151  10.241  12.435  0.2218 -0.0897  0.0677
25521W        W38935   0.335   6.617   3.275  0.2284  0.1188 -0.2071
25522W        W38936  17.997   5.940  11.897 -0.0026  0.0525 -0.2789
25523W        W38937  14.779   5.147  13.277 -0.1693 -0.0458  0.1376
25524W        W38938   8.480   5.167   3.010 -0.0909 -0.1805  0.2099
25525W        W38939  14.459  15.748  13.207  0.0953 -0.0842 -0.0911
25526W        W38940  18.142  12.699   1.368 -0.2859  0.2758  0.3618
25527W        W38941  12.428  17.025   1.665  0.1637 -0.1356  0.1476
25528W        W38942  13.049   4.496   4.742 -0.0593  0.0785 -0.1698
25529W        W38943  17.683  18.273  14.963  0.0236 -0.3534  0.2414
25530W        W38944   5.496  17.573  11.605  0.3102  0.1340  0.2148
25531W        W38945   0.067   8.169   5.412  0.0227 -0.0975  0.0175
25532W        W38946   1.464   8.328  10.678 -0.0639  0.0760  0.0434
25533W        W38947   1.210  15.115   2.175 -0.0123  0.4055  0.0217
25534W        W38948   4.189   6.928   0.090 -0.1213 -0.0669 -0.0115
25535W        W38949   0.245   1.607   4.530  0.1432  0.0285  0.2265
25536W        W38950   9.128  16.348  12.802 -0.2947  0.0524 -0.0482
25537W        W38951   0.407   7.717   3.358  0.4548 -0.3572 -0.3357
25538W        W38952  14.746   5.033  13.803 -0.3512  0.0848  0.1557
25539W        W38953   6.716   5.230  14.599 -0.1492  0.4758  0.2116
25540W        W38954   9.722  14.853  13.370  0.1396 -0.0168 -0.2092
25541W        W38955   7.939   5.619   5.501 -0.0689 -0.0389 -0.1910
25542W        W38956  16.605  14.448  11.615 -0.0093 -0.1099  0.0372
25543W        W38957   9.999   9.851   3.120 -0.1951  0.2103  0.1400
25544W        W38958   6.604  15.570   5.118  0.0773 -0.3149 -0.1289
25545W        W38959  13.881  14.543  12.110 -0.1260 -0.1242 -0.0070
25546W        W38960   4.497   9.484  12.243 -0.3451 -0.1294  0.0106
25547W        W38961   4.499   1.074   5.018  0.1849  0.1532  0.0577
25548W        W38962   9.151  11.611  12.023 -0.4276  0.0377 -0.1318
25549W        W38963  18.082  10.544  11.771  0.3005 -0.0461  0.0234
25550W        W38964  13.061  15.262   2.909  0.2834  0.1157 -0.1719
25551W        W38965  10.807   4.171  11.184 -0.0252 -0.1552  0.1338
25552W        W38966   8.570  11.661  14.906 -0.3940 -0.2042  0.1569
25553W        W38967   4.098  12.866   3.037 -0.2749  0.1949 -0.1961
25554W        W38968   4.476   3.019  10.494 -0.0596 -0.1589  0.2815
25555W        W38969  11.199   1.166   0.770  0.1755 -0.0825 -0.2141
25556W        W38970   8.182   8.388  15.341  0.1750 -0.1710 -0.1902
25557W        W38971   6.745  12.585   3.929  0.0149  0.0696 -0.0964
25558W        W38972  13.234   2.154  12.051 -0.0262 -0.0902  0.0638
25559W        W38973   6.329  15.149   1.864  0.1201 -0.1186  0.0089
25560W        W38974  14.066  10.356   3.882 -0.1442  0.2348 -0.1994
25561W        W38975   5.845   9.311   9.903 -0.0761 -0.0753 -0.0588
25562W        W38976  12.217   6.141  11.819  0.1852  0.1181  0.0627
25563W        W38977  10.009   0.035   2.409  0.2957 -0.3064  0.1133
25564W        W38978  12.465   6.061   0.659  0.0377  0.4715 -0.0201
25565W        W38979   8.127  13.424  15.678  0.0188 -0.1043 -0.2057
25566W        W38980  16.379  16.551  14.484  0.2312  0.1773 -0.4327
25567W        W38981   4.150  16.205   2.353 -0.2184 -0.1297  0.1456
25568W        W38982   0.137   2.070   4.495  0.0456  0.1303 -0.3013
25569W        W38983   4.397  17.176   0.401 -0.2582  0.1889 -0.4048
25570W        W38984  11.739  16.385   5.059  0.2236  0.0107 -0.0116
25571W        W38985   7.099  17.454  14.479 -0.0640  0.1234  0.2571
25572W        W38986   6.861   0.359   2.453 -0.3084  0.0527 -0.1129
25573W        W38987  15.235  11.624  12.774  0.2250  0.0858  0.1132
25574W        W38988  17.841   9.075   4.956 -0.1090 -0.2032  0.0261
25575W        W38989   5.927   6.267  10.913  0.3214  0.1081 -0.0325
25576W        W38990  10.222   8.650  11.289  0.1410 -0.2909 -0.2384
25577W        W38991   3.323   8.704   1.084 -0.0636  0.0621 -0.3701
25578W        W38992  13.890  13.136   1.279 -0.1930  0.0368 -0.0982
25579W        W38993   3.305   6.860   1.282 -0.1889 -0.1607  0.1694
25580W        W38994  12.746  12.969   0.851  0.1451 -0.4135 -0.0467
25581W        W38995   1.214  18.394   3.967  0.1476 -0.0897  0.1396
25582W        W38996  11.170   8.193  10.084  0.1045  0.1628  0.0168
25583W        W38997   2.389   1.461  15.270  0.0681 -0.0001  0.5260
25584W        W38998   8.793  15.981   0.937  0.0632  0.1069  0.0391
25585W        W38999  14.424   7.315  11.741  0.0385  0.2133 -0.0317
25586W        W39000  14.237  11.163   3.760 -0.0800 -0.0054 -0.1819
25587W        W39001  10.033  13.947   0.839 -0.1045  0.1412  0.2348
25588W        W39002  12.725  17.868   3.828 -0.1927  0.0927  0.1380
25589W        W39003   1.745   0.453   0.690 -0.1176  0.0256  0.1055
25590W        W39004   9.796  15.674  15.281  0.0991 -0.0187  0.0384
25591W        W39005   7.871   1.727  16.271 -0.2758 -0.0174 -0.2996
25592W        W39006  10.457   3.255  15.187 -0.0305  0.0122  0.1824
25593W        W39007   8.592   8.803  10.817  0.1458 -0.1362 -0.1568
25594W        W39008   5.597   8.756   4.956  0.1709  0.1174 -0.1869
25595W        W39009  10.293  18.404  13.355  0.0508 -0.1250  0.2199
25596W        W39010  10.201  14.925   2.851  0.1840 -0.1940 -0.0036
25597W        W39011   1.896   9.071  10.748 -0.2775 -0.0874  0.0990
25598W        W39012  14.168   2.134   2.154 -0.2754  0.0931  0.1632
25599W        W39013   7.728  14.838  10.286  0.1149  0.0377 -0.4385
25600W        W39014  18.084  17.575   0.432  0.1096  0.1857  0.0774
25601W        W39015   4.832  12.117  15.070  0.1093 -0.2438 -0.0265
25602W        W39016   9.738  10.004   4.866 -0.3722  0.0399  0.0114
25603W        W39017   1.289   6.471   2.598 -0.0555 -0.0254 -0.0866
25604W        W39018  11.994  16.177  15.542 -0.2736  0.0407 -0.0993
25605W        W39019   1.698   7.611  12.996 -0.1594  0.4034 -0.3401
25606W        W39020  11.946   5.766  11.554 -0.0884 -0.1680  0.1602
25607W        W39021   0.550   9.679   3.011  0.1469 -0.0637 -0.1016
25608W        W39022   3.914   5.351   3.814 -0.3820 -0.2056 -0.0142
25609W        W39023   2.597   5.986  15.411 -0.2220  0.0866  0.2958
25610W        W39024   4.604   3.532   5.448  0.1261 -0.1082  0.0616
25611W        W39025   5.930   9.656   5.010 -0.1083 -0.0388  0.1335
25612W        W39026   8.482   0.825   3.319 -0.2662  0.0799  0.0114
25613W        W39027   4.956  11.914   4.665  0.1861  0.0907 -0.0542
25614W        W39028   4.952  15.205  14.177  0.1791 -0.1345 -0.1558
25615W        W39029  17.311   0.130   1.492  0.0054 -0.1014  0.1693
25616W        W39030   5.093  17.365   5.280  0.0224 -0.2943 -0.0125
25617W        W39031   9.102   3.152   2.321 -0.0458  0.0737 -0.0271
25618W        W39032  10.677   0.640   3.695  0.1731  0.0287 -0.0902
25619W        W39033  16.285  11.856  12.584  0.2955  0.0052 -0.0261
25620W        W39034   1.764  13.145   4.087 -0.0391  0.1598  0.0316
25621W        W39035  14.299  15.530   4.843  0.1433 -0.2074 -0.2912
25622W        W39036   4.741   2.284  12.929  0.1196 -0.0767 -0.0335
25623W        W39037   2.690  11.419  14.550  0.1869 -0.0211  0.0447
25624W        W39038   2.809   3.093   4.404  0.0757 -0.3897  0.1717
25625W        W39039   8.337  10.870   1.919 -0.0362  0.1425 -0.1683
25626W        W39040  11.475   8.605   3.668  0.0220  0.0403  0.0299
25627W        W39041   8.253   4.912  14.950  0.2997  0.1568  0.2872
25628W        W39042   2.576  18.279   5.172 -0.2360 -0.2489 -0.0193
25629W        W39043  17.600   5.148   4.202  0.0803 -0.0843 -0.0877
25630W        W39044   5.289   6.486   5.055 -0.1322 -0.0618 -0.2208
25631W        W39045  17.941   8.356   3.857 -0.1496  0.0486  0.1630
25632W        W39046   3.568   1.649  14.313 -0.1556 -0.2183 -0.0237
25633W        W39047   7.753  10.859   3.619 -0.1313  0.0581  0.1354
25634W        W39048  15.663  11.776   4.400  0.1055 -0.2214 -0.1246
25635W        W39049   9.729   0.437   3.910 -0.1447 -0.5972 -0.0646
25636W        W39050   9.218   7.752   1.072 -0.1724 -0.2616 -0.2482
25637W        W39051   3.484   9.562  15.016  0.3955  0.0566  0.0620
25638W        W39052  10.667  14.394  12.849 -0.1640  0.1062  0.1394
25639W        W39053  11.017  15.856   5.237  0.1413  0.0306 -0.1152
25640W        W39054  17.502   4.984  13.986  0.4023 -0.1081  0.0336
25641W        W39055  15.993   6.552   1.167 -0.3247  0.0009 -0.0173
25642W        W39056   9.679  15.562  16.217  0.0090 -0.0395  0.0588
25643W        W39057  16.595   2.806   4.176  0.1703  0.3361 -0.3606
25644W        W39058  14.543  17.154  15.642  0.2843  0.0448  0.0464
25645W        W39059  11.402   6.211  14.971 -0.1494 -0.2093 -0.1143
25646W        W39060   5.369   9.851  11.297  0.1705 -0.0100  0.0561
25647W        W39061   0.920  15.384   2.445  0.1427  0.0433  0.0486
25648W        W39062  17.737  13.786  15.481 -0.0374 -0.0783  0.4836
25649W        W39063   6.534  10.938  11.281 -0.3625  0.0716 -0.2159
25650W        W39064   6.864  16.427  11.994  0.0316 -0.2578  0.0466
25651W        W39065   6.233   7.424  11.991 -0.1983 -0.1111  0.0278
25652W        W39066   2.100  14.539  11.664  0.1159  0.2550 -0.0394
25653W        W39067   4.562   9.867   3.356 -0.1932 -0.6514  0.3129
25654W        W39068   7.035  16.953   5.345  0.2021  0.5414 -0.3815
25655W        W39069   4.836  18.343  12.527 -0.1927  0.3970  0.0608
25656W        W39070   6.130   2.413  11.467 -0.4029  0.0084  0.2721
25657W        W39071  15.349  17.441  13.790  0.1722  0.4591  0.0333
25658W        W39072   3.749   2.398  12.581 -0.1428  0.1774 -0.1341
25659W        W39073   1.065  13.198   1.561 -0.0047  0.3060  0.0530
25660W        W39074   3.431   7.927  12.509 -0.1971 -0.0552  0.1036
25661W        W39075   8.558   9.906   9.826  0.0014  0.4859  0.0643
25662W        W39076  10.176  16.946   5.194 -0.1603 -0.3543 -0.0957
25663W        W39077   0.620   7.327   0.077  0.0912  0.2837 -0.3136
25664W        W39078   8.233   9.573   2.185  0.3406 -0.1319  0.1279
25665W        W39079   3.008   2.069   2.728  0.1296 -0.2519 -0.2167
25666W        W39080   9.685   3.780  12.625 -0.2037  0.0102 -0.2687
25667W        W39081   4.296  11.643  12.457 -0.4097  0.0233  0.2891
25668W        W39082  17.130  12.978  12.742  0.0408  0.3067  0.1583
25669W        W39083  12.344  12.984   4.760  0.0074  0.1378 -0.0420
25670W        W39084  14.445  15.493  14.031  0.2011  0.0747 -0.2480
25671W        W39085   4.817  14.899   4.594 -0.2374  0.4066  0.2194
25672W        W39086  17.982   5.464   3.312 -0.1922  0.0597 -0.1592
25673W        W39087   1.786   0.453  15.541 -0.1454 -0.0810  0.0836
25674W        W39088   9.239   7.791   0.277 -0.1002 -0.1463 -0.2638
25675W        W39089  17.062  15.829   2.797 -0.1954 -0.0149  0.0538
25676W        W39090   1.234  18.005   0.828 -0.1713  0.0262  0.0232
25677W        W39091  15.572   6.217   0.108 -0.0389 -0.1169  0.0413
25678W        W39092  12.532  16.150  15.805  0.2629 -0.0516 -0.0190
25679W        W39093  15.974   5.990   0.252  0.0384  0.2676 -0.1542
25680W        W39094   7.199  10.067  11.344 -0.0779  0.3482  0.2244
25681W        W39095  17.345  14.130  13.237  0.1974  0.0287  0.0655
25682W        W39096   7.117   2.898  16.130 -0.0676 -0.0793  0.2717
25683W        W39097   8.072  14.361   3.803 -0.1285  0.1276  0.1774
25684W        W39098   2.376  17.519  14.853  0.3067 -0.3365 -0.0919
25685W        W39099  17.785  12.348  13.173 -0.3334 -0.1378  0.2962
25686W        W39100  10.268   9.492  10.424  0.2286 -0.0792 -0.1140
25687W        W39101  16.946  16.433  10.644 -0.0741 -0.0713  0.3118
25688W        W39102  13.885   5.242  13.622 -0.1482  0.1772 -0.2013
25689W        W39103  11.055   7.254  13.298 -0.0522  0.1408  0.1525
25690W        W39104   3.749  11.657   0.073  0.4817  0.2674  0.0388
25691W        W39105  15.941  10.902  11.579 -0.3042 -0.1437 -0.2119
25692W        W39106   6.147  13.872   0.853  0.3881 -0.0893  0.0082
25693W        W39107   3.925   4.150   4.461 -0.1995 -0.2209  0.2599
25694W        W39108   8.832   5.872   4.008  0.1001 -0.0832 -0.1632
25695W        W39109   3.296   2.304   4.807 -0.2881 -0.0899  0.2661
25696W        W39110   5.782   7.781   6.026 -0.0123 -0.5952 -0.2660
25697W        W39111   9.107  11.345   2.641 -0.0894 -0.2085 -0.2012
25698W        W39112   0.959  12.736  11.178  0.2596  0.0375  0.1398
25699W        W39113  12.001  17.443  14.677  0.1150  0.2432  0.1304
25700W        W39114   4.799   8.531  10.653  0.2127  0.1619 -0.1966
25701W        W39115   8.265   8.296  11.651 -0.0389 -0.0838 -0.1167
25702W        W39116  17.879   6.140  14.725  0.1453 -0.0292  0.0656
25703W        W39117  10.792  12.948  13.531  0.3590  0.2769 -0.0367
25704W        W39118   6.928   4.319   2.373 -0.3871 -0.0463 -0.0352
25705W        W39119   0.579   5.946   0.812  0.0040  0.2278 -0.1682
25706W        W39120  11.706   9.404  13.193  0.2603 -0.1929 -0.5377
25707W        W39121  16.932   5.181  15.339 -0.1033 -0.0717  0.0832
25708W        W39122  13.780   6.686  15.626 -0.1788  0.1389  0.1341
25709W        W39123   4.857  12.225   0.755 -0.3007 -0.0511 -0.0335
25710W        W39124  11.942  12.581   2.794  0.0498 -0.0173 -0.1428
25711W        W39125   0.317  14.337   5.011  0.1372 -0.1028 -0.2042
25712W        W39126  15.832   4.537   1.318  0.3214  0.5372  0.2501
25713W        W39127   8.159  15.498   2.024 -0.2341 -0.1539 -0.0539
25714W        W39128  10.320  11.570  13.575 -0.1924 -0.0699  0.2597
25715W        W39129   8.423  10.972  10.956 -0.1029  0.0006 -0.2772
25716W        W39130  17.424   2.827  13.849  0.0550 -0.1685 -0.0429
25717W        W39131   0.718   0.077   5.738  0.0195  0.1221 -0.0829
25718W        W39132  14.565  11.352   1.898  0.2427  0.0299 -0.0282
25719W        W39133  16.447   8.505   1.758 -0.0714 -0.2502  0.0720
25720W        W39134   5.392  12.122  13.085 -0.2151  0.2279  0.1573
25721W        W39135  16.283   3.819   0.181  0.1014  0.1304 -0.0902
25722W        W39136  11.983   9.566   2.064  0.1418  0.1918  0.0470
25723W        W39137   1.255  17.580   1.137  0.4668  0.2501  0.0623
25724W        W39138  15.407   6.180   5.458 -0.1253 -0.0058  0.0773
25725W        W39139   7.469  17.346   1.415  0.0674 -0.0361 -0.0535
25726W        W39140  16.838   9.299  12.078  0.0963 -0.0283 -0.1402
25727W        W39141  11.329  17.060  12.423  0.0339  0.4206  0.0244
25728W        W39142  17.329   1.469  15.318 -0.0558 -0.0088 -0.2273
25729W        W39143   6.677   7.862   1.907  0.1500  0.2704  0.0182
25730W        W39144   5.420   8.035   6.316 -0.1736  0.2947  0.0588
25731W        W39145   2.922   1.080   4.922  0.1332  0.1728  0.1173
25732W        W39146  18.148   4.826   1.569  0.0132 -0.3646  0.1121
25733W        W39147   8.370   8.653   4.061  0.2634  0.1340 -0.0212
25734W        W39148   5.869   0.675   5.561  0.2111  0.2050 -0.0453
25735W        W39149   2.769   1.591  15.936 -0.2169  0.1241  0.1757
25736W        W39150   0.680   6.199  12.511  0.0993  0.0664  0.0663
25737W        W39151   9.046  10.501  10.351  0.3136 -0.2052 -0.0461
25738W        W39152  10.525  12.292   2.578 -0.3940  0.0054 -0.0533
25739W        W39153   6.163  17.177  13.769  0.2172  0.2516  0.1345
25740W        W39154  13.083  18.079  10.829  0.1462  0.1694 -0.2030
25741W        W39155   7.890  16.332  12.215 -0.1201  0.2186 -0.0574
25742W        W39156  16.660   1.509   4.101  0.0287  0.1673 -0.0751
25743W        W39157   4.225   2.194   5.237 -0.1624 -0.5594 -0.0418
25744W        W39158  17.133  15.225   4.090 -0.1837 -0.0303  0.0290
25745W        W39159  17.731  14.703   3.822 -0.0161 -0.0196  0.3631
25746W        W39160   1.030  17.455  13.383  0.0498 -0.0512 -0.1942
25747W        W39161  11.361   4.218   4.968  0.1711 -0.3593  0.0741
25748W        W39162  14.164  10.951   2.917 -0.1893 -0.2072  0.0500
25749W        W39163  10.707  14.694   2.885 -0.1699  0.0203 -0.0226
25750W        W39164  12.449  13.995   2.754  0.1304 -0.2043 -0.3582
25751W        W39165  15.398   4.450  13.370  0.0738  0.2183 -0.4315
25752W        W39166   9.047  18.016  15.456 -0.2672  0.1173 -0.2075
25753W        W39167   1.954  15.286   3.101 -0.0979 -0.2352 -0.0343
25754W        W39168  14.756   4.150   1.461 -0.4502  0.0055  0.3062
25755W        W39169  10.715   8.483  16.038 -0.2645  0.0862  0.1311
25756W        W39170  10.284   0.524   0.822  0.2975 -0.1357 -0.3028
25757W        W39171   0.122  10.348  11.627 -0.0508 -0.2330 -0.0323
25758W        W39172  17.693   8.242  15.116  0.0966  0.0411 -0.1960
25759W        W39173  16.197   0.112  13.330 -0.2056  0.1106  0.1929
25760W        W39174  16.545   9.934  15.205  0.1983  0.1045 -0.1117
25761W        W39175  12.378  11.212  14.290 -0.2468 -0.2652  0.1706
25762W        W39176   4.724  15.020   2.659 -0.0989 -0.1165  0.0786
25763W        W39177   8.396  15.354  15.674  0.4390  0.0005  0.1975
25764W        W39178  17.313  16.104  10.534  0.4596 -0.2547  0.2591
25765W        W39179   1.559  12.674   4.919 -0.2391  0.2868 -0.0355
25766W        W39180  17.077   0.813  13.486 -0.1215  0.2925  0.1234
25767W        W39181  17.484  10.495   2.685 -0.1943  0.0944 -0.1928
25768W        W39182  13.877  13.337  14.267  0.0427 -0.0223 -0.1272
25769W        W39183  13.132  12.610   0.753 -0.2541  0.1271  0.0775
25770W        W39184  10.038   0.627  13.319  0.3340 -0.1677 -0.0127
25771W        W39185   1.381   3.852  15.741  0.3163  0.0435  0.0074
25772W        W39186   7.135   0.508   1.489 -0.2173  0.3614 -0.5379
25773W        W39187  14.778  14.103   2.237  0.0914 -0.1890 -0.0008
25774W        W39188   0.467   2.515  15.447  0.0686  0.1902 -0.1063
25775W        W39189   7.925   8.867  15.243 -0.2271  0.1369  0.2382
25776W        W39190  16.351  17.376  12.848 -0.2658  0.1437 -0.1174
25777W        W39191  14.245  13.016  14.648 -0.4033 -0.0271 -0.1584
25778W        W39192  14.230  16.267   9.790 -0.0454  0.2113 -0.0458
25779W        W39193  15.350  14.537   3.139  0.1901 -0.2633  0.1573
25780W        W39194   9.314  11.817   2.844  0.0784  0.2363  0.3595
25781W        W39195   1.011  17.978  11.713 -0.1702 -0.0868 -0.1972
25782W        W39196   4.921   0.882  11.808 -0.1175 -0.0778 -0.1743
25783W        W39197   0.846   0.584  11.931 -0.0772  0.1878 -0.0262
25784W        W39198   7.763   8.593   5.890  0.2518  0.0867 -0.0607
25785W        W39199   2.911   2.493   5.678  0.1273 -0.1018 -0.2130
25786W        W39200   8.258   2.256   3.423 -0.1370  0.1904  0.0547
25787W        W39201  17.407   7.438  13.457  0.0232  0.1111 -0.1545
25788W        W39202  13.630  13.324  13.077 -0.4219  0.2853  0.1513
25789W        W39203   9.278  14.736  11.723  0.1480 -0.1005 -0.2028
25790W        W39204   3.401   7.955   2.885  0.2871  0.0176  0.3051
25791W        W39205  11.446  11.099   5.292 -0.4760 -0.4186 -0.0913
25792W        W39206   1.687   1.944   5.008  0.0413 -0.1109 -0.1041
25793W        W39207  10.427  15.763  15.405 -0.2037  0.1120 -0.1095
25794W        W39208   4.788  11.055   1.956  0.0201  0.0354 -0.3012
25795W        W39209   2.050  12.041   3.517 -0.2470  0.4014  0.0034
25796W        W39210   0.122   7.139   5.627  0.0720 -0.1178 -0.0743
25797W        W39211  16.217   7.111  14.382  0.0216 -0.3337  0.1738
25798W        W39212   6.263   5.763  16.167  0.0901  0.1107  0.0386
25799W        W39213  13.179   7.807  14.417 -0.1291  0.2497 -0.3745
25800W        W39214   8.409  15.167  16.253 -0.0541  0.3218 -0.0320
25801W        W39215  13.264   8.302   6.819 -0.2636 -0.1767 -0.2157
25802W        W39216   1.866   9.313   1.714 -0.1597  0.1846 -0.0469
25803W        W39217   3.759  13.837   9.938  0.2970  0.0513 -0.2761
25804W        W39218   9.152  10.657   4.952 -0.0086  0.0107  0.0341
25805W        W39219   1.516   0.514  11.268 -0.0224  0.0712  0.0802
25806W        W39220   2.987  16.980   0.212  0.3102 -0.2244  0.0376
25807W        W39221   6.329  17.757  13.230  0.0808 -0.0031 -0.1074
25808W        W39222  15.446  16.995  14.539 -0.0043  0.1160 -0.1418
25809W        W39223   2.803  16.495  13.500  0.0241  0.2178 -0.2300
25810W        W39224   4.293  10.942  14.078  0.0543 -0.1651  0.0480
25811W        W39225  13.449   2.214  11.551  0.0222 -0.1678  0.0517
25812W        W39226   2.434   8.830  12.236  0.1770 -0.0147  0.4287
25813W        W39227  13.180  10.480  13.021  0.1915 -0.0590  0.1069
25814W        W39228   2.566   3.354   2.141 -0.0296 -0.4288  0.2525
25815W        W39229   3.473   9.276   6.212  0.1279  0.0989  0.1367
25816W        W39230   8.061   3.593  10.942 -0.1817  0.0135 -0.1716
25817W        W39231   8.162   6.069   5.498 -0.0399 -0.0127  0.0476
25818W        W39232  13.903  12.485   1.545 -0.0772 -0.1249 -0.0074
25819W        W39233  13.237  10.145   5.720  0.3196  0.0189  0.0974
25820W        W39234  14.442  18.345   0.260  0.1144  0.0166  0.1384
25821W        W39235   6.437  10.500   5.608 -0.0834 -0.1602 -0.4803
25822W        W39236   5.771  11.804   3.598  0.2870  0.0175 -0.1198
25823W        W39237  11.446   8.165   1.204 -0.1034 -0.0542  0.1963
25824W        W39238   8.626  13.802  11.869 -0.0220  0.1726  0.1930
25825W        W39239   6.540   6.081   4.757 -0.0850  0.4084  0.2716
25826W        W39240   4.611  11.502  13.380 -0.2262  0.1941  0.1280
25827W        W39241  11.802  17.038  13.983  0.0210  0.0313  0.0955
25828W        W39242   4.043  10.611   2.062  0.0945 -0.1747  0.0337
25829W        W39243  10.579   8.161  10.979  0.0257  0.0469  0.1046
25830W        W39244   8.276  10.864   1.139 -0.1804  0.1793 -0.1228
25831W        W39245  13.470   3.803  15.109  0.1183  0.0369 -0.1196
25832W        W39246  14.026  17.993  12.751 -0.2424  0.1416  0.1736
25833W        W39247  18.432  17.863  13.880  0.1287 -0.2396  0.0233
25834W        W39248   4.420  17.041  15.347  0.0726  0.1638 -0.0939
25835W        W39249  13.482   0.984  15.014 -0.3955 -0.0248 -0.0980
25836W        W39250   6.359   8.971   3.276  0.0325 -0.3893  0.1633
25837W        W39251  12.959  15.708  16.090  0.0205 -0.1689  0.1919
25838W        W39252  18.175  12.405   5.680 -0.0489  0.0882  0.0117
25839W        W39253   4.832  10.181  13.298  0.3346  0.0372 -0.1446
25840W        W39254   9.512   3.531   1.157 -0.0177 -0.0364  0.2044
25841W        W39255  10.258  17.356   1.759  0.0218  0.0555  0.2205
25842W        W39256  10.848   1.150  11.544  0.1510  0.1660 -0.2766
25843W        W39257   8.139   5.545   5.022  0.0438 -0.1095  0.1250
25844W        W39258   3.713  10.148  13.170  0.0206  0.2128  0.0123
25845W        W39259  16.273  11.925   1.462 -0.1787  0.0558  0.0748
25846W        W39260   3.494   6.412  15.513 -0.1656 -0.1057 -0.1037
25847W        W39261   9.045  15.931   3.606  0.2868  0.0726  0.1565
25848W        W39262   0.810  16.193  11.080  0.0550 -0.0509 -0.1810
25849W        W39263  11.933   4.831  15.568 -0.2082  0.1454 -0.1866
25850W        W39264   2.958  11.935   3.367 -0.0005  0.3007  0.0249
25851W        W39265  11.285   2.479   0.826  0.2694  0.2004 -0.0697
25852W        W39266   1.576   3.729   4.421  0.3819 -0.1252  0.1229
25853W        W39267  15.198   9.858  10.925  0.0669  0.0956  0.1283
25854W        W39268   3.703   7.626  13.501 -0.0943  0.0429  0.0580
25855W        W39269  17.230  13.339  11.405  0.2488  0.3758  0.2021
25856W        W39270   3.893   0.534  15.754 -0.0056 -0.4256  0.1086
25857W        W39271   6.279   3.698  14.335  0.1405 -0.1335  0.2284
25858W        W39272   9.228  15.898  12.457  0.3017 -0.0600  0.3717
25859W        W39273   4.060   1.234  12.775 -0.2525 -0.5706  0.1230
25860W        W39274  14.767  17.565  15.852 -0.0778  0.2696  0.2684
25861W        W39275   6.883  14.780   3.135 -0.4078 -0.1405  0.0677
25862W        W39276   2.311  17.851  13.208 -0.0163  0.1901  0.2041
25863W        W39277   4.434  15.120  14.112 -0.0712 -0.0056  0.0568
25864W        W39278   0.758  11.057  12.861  0.0299 -0.0664 -0.0901
25865W        W39279  11.522   7.456   6.380  0.3582  0.1208  0.0287
25866W        W39280   0.205  16.891   3.514 -0.1018 -0.1534 -0.0365
25867W        W39281  14.265   8.710  16.148 -0.2430  0.2824 -0.0573
25868W        W39282   7.333   9.242  10.182 -0.0256  0.0956  0.3341
25869W        W39283   9.012   0.128   5.033 -0.0076  0.2803  0.1481
25870W        W39284   2.595   9.123  15.697 -0.1903  0.3673 -0.1597
25871W        W39285  12.073  11.366   0.496 -0.0110 -0.0709  0.1973
25872W        W39286   4.394  15.946   0.543  0.0568  0.1551  0.2645
25873W        W39287  14.932   3.791  10.200  0.0507  0.2067 -0.2327
25874W        W39288  18.240  16.470  12.978 -0.0190  0.2791  0.0061
25875W        W39289   7.651   8.130  15.145 -0.1083  0.0258 -0.0160
25876W        W39290   1.751   2.445  12.116 -0.0569  0.0538 -0.1632
25877W        W39291  12.378  13.080   0.368  0.0411  0.1320  0.4132
25878W        W39292  16.889   2.320   2.592 -0.2604 -0.1825 -0.1603
25879W        W39293   8.671   6.230   3.245  0.3010  0.0220  0.0851
25880W        W39294  13.805   4.582   3.278  0.0606  0.0296  0.3563
25881W        W39295   9.969   2.639   0.618  0.0066 -0.2731  0.3869
25882W        W39296   7.378   1.663   6.434  0.1262  0.3247 -0.1353
25883W        W39297  13.419   0.938   3.045 -0.0016 -0.2304  0.1250
25884W        W39298   3.400  13.273  15.358 -0.0978  0.0925 -0.0782
25885W        W39299  17.433   2.830   2.151  0.3934  0.1442  0.2782
25886W        W39300  18.126   8.458  13.601  0.0113  0.1019  0.1488
25887W        W39301  10.105   4.384   3.381  0.1741  0.0534  0.1788
25888W        W39302  13.298  10.153  13.905  0.0882  0.0377  0.2437
25889W        W39303  10.739   9.543  11.594 -0.0479  0.2692  0.0874
25890W        W39304   0.168   6.142  11.360  0.1293  0.1308 -0.0420
25891W        W39305   7.886  13.857   3.570 -0.2634  0.0068  0.2066
25892W        W39306   8.997   7.825   1.992 -0.1264  0.2529  0.0437
25893W        W39307  12.551   7.146   3.767  0.2540  0.2405  0.0893
25894W        W39308  16.369   0.013  12.302  0.0846  0.0007 -0.0035
25895W        W39309  11.726   8.125   3.054 -0.1365 -0.1314  0.3266
25896W        W39310  18.097  11.179  15.734  0.0759 -0.0142  0.0002
25897W        W39311  18.074  12.141   1.973 -0.2080  0.0451 -0.1177
25898W        W39312  16.874   5.267   3.773 -0.1102  0.2220  0.0193
25899W        W39313   3.983   9.788  15.280  0.2436 -0.2690  0.0972
25900W        W39314  17.311   9.708  16.243 -0.0758 -0.1778  0.0270
25901W        W39315   9.428  12.953   5.681 -0.0848  0.0028  0.0572
25902W        W39316  14.099   2.760  11.462 -0.1189  0.1971  0.0990
25903W        W39317   7.499  16.730   2.059  0.0338 -0.2937 -0.0576
25904W        W39318   2.860   1.114   1.386 -0.1702 -0.1852 -0.2489
25905W        W39319  17.215   0.963   0.914  0.1752 -0.4215 -0.0817
25906W        W39320  15.917  14.735  11.177 -0.3820 -0.3350 -0.0211
25907W        W39321   2.816   2.997   2.761  0.0647 -0.1094 -0.0333
25908W        W39322  10.593  17.892   0.729  0.1946  0.2665 -0.1141
25909W        W39323   5.383   4.983  15.555  0.0718  0.2942  0.0420
25910W        W39324  17.766  13.649   2.458 -0.1393  0.1832  0.0925
25911W        W39325   7.498   0.959   3.309  0.1399 -0.1981 -0.0973
25912W        W39326  16.190   3.023   5.546  0.0873  0.0453 -0.3217
25913W        W39327  11.492   0.139   0.507 -0.0270 -0.4083  0.0789
25914W        W39328  16.116   7.043  13.227  0.0832 -0.2422  0.0132
25915W        W39329   0.332  12.606  14.539 -0.0313  0.2155  0.1649
25916W        W39330   9.381  17.991  14.080  0.2033 -0.1663  0.0900
25917W        W39331   1.878  13.077  14.584 -0.0079  0.0035  0.0972
25918W        W39332  15.645   2.569   2.157  0.0998 -0.0643  0.3243
25919W        W39333   2.479   7.919   0.727 -0.1970  0.2570  0.3332
25920W        W39334  16.792  15.636  15.084  0.3556 -0.0536 -0.1819
25921W        W39335   9.108   0.154   3.245  0.2092 -0.0335  0.0286
25922W        W39336   0.534   4.989   5.186  0.1313  0.0575  0.2166
25923W        W39337   9.949   9.828   0.396 -0.1899  0.1481 -0.2136
25924W        W39338   4.317   9.265  14.495 -0.1418  0.0258 -0.1530
25925W        W39339  18.422  12.955  13.918 -0.1866 -0.2087 -0.1183
25926W        W39340   0.402  12.495  12.091 -0.4332  0.0359  0.1366
25927W        W39341   2.323  13.294   3.968 -0.1920 -0.1463  0.1348
25928W        W39342  12.741   8.471   2.683  0.3055  0.0522 -0.0520
25929W        W39343  13.203   3.949  12.725  0.2318  0.3124 -0.0075
25930W        W39344  15.500   9.944  13.961 -0.0170  0.2633  0.0729
25931W        W39345  13.282   3.706   5.261 -0.3872  0.2022 -0.1871
25932W        W39346  15.745   2.296   4.696 -0.2138  0.1344  0.1910
25933W        W39347   2.842   6.689   0.376 -0.0389  0.0221  0.0964
25934W        W39348   0.306   0.191  12.751 -0.1428  0.3372  0.0931
25935W        W39349  16.589   4.998  14.319  0.0158  0.1240  0.1859
25936W        W39350  17.332   0.536   3.694 -0.0380  0.1115 -0.1654
25937W        W39351   2.037   9.663   2.078  0.0151  0.1997 -0.1995
25938W        W39352   7.085   7.043  12.134 -0.1261 -0.0824 -0.0098
25939W        W39353   0.919   1.013   0.374 -0.1399 -0.2655 -0.2924
25940W        W39354  18.142   6.224   4.711 -0.0217 -0.3295 -0.2803
25941W        W39355   9.509  16.508   2.952 -0.0838  0.3359  0.0807
25942W        W39356   0.630  14.208   4.118  0.0651 -0.0248 -0.0648
25943W        W39357   8.746  14.059  15.368 -0.1339  0.1269 -0.0518
25944W        W39358   1.857  18.251   2.692 -0.0197 -0.1178  0.1889
25945W        W39359   2.171   0.991  13.873 -0.2998  0.0374  0.0592
25946W        W39360   6.258   4.786  15.910  0.1677  0.0388  0.0620
25947W        W39361  13.356   8.867   4.136  0.4203  0.2734  0.0098
25948W        W39362  14.920   0.053  11.432 -0.0358  0.0324  0.2384
25949W        W39363   8.041   3.328  14.806  0.2688 -0.0244  0.1213
25950W        W39364   3.476  10.894  14.436 -0.0735 -0.3009  0.2982
25951W        W39365   4.322   3.541   5.020 -0.0085  0.0010 -0.1919
25952W        W39366   1.638  16.507   6.188  0.1704 -0.1587 -0.1746
25953W        W39367  17.152  12.358   3.622 -0.1216  0.2006  0.2592
25954W        W39368   6.833   6.999  10.613 -0.0527  0.0484  0.0692
25955W        W39369   4.160  17.309   0.896  0.0228 -0.2004  0.0932
25956W        W39370   0.712   9.877   1.263  0.6937  0.0967 -0.1311
25957W        W39371   8.401   3.987  11.126  0.1751 -0.0780 -0.0899
25958W        W39372   7.134  10.694  14.002  0.1374  0.0183  0.0821
25959W        W39373   9.936   9.734  11.809  0.1577 -0.0852 -0.2711
25960W        W39374   5.131   4.974   5.194 -0.3149 -0.3222 -0.3130
25961W        W39375   7.954  13.447   0.087  0.2279 -0.4411 -0.2434
25962W        W39376  13.417  15.982  14.052  0.1007 -0.1582  0.2131
25963W        W39377  11.679  15.889   1.248  0.3919  0.1791 -0.3613
25964W        W39378   9.423  15.523   1.122  0.0980 -0.2625  0.1829
25965W        W39379  14.860   7.113  15.405  0.1786  0.0033  0.0062
25966W        W39380   1.666  12.489   5.361 -0.2567 -0.3353  0.2877
25967W        W39381   1.420  13.508  11.421  0.1722 -0.1531 -0.1133
25968W        W39382   5.413   1.684   3.105  0.1933 -0.2875 -0.0720
25969W        W39383   9.730  13.188  16.248  0.2198  0.0745 -0.3273
25970W        W39384  18.141  17.373  13.055  0.1066 -0.1976  0.0206
25971W        W39385   7.243   6.075  16.172 -0.0792 -0.1946 -0.3275
25972W        W39386  13.174   7.408  14.801 -0.0675  0.1789  0.2770
25973W        W39387   2.692  17.879   4.856 -0.0402  0.0871  0.2322
25974W        W39388  15.141  12.206  10.867  0.0104  0.3100  0.0342
25975W        W39389  16.450   6.638   3.142 -0.0037  0.2674  0.1936
25976W        W39390  17.302  13.856  11.653 -0.1067 -0.1192  0.1268
25977W        W39391  17.575  14.441  11.892 -0.0727 -0.0193 -0.0345
25978W        W39392  10.963  10.845  12.599  0.0651  0.4819  0.2043
25979W        W39393   1.876   6.541  15.367  0.0933  0.1791 -0.0859
25980W        W39394  10.715   1.228  14.311  0.1257 -0.0072 -0.2221
25981W        W39395   6.480   0.475   2.046 -0.4575 -0.2296  0.0869
25982W        W39396   4.377   2.486   1.828 -0.1920 -0.1244  0.0901
25983W        W39397  12.599   5.440  15.694  0.0655 -0.0811 -0.2458
25984W        W39398  13.703  11.701   0.111 -0.0203  0.0424  0.1115
25985W        W39399  17.548   3.392  11.953  0.2443 -0.2404  0.2031
25986W        W39400   9.514   4.765   0.057  0.0044  0.0180 -0.0355
25987W        W39401  16.774   0.687   3.732  0.0190  0.2295 -0.1550
25988W        W39402   7.997  14.193  14.733  0.0499 -0.2297  0.0582
25989W        W39403  13.355  13.658  11.666 -0.0460 -0.0912  0.4431
25990W        W39404   5.193   5.322   0.745  0.1920  0.0066  0.1304
25991W        W39405   4.869   6.525  14.082 -0.0565  0.1227 -0.1074
25992W        W39406   1.208   6.688   6.234 -0.1451  0.2085  0.3069
25993W        W39407  12.951   8.306   6.328  0.3247 -0.0864  0.0678
25994W        W39408   2.953   5.249   3.896 -0.4432  0.2904 -0.0514
25995W        W39409  12.839  10.924   1.560  0.1041  0.0064  0.2222
25996W        W39410   9.805   9.309   3.844  0.1181 -0.0324  0.0838
25997W        W39411   7.891  12.854  13.364 -0.0008 -0.2431 -0.0619
25998W        W39412   9.128  13.108  10.790  0.0900  0.2673 -0.1687
25999W        W39413  15.411  17.080   3.360 -0.1300 -0.2427 -0.1150
26000W        W39414   8.265   5.046   4.817  0.1892 -0.0532  0.1256
26001W        W39415   5.708   7.346  12.595  0.1601 -0.1766 -0.0533
26002W        W39416   8.022   4.664   5.042  0.0979  0.0184 -0.1962
26003W        W39417   9.508  16.246  11.833 -0.0461 -0.0962  0.2019
26004W        W39418  15.033   3.833  10.725  0.1288  0.1810  0.4683
26005W        W39419   4.939   5.698  10.885 -0.0342  0.1827  0.1786
26006W        W39420  13.827  14.407  12.973  0.0252  0.3161  0.1647
26007W        W39421   4.756  17.643   0.468  0.0421 -0.1202 -0.1385
26008W        W39422  16.143  12.280   3.786 -0.2372  0.0464  0.0235
26009W        W39423   0.971   7.208   5.455 -0.2351  0.0172  0.0360
26010W        W39424  15.293  10.629  13.494 -0.1238  0.0084 -0.1172
26011W        W39425   7.282   2.499  11.992 -0.2449 -0.0429  0.0060
26012W        W39426   9.157  13.499  15.128 -0.0387  0.1554 -0.0132
26013W        W39427   5.866  11.278  15.928 -0.0377  0.0309 -0.0715
26014W        W39428  12.020  11.384   2.732  0.2965 -0.0435 -0.3792
26015W        W39429  11.276   0.869   3.149 -0.1259 -0.0542  0.1302
26016W        W39430   2.858   7.776  13.806 -0.0749 -0.0243 -0.1901
26017W        W39431   1.244  16.482   5.020 -0.1209 -0.0156 -0.0519
26018W        W39432   0.654  14.295  13.209 -0.1772 -0.2556  0.1082
26019W        W39433   2.030  12.982  13.698 -0.4502 -0.0929  0.1790
26020W        W39434  17.465   7.849  11.002 -0.0791  0.0988 -0.4617
26021W        W39435  12.878   0.185   3.180 -0.0609 -0.0497 -0.4842
26022W        W39436  17.691   9.104  15.546  0.1105  0.3110  0.0116
26023W        W39437   6.345  10.017   1.149 -0.0635 -0.0797 -0.2452
26024W        W39438   5.921   4.264  13.029  0.1164  0.0899  0.2215
26025W        W39439   6.874  10.870   4.146 -0.2184 -0.2307 -0.2284
26026W        W39440   7.288  13.123   1.508  0.2349  0.2694  0.1317
26027W        W39441   9.905   6.146  13.175 -0.1072 -0.2921 -0.1485
26028W        W39442   4.983  11.826   2.368  0.3104 -0.3875 -0.2134
26029W        W39443  12.395   0.505   0.716 -0.0255  0.0428 -0.1476
26030W        W39444  13.655  15.844  11.439  0.1082 -0.0434 -0.0744
26031W        W39445  15.105   6.897  11.120  0.2676 -0.1955  0.0703
26032W        W39446   3.391  14.682   0.498  0.0266 -0.2274  0.2363
26033W        W39447   2.942   8.920  14.258 -0.0532 -0.1291 -0.3397
26034W        W39448  15.176   3.825  15.592 -0.1883 -0.1249  0.0026
26035W        W39449   9.329  11.214  15.402  0.1232  0.0327  0.0340
26036W        W39450   4.949  15.735   3.220  0.0005 -0.2389  0.3289
26037W        W39451   0.262  15.738   4.613  0.1366 -0.0503 -0.3499
26038W        W39452   4.419   6.720  11.567  0.4992 -0.2331  0.1371
26039W        W39453   3.380  18.314  15.747 -0.2932  0.0543 -0.0416
26040W        W39454  11.399  12.726  14.742 -0.0664 -0.2274 -0.1161
26041W        W39455   7.888  12.132   5.140  0.1735 -0.0494 -0.2119
26042W        W39456   2.836  16.426   4.216  0.0392  0.3816  0.0514
26043W        W39457   2.400   9.214   0.324 -0.0095 -0.1746  0.1342
26044W        W39458   0.036   8.121   1.312 -0.1219  0.2925 -0.1754
26045W        W39459   2.698   4.576  14.962  0.2487  0.4604 -0.0638
26046W        W39460   1.158   3.876   1.287 -0.1594  0.2792  0.0113
26047W        W39461   0.472  13.916  12.930 -0.2396  0.3492  0.1623
26048W        W39462   5.701  17.691  15.170  0.2536  0.1682 -0.0928
26049W        W39463  13.572  15.304   1.137  0.0161 -0.1569  0.2690
26050W        W39464   0.756   1.053   4.583  0.1666  0.1975 -0.0405
26051W        W39465   4.670   9.940  12.870 -0.2021  0.1382 -0.3288
26052W        W39466   5.963  13.283   4.813  0.2977  0.1491 -0.0136
26053W        W39467   0.529   8.518  14.570  0.3590 -0.2218 -0.0969
26054W        W39468  16.440   1.784   0.674  0.1840  0.0896 -0.2484
26055W        W39469   0.292  17.450   5.221 -0.0561  0.1261 -0.3601
26056W        W39470  10.128  11.315   3.011 -0.1062  0.1388  0.1224
26057W        W39471   8.710   7.758  14.085  0.0939  0.1096 -0.0517
26058W        W39472   0.422  15.193  11.341 -0.3713 -0.1349 -0.0234
26059W        W39473  11.134   6.009   0.920  0.1914 -0.0542 -0.2110
26060W        W39474   0.182   2.962   4.912  0.1907 -0.0911  0.2602
26061W        W39475  10.690  13.848  16.069 -0.2815 -0.5354 -0.1276
26062W        W39476   7.023   8.615  12.296  0.0695  0.0266 -0.2412
26063W        W39477  13.834   7.906   3.545  0.0743  0.1400 -0.0178
26064W        W39478   5.587  10.011  13.811 -0.2292 -0.3295 -0.1245
26065W        W39479  13.926   0.865  12.037 -0.0453  0.0672  0.1382
26066W        W39480   7.931  15.375  15.534  0.1051 -0.0837  0.1525
26067W        W39481   8.491   9.704  16.218  0.0367 -0.0046 -0.0253
26068W        W39482   4.959  17.533  15.885 -0.2021  0.1406 -0.0868
26069W        W39483  16.084   9.384  11.144 -0.2098  0.3464 -0.0937
26070W        W39484  12.434   8.088  12.828  0.1504  0.1853 -0.0879
26071W        W39485  13.707  18.115   5.693  0.3157  0.1120 -0.1702
26072W        W39486   3.891   5.863   3.856 -0.0874 -0.0507  0.4222
26073W        W39487   3.562   0.175   3.885 -0.1608 -0.2540 -0.4726
26074W        W39488   3.727  15.897  11.369 -0.1119 -0.1629 -0.0320
26075W        W39489  13.572   3.290  14.936  0.1614  0.0056  0.0802
26076W        W39490   9.485   7.391   3.553 -0.0583  0.0144  0.0749
26077W        W39491  16.054  15.370   5.213  0.0938  0.0237  0.1535
26078W        W39492  11.143  13.135  13.948  0.0091  0.0466 -0.2188
26079W        W39493   4.345  14.643  14.230  0.1257 -0.0219 -0.2457
26080W        W39494   0.233  12.448  13.124  0.1536  0.2531  0.2911
26081W        W39495  14.678   6.236   2.105 -0.0378  0.0400 -0.0867
26082W        W39496  15.952  11.298  15.207  0.3219 -0.0579  0.0428
26083W        W39497  12.830   9.904   2.971 -0.0306 -0.4673  0.0419
26084W        W39498  13.067   7.230  11.954  0.0377 -0.2876  0.0511
26085W        W39499  17.301   8.095   1.141  0.0583 -0.2211 -0.1416
26086W        W39500  17.994  12.708   0.017 -0.1017 -0.0618 -0.2119
26087W        W39501  12.819   7.299  11.480 -0.0570 -0.1201 -0.2064
26088W        W39502   2.735   6.641  14.674 -0.0990 -0.1021  0.1248
26089W        W39503   3.628   2.929   1.397  0.0212 -0.3072 -0.3177
26090W        W39504  14.446   9.436   3.496  0.0477 -0.0311  0.0721
26091W        W39505  16.883   9.869  16.129  0.2354  0.0869 -0.1597
26092W        W39506  17.061   7.805   2.806  0.0024  0.0281 -0.1792
26093W        W39507  15.751  18.169   2.821 -0.1962 -0.1852  0.0180
26094W        W39508   9.676  11.661   3.148 -0.0616 -0.1994  0.2626
26095W        W39509   7.844   5.269   1.660  0.0697  0.1678 -0.1232
26096W        W39510   7.702   0.532   3.079  0.2564  0.1671  0.1213
26097W        W39511   3.001  17.444  12.579  0.1247  0.0856 -0.1536
26098W        W39512  17.401   4.173   4.239  0.1257 -0.0949 -0.3312
26099W        W39513   8.920   0.294   5.550  0.1022  0.1541  0.0773
26100W        W39514   2.100  13.996   3.693 -0.2106 -0.1265  0.5011
26101W        W39515  11.169   4.012   4.410  0.0587  0.2178 -0.1406
26102W        W39516   2.700  12.527  10.387  0.1513  0.0725  0.0334
26103W        W39517   1.292   1.927   5.413  0.1816  0.0775 -0.2437
26104W        W39518  16.584   6.424   1.764 -0.2195 -0.2741 -0.1776
26105W        W39519   8.647  16.127   9.569  0.0850  0.1036  0.1800
26106W        W39520   4.797   9.532  15.793 -0.1415  0.0156  0.1806
26107W        W39521  11.049  12.599  12.541 -0.0706  0.1267 -0.3037
26108W        W39522  13.623   6.578  11.573 -0.1349 -0.0732  0.1385
26109W        W39523  16.912  14.614   4.511 -0.0061  0.1400  0.2012
26110W        W39524   7.954   3.848  14.545  0.1588 -0.1990 -0.1068
26111W        W39525  10.743   0.890   3.282  0.0243  0.2259  0.0400
26112W        W39526   9.324   1.306   3.443  0.1705 -0.0583 -0.0097
26113W        W39527  14.161  14.777   1.588  0.0032  0.0583 -0.0505
26114W        W39528   7.455  15.663  10.091 -0.0576  0.1811 -0.1251
26115W        W39529  16.969   5.831   4.002  0.1762 -0.2009  0.0244
26116W        W39530  10.187   0.943  16.042  0.0718  0.0401 -0.1721
26117W        W39531   7.624   2.250   3.715 -0.0019  0.1947  0.2419
26118W        W39532  14.243  15.368   0.182  0.2025 -0.0535  0.2547
26119W        W39533   0.689  13.483   1.283  0.0187 -0.2828 -0.1119
26120W        W39534   2.127   0.258   4.514  0.3390 -0.1107 -0.0354
26121W        W39535   6.366  17.978   4.074  0.3394 -0.3583  0.3582
26122W        W39536   1.424   6.956   5.287  0.1971  0.0985  0.1814
26123W        W39537  11.638  16.723   4.701 -0.2518 -0.0113  0.1265
26124W        W39538  14.936   3.125  13.085 -0.0925 -0.2907  0.1783
26125W        W39539   6.181  16.650  15.580 -0.3132  0.1509  0.1381
26126W        W39540   4.109  16.690  13.240  0.0329 -0.1098 -0.1525
26127W        W39541   3.281  11.198   1.873  0.0095  0.0515  0.2989
26128W        W39542  16.613  16.136  16.176 -0.1118  0.6079 -0.4086
26129W        W39543   2.371   0.703   2.204  0.0797  0.0686  0.1931
26130W        W39544  10.224  16.419  12.730  0.0013 -0.2341 -0.0888
26131W        W39545   7.083   7.803   2.879  0.1493 -0.1496  0.0984
26132W        W39546   6.004   9.268  11.406 -0.1741 -0.1230  0.1493
26133W        W39547   9.871  14.686  10.929  0.1191  0.2415 -0.0876
26134W        W39548   1.215   0.957  14.418 -0.0530 -0.2371  0.1595
26135W        W39549   4.752  16.679  14.484 -0.1430  0.1204  0.0003
26136W        W39550   1.741  14.783   4.603 -0.0093  0.0592 -0.1612
26137W        W39551   8.479   9.244  10.695  0.1780 -0.0127 -0.0639
26138W        W39552  14.480  17.108   0.761 -0.2543 -0.1147  0.0245
26139W        W39553  15.100  12.003  13.020  0.1657  0.1012 -0.1156
26140W        W39554   2.427  10.286   3.389  0.0410  0.1472  0.1185
26141W        W39555  13.419   8.245  14.542  0.2302 -0.2439 -0.2583
26142W        W39556   7.877  11.776  11.602 -0.1916 -0.2026 -0.1106
26143W        W39557  18.114   2.894   2.809 -0.2032 -0.0064  0.2437
26144W        W39558  15.178  12.471  12.229 -0.1868  0.2347  0.0051
26145W        W39559   0.620   6.067  13.304  0.0181  0.0843  0.1497
26146W        W39560  11.805  15.243  10.693 -0.0855  0.1765  0.0989
26147W        W39561   8.274  13.729   0.847 -0.1796  0.2948  0.1287
26148W        W39562   4.815   8.765   2.502  0.1146 -0.0689 -0.3801
26149W        W39563  15.465  14.275   2.011 -0.0579 -0.1431 -0.1965
26150W        W39564   5.527  13.081   3.035  0.0561  0.0217  0.2514
26151W        W39565   2.364   5.133  16.089 -0.4425  0.0215  0.1240
26152W        W39566  14.094   7.473   0.925 -0.4127 -0.2621 -0.2448
26153W        W39567   3.594  12.208   4.991 -0.2241 -0.1065 -0.1539
26154W        W39568   4.114   8.858   3.090  0.0732  0.1057  0.1495
26155W        W39569  10.602   9.109  12.615  0.0450 -0.0384  0.0261
26156W        W39570   0.417   2.571  13.904  0.1038  0.0386  0.2390
26157W        W39571   3.470  12.079   0.199 -0.2415 -0.0548  0.2231
26158W        W39572   0.397  12.985  11.841  0.0506 -0.0889  0.1450
26159W        W39573   5.265  15.987   2.343 -0.0902 -0.1274 -0.0679
26160W        W39574  14.061   9.797  10.429 -0.0392  0.2152  0.3195
26161W        W39575   1.904   8.922  12.752 -0.2236  0.2397 -0.0396
26162W        W39576   9.877   9.288  14.418 -0.0991 -0.0846  0.2665
26163W        W39577   4.793   9.660  13.252  0.0272  0.3794  0.0200
26164W        W39578   2.784   9.158   4.343  0.0463 -0.3093 -0.1823
26165W        W39579   2.262   3.692   1.841 -0.4918  0.1608 -0.1949
26166W        W39580   2.584   2.301  14.296 -0.0028 -0.0718  0.0248
26167W        W39581   5.628  11.833   4.980 -0.1355 -0.1983  0.3522
26168W        W39582   7.328   2.968   0.850  0.2546  0.0703  0.4528
26169W        W39583  10.411   9.470   4.643 -0.3326  0.1932 -0.5025
26170W        W39584   2.544  17.351   2.032 -0.0175 -0.0658 -0.1834
26171W        W39585  12.275   9.549  10.194 -0.1556  0.0456  0.1513
26172W        W39586  16.234   0.823  14.450 -0.1413  0.0500 -0.1509
26173W        W39587   1.680   5.932   0.055  0.0555 -0.1360 -0.0088
26174W        W39588   6.072   6.031   5.473 -0.2263 -0.1724  0.2825
26175W        W39589   0.114   5.830   2.066  0.4076 -0.0118 -0.2036
26176W        W39590   1.024  17.189  11.540  0.1768  0.1043  0.1676
26177W        W39591   4.424  13.726  15.439  0.2405  0.1116 -0.0418
26178W        W39592   3.654  14.567  11.709 -0.0241 -0.1107 -0.2849
26179W        W39593   3.839  15.559   2.773  0.4591 -0.2563 -0.0557
26180W        W39594  10.981   4.156  12.173 -0.0399  0.0603 -0.3057
26181W        W39595  17.698   3.184   1.326 -0.0296 -0.2401  0.2553
26182W        W39596  14.854   4.595   5.358  0.0993 -0.3028  0.2865
26183W        W39597   0.404   5.664  15.552  0.0908  0.4061 -0.1688
26184W        W39598  14.369  17.269   4.287  0.0440 -0.1352  0.3147
26185W        W39599  16.936   6.067   1.115 -0.2035 -0.1382  0.5937
26186W        W39600   5.868   6.455  14.539 -0.0917  0.1122  0.0760
26187W        W39601   9.653  10.926  15.189  0.2535  0.1181  0.0532
26188W        W39602   4.468   8.083   3.037  0.0212  0.2078  0.2174
26189W        W39603  11.827   3.840  10.632 -0.0228 -0.2074  0.0890
26190W        W39604   0.944  15.768  12.008 -0.0564  0.1338  0.0351
26191W        W39605   6.957  14.640   4.281 -0.0097  0.1863 -0.0023
26192W        W39606  11.388  16.147  12.328  0.2582  0.1894  0.1733
26193W        W39607   7.433  17.090   5.012 -0.2398 -0.1998 -0.1115
26194W        W39608   3.996   1.098  15.670  0.0951 -0.3446 -0.1455
26195W        W39609   9.437  17.589   1.371 -0.1453  0.0433  0.1795
26196W        W39610   8.489   2.513   3.749  0.2316  0.0991 -0.0543
26197W        W39611   3.488   0.449  11.255  0.0624  0.2377 -0.2254
26198W        W39612   3.693   7.583  16.154  0.1155  0.0028  0.0472
26199W        W39613   8.702   2.074   3.086  0.0403 -0.0741  0.1513
26200W        W39614   3.015   7.878   3.467 -0.0446 -0.0720 -0.0061
26201W        W39615   7.356   3.904  15.858  0.0156  0.2550 -0.2751
26202W        W39616   1.744   8.495  13.025  0.1059  0.0399 -0.0225
26203W        W39617  12.516   1.526  12.299  0.2801  0.0099 -0.0119
26204W        W39618   9.676  11.256  13.244  0.2161  0.3154 -0.0537
26205W        W39619  17.029   5.405  11.774 -0.0684 -0.0408 -0.2236
26206W        W39620   5.983  16.263  15.900 -0.1126 -0.0398 -0.0058
26207W        W39621   0.174   0.363   9.918  0.2454  0.2548  0.1514
26208W        W39622  13.630   8.833   1.727  0.1638 -0.1185  0.0417
26209W        W39623  18.117   9.606  10.730  0.1137  0.1966  0.1420
26210W        W39624   7.695   6.422   1.387 -0.1185  0.1435 -0.0878
26211W        W39625   2.424  12.693   3.286  0.1545 -0.1382  0.0973
26212W        W39626  11.187  12.253  11.115  0.0943  0.3542 -0.0674
26213W        W39627   8.853  17.332   3.846  0.3794 -0.3353  0.0098
26214W        W39628  18.222   2.731  12.799 -0.1901 -0.0016 -0.1772
26215W        W39629  11.943   4.511   4.423 -0.0347 -0.2764 -0.3944
26216W        W39630   5.136   7.775   4.131  0.0008 -0.1053  0.0654
26217W        W39631   8.553   8.005   4.867  0.0661 -0.0514 -0.3689
26218W        W39632  11.547  11.657  13.086  0.2890 -0.0533 -0.0603
26219W        W39633   3.198  10.009   0.854  0.0951 -0.1527  0.2061
26220W        W39634  17.947  15.034  11.443 -0.1709  0.0388  0.3769
26221W        W39635   4.819  17.959  12.226  0.0500 -0.2244 -0.1480
26222W        W39636   5.615  14.640  15.981  0.1951  0.2400 -0.2614
26223W        W39637   8.612   1.898  15.818  0.0430  0.2679  0.0817
26224W        W39638   9.442  14.581   0.117 -0.0976  0.1174 -0.0250
26225W        W39639  11.766  12.249   1.126  0.1322  0.2292 -0.1028
26226W        W39640   9.341   2.925   5.291  0.1170 -0.0322 -0.4278
26227W        W39641  11.393   1.493   0.424 -0.3115 -0.1603 -0.0827
26228W        W39642  13.842  13.657  11.786  0.1622  0.0160  0.1210
26229W        W39643  17.289   3.363   1.041  0.2632  0.4384  0.0108
26230W        W39644   3.357  11.884  10.865  0.0893  0.1594  0.1549
26231W        W39645   5.950   2.668  15.467 -0.2951  0.2809  0.1529
26232W        W39646  15.149   2.768   4.891  0.0570  0.0547  0.1136
26233W        W39647   9.840  12.636   3.193 -0.0458  0.1129 -0.0414
26234W        W39648  16.274   9.209   1.256  0.2622  0.2677  0.0043
26235W        W39649  11.431   3.621  10.776  0.3588  0.0143 -0.0434
26236W        W39650   2.506  10.321  11.142  0.1575  0.1120  0.1385
26237W        W39651   5.543  14.208  12.998 -0.0855 -0.1098 -0.1942
26238W        W39652  10.709  14.979  10.376  0.0251  0.0007  0.3989
26239W        W39653  12.693   2.267   2.460 -0.1342  0.0814  0.0731
26240W        W39654   4.342   5.554   1.187 -0.1829 -0.2863  0.1247
26241W        W39655   4.204  15.872   1.888  0.0679  0.4168  0.3100
26242W        W39656   0.054  12.096   4.225 -0.3048  0.1623 -0.1380
26243W        W39657  15.225  12.073   2.155 -0.2897  0.4689 -0.0398
26244W        W39658   6.652  13.586   4.107  0.0040 -0.1199  0.1009
26245W        W39659   9.411  11.222   1.741  0.0226 -0.1342  0.1235
26246W        W39660   2.431  11.992   0.984  0.1610  0.0509 -0.3184
26247W        W39661   8.134   7.433  15.380  0.6811  0.5261 -0.2073
26248W        W39662   0.565   1.322   5.434 -0.1351  0.1037 -0.2701
26249W        W39663   7.940  14.345  15.330 -0.1292  0.4699 -0.0483
26250W        W39664   5.140  11.425  14.413  0.2588 -0.1548 -0.1417
26251W        W39665   2.102  11.504  11.509 -0.2265  0.2875  0.1352
26252W        W39666  12.614   6.162  13.103  0.0955  0.1187 -0.1503
26253W        W39667   8.630  17.470   0.280  0.1286 -0.2352 -0.0863
26254W        W39668  12.294   9.918  12.209 -0.1322  0.8163 -0.4231
26255W        W39669  11.562   3.409   5.508  0.1882 -0.1224  0.5046
26256W        W39670  15.440  11.649  13.200 -0.0047  0.0889 -0.0910
26257W        W39671  18.200  13.108  13.509 -0.3971  0.1006  0.1763
26258W        W39672   9.264   6.687   0.075 -0.1599 -0.2889 -0.1465
26259W        W39673   5.407  10.324  11.525  0.0105  0.2892  0.2200
26260W        W39674  11.372  15.290  12.383  0.0577 -0.1644  0.0285
26261W        W39675  18.022   3.137  11.864  0.2103 -0.2931 -0.0209
26262W        W39676  12.201   6.769   5.193 -0.1172 -0.0979 -0.0935
26263W        W39677  15.830   1.059   1.034  0.2366 -0.1498  0.2475
26264W        W39678  11.401  10.860  13.028 -0.1642  0.0363  0.3176
26265W        W39679  10.484   4.148   5.910  0.4969  0.1707  0.0471
26266W        W39680  14.484  12.334  15.581 -0.3605  0.0333  0.1200
26267W        W39681  12.028   2.659  14.412  0.3124 -0.2400  0.1715
26268W        W39682   4.776   0.867   3.586 -0.3368 -0.1800 -0.0042
26269W        W39683  13.271   2.339  15.383 -0.1857  0.0226 -0.0671
26270W        W39684  16.454   8.110  10.944  0.4379 -0.0213 -0.0688
26271W        W39685   8.583  16.198  14.837 -0.0360 -0.0276  0.0428
26272W        W39686  15.523   6.032   5.922  0.4040 -0.1371  0.0099
26273W        W39687   6.205  12.806   5.404  0.0089 -0.1850  0.1009
26274W        W39688   1.813  16.854  11.501  0.0226  0.1159  0.0503
26275W        W39689   9.476   9.919   3.251 -0.3581  0.0209 -0.1874
26276W        W39690   3.320   1.393  15.307  0.0123  0.0567  0.2898
26277W        W39691   9.327  10.933   3.992 -0.0145  0.1979 -0.1932
26278W        W39692  17.632  14.109  11.379  0.1789  0.0146 -0.2164
26279W        W39693   4.515   0.791   1.277  0.0651 -0.1362 -0.0259
26280W        W39694   4.722   1.262  12.088 -0.3524 -0.2603  0.2649
26281W        W39695  15.794  12.706   2.755 -0.2569 -0.1643  0.1127
26282W        W39696   2.765   7.745   1.587 -0.0923 -0.3335 -0.1117
26283W        W39697  11.244   9.935  10.901  0.1239  0.1534  0.0517
26284W        W39698  11.520  11.454  11.921 -0.0674 -0.2857 -0.0553
26285W        W39699  14.131   2.236  14.598 -0.1540  0.2809  0.1161
26286W        W39700   6.748   8.512   1.721  0.1394  0.0467  0.1980
26287W        W39701   3.560  12.964  12.669  0.4116 -0.0358  0.0366
26288W        W39702   2.045  17.990   0.596  0.3304  0.1643 -0.0561
26289W        W39703   3.280   0.132  12.620 -0.1507  0.2062 -0.2002
26290W        W39704  17.258  16.386   5.354  0.4134 -0.2208 -0.2178
26291W        W39705  11.028  13.281   1.591  0.0214  0.0941 -0.0706
26292W        W39706  17.087  14.788  12.895 -0.0137 -0.0395 -0.0041
26293W        W39707  12.466   2.650   2.674  0.0471  0.3666 -0.1727
26294W        W39708   6.965   5.363   1.250 -0.0604 -0.0715 -0.2616
26295W        W39709   9.522  13.155  12.092  0.3296 -0.2871  0.3005
26296W        W39710   5.461  10.526   2.377 -0.1987 -0.2661 -0.0910
26297W        W39711  14.836   6.410  11.307  0.1195 -0.2444 -0.1772
26298W        W39712   8.929   0.681   2.227 -0.0714 -0.1356 -0.2087
26299W        W39713   0.528  10.159   0.380  0.0673 -0.0239  0.1046
26300W        W39714  11.591  12.647  13.317 -0.2409  0.1574  0.1356
26301W        W39715  13.202   7.934   0.570 -0.1014 -0.1161 -0.0795
26302W        W39716   6.811  11.424   5.859  0.0026 -0.0793  0.1543
26303W        W39717   5.673   9.851  16.153  0.1516  0.2961  0.3780
26304W        W39718   1.199   3.495   4.629 -0.2155  0.0961  0.1323
26305W        W39719   9.179   1.645  14.664  0.0774  0.2290  0.1203
26306W        W39720   2.323   3.728  12.405  0.1755  0.0346  0.0872
26307W        W39721  12.645  12.510   5.754  0.0441  0.1723  0.0573
26308W        W39722  16.103  10.933   5.039  0.3220 -0.0872  0.0478
26309W        W39723   0.602  18.067   3.939 -0.3680 -0.1531  0.0415
26310W        W39724   7.890   5.147  11.816  0.1682 -0.1706  0.1392
26311W        W39725  10.021   5.750   4.575  0.1486 -0.3126 -0.2462
26312W        W39726   8.652  17.138  13.712  0.1135  0.1940 -0.1484
26313W        W39727  11.569   0.616  15.968  0.1773 -0.4354 -0.1599
26314W        W39728   0.095   2.716   4.345  0.0631  0.1136  0.0671
26315W        W39729  15.242   7.864  13.451  0.0837 -0.0662  0.0666
26316W        W39730   4.437   9.378   3.452 -0.2584 -0.1114  0.0943
26317W        W39731  12.178   3.343  13.048 -0.3188 -0.0243 -0.1663
26318W        W39732  12.261   1.232  11.888  0.0056  0.0681 -0.0418
26319W        W39733  17.691   5.249  12.561  0.1000  0.1129  0.3161
26320W        W39734   3.801   2.048   5.793 -0.1472  0.1160 -0.1191
26321W        W39735   5.255  12.180   0.419  0.3121  0.1567 -0.1878
26322W        W39736  17.353   6.950   0.978  0.1786 -0.1999 -0.0339
26323W        W39737   1.394   1.010  12.447  0.1533  0.0909 -0.0522
26324W        W39738   2.760   8.799  10.391  0.1155  0.0467  0.3574
26325W        W39739  18.086  14.046   0.182  0.0013  0.1095  0.0428
26326W        W39740   6.540  18.267  12.356 -0.1237 -0.0839  0.1816
26327W        W39741   4.239   1.335   5.917 -0.0560  0.2890 -0.1999
26328W        W39742  13.802  11.171  11.582  0.0417 -0.1842  0.1559
26329W        W39743   9.516   4.181  15.571 -0.0541  0.1669 -0.0531
26330W        W39744   8.757   8.021  11.896 -0.0599 -0.1039  0.1543
26331W        W39745   8.450  11.075  13.128  0.1284  0.1074 -0.0522
26332W        W39746  12.588  10.314   4.185  0.0761 -0.1605 -0.1279
26333W        W39747  10.607   6.984   4.392 -0.2991 -0.2206 -0.0159
26334W        W39748   1.684   2.453   5.318  0.0069  0.0067 -0.4245
26335W        W39749  15.147   5.247   3.282 -0.0460  0.0367  0.0082
26336W        W39750  10.109   2.539   4.830 -0.0816  0.0439 -0.2558
26337W        W39751   0.517   7.801   4.686 -0.0122 -0.1660 -0.1534
26338W        W39752  11.466   6.032  11.159  0.0094 -0.3025  0.0620
26339W        W39753  15.631  12.662   4.695  0.0170 -0.1265 -0.0571
26340W        W39754  14.606   6.820  14.034  0.1680  0.0522 -0.0206
26341W        W39755  10.375  12.106   6.118 -0.0809 -0.2983 -0.0853
26342W        W39756  11.544  13.574   3.870 -0.0162 -0.1825 -0.3075
26343W        W39757   5.875   8.924  12.037 -0.0478 -0.0242  0.0320
26344W        W39758  11.271   6.712  13.318  0.0422 -0.2197  0.0391
26345W        W39759  10.155  10.678  11.403  0.0038  0.1830 -0.1691
26346W        W39760   8.674   3.154   4.436  0.1931 -0.3478  0.0688
26347W        W39761  10.527  15.372  11.316  0.1231 -0.0502 -0.1803
26348W        W39762  15.303   0.432  15.475 -0.0669 -0.2913 -0.1069
26349W        W39763  17.175   4.916   4.047  0.0597 -0.3326  0.2545
26350W        W39764   8.478  17.850   5.152 -0.3233  0.0531  0.4159
26351W        W39765   4.963   4.693   2.760 -0.0515  0.3124  0.0167
26352W        W39766  15.735   2.047   2.971 -0.2662 -0.1678 -0.0551
26353W        W39767  13.086  15.210  12.113 -0.1881  0.2549  0.1427
26354W        W39768  17.043   7.850  12.302  0.1542  0.1080  0.1024
26355W        W39769   2.453   7.704   1.190 -0.1198 -0.1745  0.2334
26356W        W39770   5.972   2.256   3.357  0.1817 -0.4400  0.1958
26357W        W39771   1.749   8.112  14.569 -0.2217  0.0682  0.0809
26358W        W39772  13.300   4.489  11.020 -0.1244  0.2340  0.1303
26359W        W39773   3.548   3.990  11.645  0.0482  0.3054  0.0158
26360W        W39774   5.553  14.241  10.220  0.1947 -0.2394  0.1396
26361W        W39775   1.622  17.798   5.255 -0.3544  0.0889 -0.0644
26362W        W39776   8.261   9.594  11.848  0.0302 -0.1578 -0.1029
26363W        W39777  15.444   7.200   7.048 -0.0522  0.1516 -0.2155
26364W        W39778   5.914  15.030   0.449  0.0407  0.1146  0.4237
26365W        W39779   7.728   0.626  12.336  0.3912 -0.0599 -0.4262
26366W        W39780   7.348  11.099  15.246  0.0314 -0.1889 -0.0324
26367W        W39781  12.798   2.824   0.300  0.0801  0.0644 -0.2797
26368W        W39782  10.520   5.262   5.011  0.5229  0.2493  0.0646
26369W        W39783   4.615  14.725   0.833 -0.1206 -0.1713  0.1252
26370W        W39784   6.486   9.165  15.254  0.3046  0.0644 -0.3043
26371W        W39785  13.888  17.512  15.241 -0.2189  0.2429  0.2097
26372W        W39786   0.334   8.369  12.113  0.1800  0.0639 -0.1871
26373W        W39787  14.485  15.628   2.763 -0.0059 -0.1967 -0.1525
26374W        W39788  11.204   7.603  13.685  0.3263 -0.0519  0.2276
26375W        W39789   7.526   2.542  13.962  0.2135  0.1565 -0.0376
26376W        W39790   2.166   0.182   5.962 -0.1146 -0.1819  0.0788
26377W        W39791  15.099  14.130  11.878 -0.0150  0.3519  0.1294
26378W        W39792   9.198   8.477   2.771  0.1523 -0.1975  0.1940
26379W        W39793   5.290   3.657  15.584 -0.1734  0.0785  0.2073
26380W        W39794   1.953   8.969   0.364 -0.3257  0.3037 -0.1197
26381W        W39795   9.591  15.887   2.170  0.1602 -0.0136 -0.1399
26382W        W39796   4.014  16.978   0.567  0.3821  0.0784 -0.0243
26383W        W39797  10.582  13.178  10.193 -0.0794  0.0395 -0.1786
26384W        W39798   3.825   0.085  15.892  0.1661  0.1051 -0.0521
26385W        W39799   4.452  18.261  15.396 -0.1708 -0.3247 -0.0014
26386W        W39800  12.963   3.698  14.952 -0.1067  0.0001 -0.0008
26387W        W39801  14.976  15.782   2.788  0.0532 -0.1357  0.3360
26388W        W39802   3.131   2.420   9.885 -0.0727 -0.1099  0.3141
26389W        W39803   7.130   2.503  15.381  0.0525 -0.0146 -0.1228
26390W        W39804   5.223   7.586  12.831  0.0421 -0.1176 -0.0398
26391W        W39805   3.399  15.434   2.548 -0.1637 -0.1347 -0.1236
26392W        W39806   5.787   6.644   4.717 -0.2217 -0.0968  0.0468
26393W        W39807   6.315  15.589   2.119  0.1840  0.0686  0.0525
26394W        W39808   0.222  16.580  15.607 -0.0880 -0.1973  0.0338
26395W        W39809   6.553  10.900  12.202 -0.1294  0.0267 -0.1254
26396W        W39810   8.185   1.876  11.028 -0.0907  0.1232 -0.2533
26397W        W39811   2.712   7.489   4.814  0.0335  0.1437 -0.5789
26398W        W39812  15.508  15.312   5.377  0.1494 -0.1532  0.0902
26399W        W39813   8.374  16.875  15.751  0.0418 -0.0614 -0.2200
26400W        W39814   4.405   8.135  12.858 -0.2791  0.2487  0.1768
26401W        W39815   6.657  11.755  11.680  0.0476  0.0713 -0.2300
26402W        W39816   5.888   5.054  13.994  0.0218 -0.1061  0.4788
26403W        W39817   5.831  12.070  15.719  0.3105  0.0173  0.1016
26404W        W39818   6.794   0.048  10.002  0.3525 -0.0209 -0.2902
26405W        W39819  15.170   0.021   4.370  0.1957  0.0358 -0.1413
26406W        W39820  17.869   7.766  13.637 -0.0204 -0.1260 -0.2391
26407W        W39821  13.421   2.197   4.585  0.0066  0.2041  0.1259
26408W        W39822   4.286  14.708  11.658 -0.2679 -0.0078  0.2645
26409W        W39823   0.782   9.815  12.201  0.0421  0.0577 -0.0020
26410W        W39824  18.313   2.540   6.263 -0.3037  0.0277  0.0961
26411W        W39825   0.096   8.634  13.160 -0.0162  0.0318  0.0094
26412W        W39826   1.244   0.267  15.801  0.3620  0.0738 -0.0976
26413W        W39827   1.148  12.853  14.606  0.0731  0.1630  0.0173
26414W        W39828  16.301  11.577   2.824  0.1375  0.0899 -0.0109
26415W        W39829  16.518  16.921   4.644  0.0000 -0.0980 -0.1987
26416W        W39830   2.855  13.560  10.199 -0.2343 -0.1407 -0.2034
26417W        W39831  16.950   5.341   2.463  0.0399 -0.1210 -0.0083
26418W        W39832   4.993  12.609  11.994 -0.0799 -0.1458  0.3207
26419W        W39833   6.233  12.831  14.473 -0.1675  0.5344  0.0194
26420W        W39834  14.319  11.789   4.864 -0.0516  0.3704  0.1551
26421W        W39835  15.801  10.365   0.071 -0.0720  0.2305 -0.1260
26422W        W39836   9.662   2.434  14.823  0.4142  0.0189 -0.3024
26423W        W39837   4.968  14.592   6.335  0.0594 -0.2023  0.0747
26424W        W39838  14.428  11.356   2.747 -0.1702  0.2881 -0.0862
26425W        W39839  12.387   1.232   5.247  0.0226  0.1425 -0.2467
26426W        W39840   9.093   3.032   3.202  0.0206 -0.2343 -0.0887
26427W        W39841  11.501   8.422   2.682  0.1777 -0.2188  0.0448
26428W        W39842   7.272   4.350   9.901 -0.2321  0.2831 -0.1431
26429W        W39843   2.091  13.292   4.442  0.1514 -0.0084 -0.1401
26430W        W39844   2.003   9.171  16.154  0.1839  0.1285  0.0150
26431W        W39845  13.749  16.341  12.880  0.0874  0.0487  0.1486
26432W        W39846  14.353   0.594  12.308  0.0483  0.0303  0.1637
26433W        W39847  13.974   5.379  14.874 -0.1574  0.0510 -0.0808
26434W        W39848   6.553   2.591   1.187  0.2229 -0.0240 -0.0418
26435W        W39849  12.900  18.264  10.166  0.0956 -0.0979  0.0236
26436W        W39850   7.589   9.513  14.635  0.2103 -0.0987 -0.1997
26437W        W39851   7.137   6.627   0.721 -0.1330  0.0480 -0.2297
26438W        W39852  18.225   7.586  11.959  0.2272 -0.5641  0.1454
26439W        W39853  14.481  17.608  11.203  0.0851 -0.1973 -0.1742
26440W        W39854  14.140   5.020  14.584  0.1913 -0.0883  0.1333
26441W        W39855   0.713   6.776   6.132 -0.1333  0.1524  0.2309
26442W        W39856   1.131   5.398   5.940 -0.0606  0.1332 -0.0447
26443W        W39857  12.587  13.970  13.906  0.0523 -0.0025  0.1017
26444W        W39858  12.002  12.367  14.838 -0.0826 -0.0699 -0.0142
26445W        W39859   7.426  13.727   3.489 -0.0633 -0.0556 -0.1683
26446W        W39860  11.259   6.342   1.370  0.0555  0.0851 -0.1362
26447W        W39861   7.844   2.442   1.914  0.3597 -0.0502 -0.0326
26448W        W39862   5.799   4.423   2.346  0.0647  0.2590 -0.0816
26449W        W39863   4.315   6.532  12.812 -0.0920 -0.3670 -0.0357
26450W        W39864   7.275  17.438   0.292 -0.3318  0.3411  0.0344
26451W        W39865   5.455  17.105  11.395 -0.1189  0.1707  0.0391
26452W        W39866  13.528  13.267  11.236  0.0976  0.1241  0.1107
26453W        W39867   4.565   4.941  11.824 -0.2035  0.1260 -0.1102
26454W        W39868  16.733  15.423  15.565 -0.1528  0.3378  0.0657
26455W        W39869   7.160   3.479   1.623  0.1230 -0.5905 -0.0123
26456W        W39870   0.368  13.548  15.648  0.2346  0.0122  0.1352
26457W        W39871  10.307   6.311   1.318 -0.0511  0.1968 -0.3302
26458W        W39872  15.692   6.254   2.465  0.0382 -0.2450  0.1879
26459W        W39873   1.503   4.747  12.408 -0.2487  0.3727 -0.0002
26460W        W39874  17.901   6.425  13.031 -0.0099 -0.3218 -0.0438
26461W        W39875   7.752   5.018   3.863 -0.1423 -0.1854 -0.0263
26462W        W39876  14.475   4.510   1.155  0.1914  0.0041  0.3316
26463W        W39877   5.846   2.511   1.618  0.3053  0.1478  0.0030
26464W        W39878  12.247   8.366  12.450  0.1589  0.0735 -0.1408
26465W        W39879  17.408   1.630  11.133  0.0665  0.0927 -0.0494
26466W        W39880  10.852   6.960   1.935  0.1936  0.0736 -0.0195
26467W        W39881   2.593   6.524   4.937 -0.1035  0.1642 -0.2313
26468W        W39882   3.608   7.387  12.657 -0.5689 -0.2910 -0.5217
26469W        W39883  15.508   7.318  12.531  0.0790 -0.1665  0.0303
26470W        W39884  16.667  12.419   2.402  0.0647  0.1324 -0.0575
26471W        W39885   0.815  11.541   2.629 -0.1892 -0.1162 -0.1138
26472W        W39886  15.075   4.153   0.116 -0.2128  0.3311  0.0295
26473W        W39887   5.282   6.547  15.751 -0.0441 -0.3272  0.1546
26474W        W39888  13.127   6.181   4.849 -0.0457  0.0674  0.1431
26475W        W39889  16.169   1.223   4.766 -0.2858  0.0159  0.3563
26476W        W39890  13.193  18.349   5.939 -0.0596 -0.2737 -0.2458
26477W        W39891   8.922  16.799  12.305 -0.0931  0.0030  0.0019
26478W        W39892  14.725   5.068   3.420  0.2113  0.0333  0.2156
26479W        W39893   1.115   3.498  10.849 -0.1652  0.1138  0.0160
26480W        W39894  13.508  11.024  14.212  0.2112  0.0801  0.3972
26481W        W39895   9.779  17.384   1.017 -0.1653 -0.1880 -0.0276
26482W        W39896   4.132   6.975  10.208  0.0160 -0.0500  0.2085
26483W        W39897  16.346  11.009  15.339 -0.0761 -0.1781  0.0459
26484W        W39898  16.203  17.588  13.484  0.1302 -0.0363  0.3805
26485W        W39899   4.561  13.727  13.720  0.2132  0.4799  0.1626
26486W        W39900  17.848  16.406   0.614 -0.1452 -0.1892 -0.2606
26487W        W39901   5.238  11.884  11.662  0.0402 -0.2949  0.0499
26488W        W39902   5.855  16.226  12.253 -0.1886  0.0376  0.1311
26489W        W39903   5.272  15.022   1.530  0.0429  0.1361 -0.4017
26490W        W39904   8.353   1.117   5.536  0.0394  0.1549  0.0235
26491W        W39905  15.773  12.915   4.194 -0.0861  0.2237  0.3436
26492W        W39906  12.472   3.240   0.040  0.1167  0.0897  0.1039
26493W        W39907  15.487   7.013   3.144 -0.2857  0.0100  0.0244
26494W        W39908  11.636   5.303  13.338  0.0246  0.0467  0.0167
26495W        W39909  17.329   0.149   4.084 -0.0753  0.1101  0.0584
26496W        W39910  14.851   8.805   1.311  0.0449  0.1543  0.0978
26497W        W39911   9.488   8.507  13.098 -0.0611 -0.0440  0.1394
26498W        W39912  16.482  17.919   3.942  0.1343 -0.1092  0.0865
26499W        W39913   5.107  14.283  15.591  0.0724  0.0357 -0.1959
26500W        W39914   6.731  11.812   2.781 -0.1633 -0.1707 -0.2583
26501W        W39915   5.137   1.327  11.793  0.2188 -0.1041  0.1065
26502W        W39916   0.030  14.896  11.569  0.1614 -0.0172 -0.0216
26503W        W39917  12.713   0.777   4.066  0.3129 -0.0898  0.0429
26504W        W39918   2.099  17.546   4.171  0.2208  0.2644 -0.2058
26505W        W39919   3.060  17.235   1.590 -0.0583  0.1506  0.2273
26506W        W39920   6.298   4.766  13.107  0.0260  0.0687  0.0787
26507W        W39921  10.929  11.814   4.190  0.0674 -0.2369 -0.0506
26508W        W39922   4.679   2.939  11.364 -0.2238  0.0026 -0.1182
26509W        W39923   2.421  12.149  13.467 -0.1598 -0.2715 -0.1318
26510W        W39924   3.354  16.057  15.276  0.1125 -0.0816 -0.2268
26511W        W39925   5.002  13.733   5.288 -0.2256  0.1211 -0.2881
26512W        W39926   3.429   6.297  16.051  0.4317  0.2897  0.2869
26513W        W39927  14.017   2.188   4.749  0.0232 -0.1300 -0.3952
26514W        W39928  13.116  11.681  11.442  0.2251 -0.4496 -0.0766
26515W        W39929   2.403  10.579  13.004  0.0183  0.1004  0.1579
26516W        W39930   3.491  10.947  11.480 -0.1095  0.1810 -0.0560
26517W        W39931  15.911   8.800  14.199 -0.2206 -0.1242 -0.0655
26518W        W39932  16.454  11.177   1.764  0.0468  0.0551  0.0194
26519W        W39933   3.014  16.390   5.677  0.2925  0.2164 -0.0792
26520W        W39934   8.818  11.882  12.378  0.3385 -0.0898  0.0065
26521W        W39935  17.792  11.272   0.734 -0.0074  0.1025  0.0442
26522W        W39936   2.197  14.318   1.700  0.2372  0.1340  0.0715
26523W        W39937   0.165  16.504   4.306  0.1538  0.2588 -0.0694
26524W        W39938   3.329   7.015   5.397 -0.0659 -0.4084 -0.2769
26525W        W39939   4.066  17.255  13.130 -0.2669  0.0747  0.1139
26526W        W39940   4.133   5.119   3.448 -0.0590 -0.3157 -0.1325
26527W        W39941  15.077   6.795   5.686 -0.1257 -0.1393  0.2855
26528W        W39942   1.486  14.672  11.208 -0.0056 -0.1717 -0.1488
26529W        W39943  17.535  10.139   6.538 -0.1668  0.0416  0.3870
26530W        W39944   5.784   9.998   3.988 -0.0491  0.0127  0.2230
26531W        W39945  15.200  15.694  12.713  0.2441 -0.0545 -0.1274
26532W        W39946   5.032  12.760   3.480 -0.1778  0.2548 -0.0539
26533W        W39947   2.733  13.650  13.447 -0.2064  0.0875  0.0809
26534W        W39948   2.907  14.548   0.280 -0.4336 -0.1655 -0.1221
26535W        W39949   9.651  11.375   4.016  0.2253 -0.1447 -0.2171
26536W        W39950   2.602   5.063   2.953  0.2883 -0.0516 -0.2303
26537W        W39951  14.821   1.560  10.622 -0.2748  0.1384 -0.2532
26538W        W39952  16.504   8.195   3.155 -0.1665 -0.1886  0.2341
26539W        W39953  16.455   3.391   4.279  0.0943  0.0951  0.0440
26540W        W39954   2.311  12.855   1.921 -0.2159  0.0092 -0.1088
26541W        W39955  15.669  10.042  15.011  0.1946  0.0440 -0.0296
26542W        W39956  12.048   9.120   2.405 -0.0165  0.1530  0.0292
26543W        W39957  11.325  18.250  11.469 -0.2839  0.0474 -0.0714
26544W        W39958   9.933  13.592   1.664  0.1878 -0.1880 -0.2183
26545W        W39959  15.138   8.467   2.457  0.1092 -0.0759  0.2427
26546W        W39960   3.260   3.000  14.586  0.3430 -0.0587  0.0165
26547W        W39961  11.703   2.348  11.966  0.1555  0.1766 -0.2158
26548W        W39962   7.099   6.570  14.877  0.0647 -0.0746  0.0226
26549W        W39963   4.869   6.758   4.396 -0.0695  0.2106 -0.1168
26550W        W39964   3.438   4.021   5.622  0.0731  0.0919  0.1304
26551W        W39965   0.854  12.912  11.972  0.0977  0.2284  0.0289
26552W        W39966   1.946   7.101  13.206  0.2790 -0.0260 -0.1570
26553W        W39967  18.098   8.689  10.786  0.3110  0.3226 -0.0571
26554W        W39968  13.056   9.910  11.674  0.1302  0.0306 -0.1053
26555W        W39969  14.072   4.672   0.914 -0.2111 -0.0598 -0.1372
26556W        W39970  10.117   5.688  15.142  0.0543  0.3240  0.2405
26557W        W39971   7.876   8.849  14.372  0.2986 -0.1749 -0.0483
26558W        W39972  17.197  12.002   2.999 -0.0956 -0.0402 -0.3444
26559W        W39973   4.041  15.000  14.416 -0.0261  0.3585 -0.0992
26560W        W39974  13.265  15.399   0.715  0.1165 -0.2943 -0.0431
26561W        W39975   8.269   8.093   2.923  0.2056 -0.0747 -0.2245
26562W        W39976  13.840   6.880  13.879 -0.0533  0.3328  0.3612
26563W        W39977   0.181  16.422  10.374  0.0765  0.5485  0.1814
26564W        W39978   1.537   7.079  15.383 -0.1803 -0.3966  0.0560
26565W        W39979   6.428  11.204  15.071 -0.2625  0.0525  0.0656
26566W        W39980   3.412  15.557   0.325 -0.2613 -0.1533 -0.0217
26567W        W39981   3.287  10.541  10.633 -0.1795 -0.0164 -0.2799
26568W        W39982  14.946   0.073   1.470  0.1400  0.0089 -0.2283
26569W        W39983   8.639   4.915   4.418  0.2168 -0.0325 -0.2865
26570W        W39984   7.355  17.030  11.290  0.1705  0.0215 -0.0465
26571W        W39985  16.902  15.112  14.339  0.3020  0.0267  0.0333
26572W        W39986   3.092  12.297   5.926 -0.1040 -0.0141 -0.3686
26573W        W39987  13.257   4.833   1.904 -0.2692 -0.2259 -0.1328
26574W        W39988  10.554  11.723  12.663 -0.1243 -0.0870 -0.1412
26575W        W39989  14.992   2.088   1.928 -0.0250 -0.0703  0.0436
26576W        W39990  13.848  10.693   6.476 -0.1891  0.0944 -0.1001
26577W        W39991  13.501  12.789  10.882  0.3578  0.0425 -0.0062
26578W        W39992   6.668   9.781   3.415 -0.2083 -0.0253  0.2011
26579W        W39993  15.415  11.731   2.718 -0.1927  0.0071 -0.2460
26580W        W39994  17.239   0.032   4.993  0.2475 -0.2056  0.2039
26581W        W39995   8.795  13.848   2.881 -0.0574 -0.4248 -0.0903
26582W        W39996   3.904   1.674   0.154 -0.3003 -0.1787 -0.3561
26583W        W39997   1.067   6.228   4.807 -0.0422  0.4006 -0.0172
26584W        W39998  12.829  14.193  14.713 -0.3461 -0.1938 -0.1092
26585W        W39999  14.119  13.950   4.934  0.2068 -0.0766 -0.0718
26586W        W40000   1.831  11.501  12.855  0.4670 -0.0903 -0.2918
26587W        W40001   3.495  14.389   2.488 -0.0769  0.3097 -0.0524
26588W        W40002  12.243   2.156  10.511  0.1061  0.1898  0.3341
26589W        W40003  14.590  11.014  13.396 -0.1043  0.2896  0.0851
26590W        W40004   0.017  11.396   3.490  0.1316  0.0755  0.0337
26591W        W40005   5.152  16.264   0.199 -0.0872 -0.1759 -0.1932
26592W        W40006   3.254  15.097  12.597  0.0326 -0.0859  0.2282
26593W        W40007  11.334   0.575  12.629 -0.1002 -0.0465  0.2303
26594W        W40008  12.916   6.816  14.788  0.3806  0.0318 -0.1286
26595W        W40009  11.633  15.481   0.092  0.0682  0.1369  0.2513
26596W        W40010  10.761  18.158  15.287  0.2861 -0.2324 -0.0226
26597W        W40011  10.384   5.838  10.455 -0.0614  0.0712  0.0335
26598W        W40012  10.892  11.273   4.678  0.1433 -0.0788  0.1562
26599W        W40013   3.298   3.131  10.941 -0.3069 -0.1774  0.2134
26600W        W40014   3.824  12.026   3.318  0.2481 -0.0879  0.2202
26601W        W40015   4.819   2.370   9.930  0.2300  0.0106  0.2607
26602W        W40016  10.161   2.148  12.276  0.0779  0.0948  0.1809
26603W        W40017   3.359   6.637   3.205 -0.2455 -0.1364 -0.0360
26604W        W40018  10.852  14.859  12.971 -0.3283 -0.0749  0.1604
26605W        W40019  17.965  11.831  13.107  0.0358 -0.0788 -0.4310
26606W        W40020   1.763  14.601   5.070 -0.0942  0.3157  0.1136
26607W        W40021  10.808   6.659   1.491 -0.1514  0.0136 -0.0606
26608W        W40022  11.417  16.919  15.138  0.0067 -0.0212 -0.1849
26609W        W40023   4.731   2.672   0.697  0.2275  0.0144  0.0369
26610W        W40024  15.207  18.084   4.809 -0.1077 -0.0586  0.1273
26611W        W40025  12.993   7.293  13.519  0.0929  0.1907 -0.2422
26612W        W40026  17.525  14.213   4.962 -0.0334 -0.2047 -0.1475
26613W        W40027  17.622  16.870   3.963 -0.0779  0.1982 -0.2525
26614W        W40028  15.415   2.016  14.524  0.3087 -0.1636  0.0310
26615W        W40029   4.458  10.107  15.324 -0.0394  0.2220 -0.1415
26616W        W40030  12.959   1.888  16.144  0.0420 -0.1331  0.0520
26617W        W40031   9.515   6.313   1.935  0.2239  0.1643  0.1625
26618W        W40032   2.336  17.840   1.903 -0.0121 -0.0367 -0.1217
26619W        W40033   1.025  15.965   3.399  0.2412  0.0427 -0.1323
26620W        W40034   4.648  10.693   3.948 -0.0319 -0.0917  0.2413
26621W        W40035  10.631   9.034  14.612 -0.1812  0.0143  0.1125
26622W        W40036   7.771  13.889   2.149 -0.0204 -0.2998  0.0153
26623W        W40037  10.780  14.473   3.880 -0.0260  0.1183  0.0863
26624W        W40038  18.346  14.095   6.143 -0.3226 -0.1085  0.0308
26625W        W40039   2.855   2.042   5.911  0.0717  0.1236  0.1134
26626W        W40040  11.217  14.502  12.774  0.0698 -0.2696  0.0448
26627W        W40041  16.664  12.177   1.635  0.0369  0.1049 -0.0055
26628W        W40042   3.269   8.940  13.051 -0.1860  0.1850  0.0427
26629W        W40043   5.522  15.334  11.033 -0.0682  0.0126 -0.0358
26630W        W40044  11.542  15.447   1.115  0.1327 -0.0445 -0.0435
26631W        W40045   3.298   7.621   2.303 -0.1374  0.2994  0.1757
26632W        W40046  14.414  17.451  10.727  0.2837  0.1712  0.0912
26633W        W40047  17.359  14.324  15.307 -0.4039  0.0980  0.1898
26634W        W40048  15.102  17.119  15.869  0.0618  0.1991 -0.1003
26635W        W40049  14.786  13.799   1.395  0.0043  0.0517 -0.0468
26636W        W40050  16.507   3.652   1.349 -0.0425  0.0850  0.3342
26637W        W40051  17.000   8.329   2.854  0.1703  0.0491  0.2107
26638W        W40052  17.675  13.029   4.318  0.0151 -0.2330  0.0760
26639W        W40053   5.916  14.915  13.357 -0.0097 -0.1916 -0.1322
26640W        W40054  11.081  13.750  10.971  0.2093 -0.3005  0.0040
26641W        W40055   6.526  16.765  12.130  0.0422  0.0238 -0.0637
26642W        W40056   4.012   4.187   1.661 -0.0166 -0.1368  0.0636
26643W        W40057   1.169  12.118   1.871 -0.1800 -0.2737  0.1674
26644W        W40058   3.757   9.147  11.750 -0.1074  0.1786 -0.0057
26645W        W40059  14.026   6.315  10.655 -0.0280 -0.0482 -0.2080
26646W        W40060   1.030   0.386  14.048  0.2970 -0.0722  0.1551
26647W        W40061   3.574   7.706  15.369 -0.0103 -0.1296  0.2874
26648W        W40062  15.900   8.149   5.120 -0.1493 -0.1499  0.0822
26649W        W40063   6.770   9.160   0.026  0.0907  0.3990  0.3376
26650W        W40064  16.591   5.327  12.915 -0.1458 -0.0177  0.1973
26651W        W40065  10.982   2.062   5.353  0.0003 -0.2055  0.1786
26652W        W40066  14.248  12.120   2.264  0.2773 -0.1240  0.0598
26653W        W40067  12.351   4.336   3.635 -0.3746  0.3898 -0.0910
26654W        W40068   3.082   4.456   2.647 -0.0672 -0.1485 -0.1583
26655W        W40069  11.666   1.749   4.672 -0.0674  0.0570 -0.0470
26656W        W40070   7.697  10.399   3.515  0.0850  0.0227 -0.1577
26657W        W40071  14.080  13.516   5.144 -0.0696  0.1594  0.2275
26658W        W40072   9.834   1.370   2.748 -0.2203 -0.1211 -0.2432
26659W        W40073  11.839   4.984  11.332  0.0646  0.0398 -0.0473
26660W        W40074   9.402   9.691  12.588 -0.1428  0.0984 -0.1111
26661W        W40075   9.684   7.376   5.710  0.0597 -0.1198 -0.2295
26662W        W40076  10.369  14.033  10.675 -0.2439 -0.2979  0.1730
26663W        W40077   3.027  15.585   0.668  0.0506  0.0147  0.2823
26664W        W40078   3.515   8.110  13.417 -0.1182  0.1255 -0.1717
26665W        W40079   7.486   3.382  15.958 -0.0026 -0.0109 -0.3082
26666W        W40080  10.553  16.570  13.481 -0.0237  0.1841 -0.4099
26667W        W40081  12.274   8.372  10.712  0.0139  0.1072 -0.1141
26668W        W40082   1.783  12.476  13.865  0.3066  0.2524  0.0636
26669W        W40083   0.510   5.384   2.033 -0.0009  0.2858 -0.1699
26670W        W40084   3.208   1.736   3.222 -0.2513 -0.0664 -0.0293
26671W        W40085  11.493   7.347   4.334 -0.0318 -0.1604 -0.2129
26672W        W40086   5.223  16.400  15.263 -0.2998  0.1457 -0.0271
26673W        W40087   7.979   9.031   4.216 -0.1420  0.3048  0.1347
26674W        W40088  14.640   8.546  11.416  0.0115  0.0892 -0.4558
26675W        W40089  11.974  12.806   2.337 -0.5816  0.1015  0.2932
26676W        W40090  16.291   4.894  13.254  0.3157 -0.0839  0.2967
26677W        W40091  16.751   3.851   0.878 -0.0223 -0.1369 -0.1657
26678W        W40092  14.460   5.752  12.355 -0.3096 -0.3382 -0.1289
26679W        W40093   2.450   2.292  10.352 -0.2122  0.1114  0.0800
26680W        W40094  18.406   3.845  15.178  0.2373 -0.1525 -0.1547
26681W        W40095   8.417   3.849  14.178  0.1243 -0.1252  0.2171
26682W        W40096   2.986   5.236  15.805 -0.1552  0.1535  0.0292
26683W        W40097   2.565   5.964  14.044  0.1640 -0.0995 -0.3106
26684W        W40098  13.722  13.948  14.439  0.0884 -0.1911  0.1515
26685W        W40099   3.568   6.466   2.060  0.0335 -0.1184  0.0505
26686W        W40100   9.722  15.829   0.411 -0.0721 -0.0805  0.1780
26687W        W40101  15.275  13.987   3.338  0.4784 -0.0120 -0.0081
26688W        W40102   7.928   9.602   1.418 -0.0287  0.4175  0.0571
26689W        W40103   4.658   1.729  14.122  0.0947  0.0083 -0.0364
26690W        W40104   6.257  15.086  10.247  0.0657  0.0199  0.1282
26691W        W40105  17.812  16.521   4.465  0.0205  0.2925  0.0018
26692W        W40106  14.773   8.080  10.795  0.0922 -0.1275  0.0692
26693W        W40107   3.203   2.818  13.741 -0.0697 -0.1877 -0.0376
26694W        W40108  13.311   0.484  14.745 -0.2653  0.1917 -0.5058
26695W        W40109   2.590   5.948   5.636  0.2828  0.1851  0.0856
26696W        W40110  14.069   2.553  12.879  0.2495 -0.0106  0.0205
26697W        W40111   8.191  15.757  14.740 -0.1757  0.2192 -0.0319
26698W        W40112  11.614  15.552  15.857  0.0136 -0.0099  0.2590
26699W        W40113  10.739  13.774  14.020 -0.3627  0.2739 -0.4587
26700W        W40114   6.287  17.139  13.268 -0.0046 -0.2562  0.0014
26701W        W40115   0.518   1.222   3.708 -0.1116  0.3306  0.1072
26702W        W40116  17.168   3.091   5.529 -0.2892 -0.1651 -0.1352
26703W        W40117   2.049  18.200  11.312 -0.0055 -0.0522  0.1483
26704W        W40118  15.273   6.230  13.774  0.0948  0.2347  0.0306
26705W        W40119  12.949  15.866   0.718 -0.0484  0.2560  0.0931
26706W        W40120   6.966   1.028  11.098 -0.1820 -0.3993  0.3901
26707W        W40121   8.857  13.942  14.550  0.0306 -0.1561 -0.0966
26708W        W40122   0.882  11.844  15.467 -0.1608  0.0775  0.1873
26709W        W40123  12.017   1.604  12.182 -0.0599  0.0439 -0.2362
26710W        W40124   1.583   7.157  11.388 -0.1875 -0.1670 -0.4166
26711W        W40125  14.230  10.501   4.899 -0.0760 -0.0103  0.2029
26712W        W40126   4.971   2.703  14.434 -0.0371  0.0947  0.1031
26713W        W40127   5.148   0.935   2.622 -0.1980  0.0437  0.3567
26714W        W40128   2.500   0.180   2.136  0.0187 -0.2295 -0.3643
26715W        W40129   4.301   9.942  14.858  0.0147 -0.2088 -0.0494
26716W        W40130   7.895   4.409   0.633 -0.1594  0.0130  0.1974
26717W        W40131   7.254   3.906   1.981  0.3443 -0.4226 -0.0355
26718W        W40132   4.942   0.930   3.060 -0.1554 -0.2493 -0.1168
26719W        W40133  12.426   8.082  14.682 -0.0801  0.0799  0.0939
26720W        W40134   0.039   5.961   0.967 -0.4410  0.1092 -0.4282
26721W        W40135   7.146   6.486   2.890 -0.1674  0.1385  0.2703
26722W        W40136   4.892   4.581   1.894 -0.0004  0.2069  0.1894
26723W        W40137  14.896   0.808   0.383 -0.1971  0.0061  0.0067
26724W        W40138   7.714  14.036   3.118  0.0249  0.1011  0.3384
26725W        W40139   5.739   1.906  14.998 -0.0552  0.0179  0.0004
26726W        W40140   4.338   9.562  15.705  0.1112 -0.3863 -0.3226
26727W        W40141  12.345   2.557   0.600  0.3236 -0.1061  0.1911
26728W        W40142   3.817  15.941  11.923  0.1599  0.1204  0.1962
26729W        W40143   7.724  15.814  10.584 -0.2595 -0.2142  0.1167
26730W        W40144   0.907  18.136   4.303  0.0212  0.0309 -0.0772
26731W        W40145  18.388  10.065   2.182  0.3581  0.0341 -0.0343
26732W        W40146   0.376  15.794  10.766 -0.0183 -0.0334 -0.1384
26733W        W40147   3.704  14.177  12.449  0.0302  0.0479  0.0279
26734W        W40148  16.256   1.956  13.738 -0.1788 -0.0063 -0.2168
26735W        W40149   4.580   4.356   2.960 -0.1885  0.0900  0.1635
26736W        W40150   1.532   7.921   5.658 -0.1114  0.0513 -0.1750
26737W        W40151   4.958   0.953   4.833  0.3608 -0.1025 -0.0292
26738W        W40152   1.666  14.878  15.497 -0.0299 -0.2778 -0.0176
26739W        W40153  10.056  13.475   9.814  0.1754 -0.0253  0.3616
26740W        W40154  12.623  11.053  15.997 -0.2661  0.0425  0.0522
26741W        W40155  11.200   7.242  15.100  0.1350  0.0529 -0.1076
26742W        W40156   7.056   9.949  15.453  0.0923 -0.1359 -0.1680
26743W        W40157   0.917  17.544   1.470 -0.2959  0.0494 -0.1605
26744W        W40158  15.811  15.965   0.743  0.2563  0.2106  0.0697
26745W        W40159   7.582   9.903   1.784  0.0221 -0.0006  0.2806
26746W        W40160  11.933   6.346  14.990  0.1202  0.1599 -0.4117
26747W        W40161   9.761  10.851   3.068  0.1304 -0.1341  0.0819
26748W        W40162  15.274  13.904   4.050  0.0165  0.1817 -0.0360
26749W        W40163   6.938  11.828  10.915  0.1812 -0.1944 -0.1771
26750W        W40164  16.245   1.309  12.032  0.0765 -0.0372  0.0255
26751W        W40165   3.879   4.534  11.028 -0.0022  0.0831 -0.0223
26752W        W40166   1.706  14.266  12.143 -0.3942  0.2736 -0.1161
26753W        W40167  13.508  15.484   3.717 -0.0441 -0.1811 -0.0509
26754W        W40168   8.800   6.121   0.441  0.1470 -0.1155 -0.0172
26755W        W40169   6.950  11.518   0.882  0.3114  0.0970 -0.0900
26756W        W40170   4.973   4.163   1.089  0.2803 -0.2026  0.0726
26757W        W40171   6.231   0.823   4.133  0.2525 -0.2489 -0.0746
26758W        W40172  11.666  16.100   0.102 -0.4617 -0.0236 -0.2668
26759W        W40173  18.155  15.563  13.996  0.1047 -0.0185  0.0742
26760W        W40174   8.709  17.444   1.660 -0.0813  0.0988  0.0440
26761W        W40175  13.716   1.497  11.090 -0.1022  0.2767  0.1144
26762W        W40176  16.993   9.125  11.624 -0.0806 -0.1707 -0.0216
26763W        W40177   6.840   1.577   4.279 -0.1156  0.1828  0.1506
26764W        W40178   7.357  16.227   4.903  0.1677 -0.1494 -0.2717
26765W        W40179  12.895  15.664   3.487  0.0669  0.2703  0.1038
26766W        W40180   7.084  17.435   2.030  0.0439  0.1655 -0.1081
26767W        W40181   7.126   3.432  15.647  0.0072 -0.0991 -0.2103
26768W        W40182  10.956   7.375   2.245  0.1707  0.1087 -0.0174
26769W        W40183   7.072   6.377  15.769 -0.0773 -0.0192  0.0406
26770W        W40184   8.010  16.262   2.462  0.1519 -0.0391 -0.0012
26771W        W40185  15.783  16.572   3.588 -0.1895  0.1329  0.2799
26772W        W40186  16.760   7.756  15.990  0.0878 -0.0069  0.2078
26773W        W40187   4.235   6.815   5.554 -0.0883  0.0872 -0.0417
26774W        W40188   0.833   3.118  14.664 -0.1669  0.0822  0.1178
26775W        W40189  10.058   5.751   3.066  0.1869 -0.0097 -0.0720
26776W        W40190  17.300   1.402   3.474  0.3560  0.0965  0.1815
26777W        W40191   1.557   8.927   0.014 -0.2155  0.1733  0.2263
26778W        W40192   1.379   5.916  12.028 -0.1292 -0.0189 -0.0295
26779W        W40193   1.938   7.583  10.446 -0.0392  0.0792 -0.0124
26780W        W40194   3.982   4.922  14.713 -0.0174 -0.2663 -0.2731
26781W        W40195   8.180   5.159   2.007 -0.2212 -0.2805  0.0992
26782W        W40196   3.671   2.522   4.493 -0.1901  0.1593  0.1792
26783W        W40197   3.918  14.254  10.857  0.1237 -0.1060  0.0462
26784W        W40198   2.613   4.258   3.479 -0.1862 -0.1483 -0.0249
26785W        W40199  18.276   3.840   5.579 -0.1262  0.0715 -0.0189
26786W        W40200  18.236   2.748   1.832  0.1542 -0.2355 -0.4004
26787W        W40201   1.839  11.753   4.865  0.1915 -0.1788 -0.1434
26788W        W40202  15.307  13.125   3.274  0.1443  0.0173  0.0827
26789W        W40203  17.221  13.214   0.835 -0.1380  0.0064 -0.1737
26790W        W40204  14.029   0.698  12.761 -0.0486 -0.0145  0.1510
26791W        W40205  10.887  11.442  15.001 -0.0616 -0.2094  0.1289
26792W        W40206  15.903  14.735  15.016 -0.1948 -0.0027 -0.0085
26793W        W40207   7.978  11.759   1.161  0.2485 -0.0326  0.3302
26794W        W40208   6.698  11.617  15.808 -0.0660  0.2644 -0.0715
26795W        W40209   7.414  12.710  13.272  0.0100 -0.2546  0.0065
26796W        W40210   8.433  14.714   1.264  0.3845 -0.0332 -0.4886
26797W        W40211   7.440   6.639   0.360 -0.1455  0.0308  0.0315
26798W        W40212   4.296  17.019  16.140  0.0977 -0.0178 -0.1792
26799W        W40213  15.513  16.706  15.641  0.0887 -0.0638 -0.2109
26800W        W40214   6.818   7.922   0.379  0.1537 -0.0306 -0.1860
26801W        W40215  15.222  17.665   1.034 -0.3267 -0.0491 -0.0938
26802W        W40216  17.889  15.273  12.850  0.3636 -0.5072  0.1680
26803W        W40217  10.457   0.410  12.435 -0.1258 -0.2373  0.0234
26804W        W40218   1.914   7.135  12.587 -0.3330 -0.2017  0.1574
26805W        W40219  14.992   7.315  12.453 -0.1887  0.0289 -0.1281
26806W        W40220  12.646   4.468   5.581 -0.1097 -0.1666 -0.1118
26807W        W40221  10.674   2.942   5.500  0.0170  0.0458  0.0053
26808W        W40222  11.587  13.399  15.811 -0.2136  0.1431  0.0223
26809W        W40223  11.879   2.443   3.569  0.3311 -0.0234 -0.0311
26810W        W40224   7.991   0.124   3.285  0.6597 -0.1380  0.3496
26811W        W40225   4.255   0.358   1.257 -0.0764  0.1264  0.1314
26812W        W40226   8.358  11.510  15.368 -0.3252  0.2153  0.2562
26813W        W40227  15.625   9.528  15.020  0.2571  0.3134  0.0158
26814W        W40228   9.965  12.756  13.266 -0.0605  0.1456 -0.1474
26815W        W40229  12.792  11.673  15.989  0.2045 -0.1648  0.0833
26816W        W40230   2.913   5.650  14.529 -0.1635 -0.0581  0.1738
26817W        W40231  18.038   3.528   1.207 -0.2365 -0.0941 -0.0604
26818W        W40232  16.032   4.131   4.495 -0.0596  0.4021 -0.0834
26819W        W40233   1.535  12.664  13.057  0.5250 -0.0398 -0.0306
26820W        W40234  16.866  14.092  11.122 -0.1735 -0.0272 -0.0203
26821W        W40235   7.237   9.297   0.104 -0.2164  0.0681 -0.0641
26822W        W40236  16.076   0.520  14.119  0.2047  0.1199 -0.0165
26823W        W40237   5.912   3.312   5.061 -0.0784  0.1507 -0.1336
26824W        W40238   1.404   5.475   5.061  0.0697  0.0736 -0.1500
26825W        W40239   8.045   5.230   2.524 -0.0331  0.0502 -0.0262
26826W        W40240   5.067   2.475  13.255  0.0577 -0.1254  0.0005
26827W        W40241  12.272   3.909   5.160  0.2865 -0.1236 -0.0964
26828W        W40242  13.010  10.388  11.183 -0.2954 -0.2256 -0.1512
26829W        W40243  16.751  14.291   5.519  0.0332  0.1956 -0.0677
26830W        W40244   3.504   0.396  12.189 -0.0599  0.0982  0.1250
26831W        W40245   1.302  12.551   0.481 -0.0052 -0.1476 -0.0945
26832W        W40246   6.498  12.745  11.729 -0.2624 -0.0767  0.3059
26833W        W40247  15.167   8.908   1.727 -0.0946 -0.0200 -0.0889
26834W        W40248   8.309  16.008   2.906  0.0173 -0.1389 -0.1494
26835W        W40249   8.292   5.845  14.458 -0.2004 -0.0871  0.1730
26836W        W40250  17.830  11.653   5.270  0.0536  0.1568  0.0959
26837W        W40251  12.213   1.195   1.517 -0.2987  0.1336 -0.0452
26838W        W40252   8.925   4.046  11.178  0.2756  0.4626  0.1293
26839W        W40253   4.120  14.973  11.217 -0.1447  0.1569 -0.1961
26840W        W40254   2.897  11.974  15.817  0.0644 -0.1689  0.2995
26841W        W40255   2.812   1.149  16.188 -0.2595 -0.2448 -0.2167
26842W        W40256  14.808   0.504   2.551 -0.1797 -0.3275 -0.2984
26843W        W40257   9.366   9.863  14.800 -0.1083  0.1310 -0.2651
26844W        W40258   5.100  16.047   0.663 -0.1689  0.4642 -0.1773
26845W        W40259   1.378   1.472   6.523  0.0657 -0.2483  0.2975
26846W        W40260  10.106  11.527  14.431  0.0972 -0.1611  0.0623
26847W        W40261  14.092   7.340  12.779  0.0264  0.1905 -0.0762
26848W        W40262  13.566   6.657   1.081 -0.1773 -0.2600  0.0329
26849W        W40263   1.583   3.065  14.793  0.0564 -0.2852  0.0574
26850W        W40264  11.555  14.338   1.465 -0.0664 -0.1326 -0.2235
26851W        W40265  14.398  12.583   2.433  0.0415  0.0493 -0.0420
26852W        W40266   3.038   6.250   4.916 -0.0832 -0.0297  0.0294
26853W        W40267   2.847  16.162  10.223  0.1029  0.0147  0.1654
26854W        W40268   9.277   7.219   0.055  0.0318  0.1117  0.1459
26855W        W40269   7.780   8.742  11.909  0.0443  0.3242 -0.0582
26856W        W40270   7.391  13.351   2.024 -0.3954 -0.1344  0.3378
26857W        W40271   0.604  13.344   3.624  0.1339 -0.0915 -0.0031
26858W        W40272  16.673  15.227   2.785 -0.0829 -0.0300 -0.1300
26859W        W40273  11.258   2.838   4.767 -0.1453  0.2321 -0.0883
26860W        W40274   0.333  11.363  14.388 -0.0705 -0.0978 -0.0623
26861W        W40275  18.090  11.730   3.435  0.5015  0.1271 -0.0934
26862W        W40276   5.147   6.580   3.570 -0.0189  0.2013 -0.0815
26863W        W40277  18.069   0.558  11.456  0.0868  0.0523 -0.0679
26864W        W40278   1.487  11.802   2.126 -0.0419  0.1098  0.0419
26865W        W40279  16.115  18.104   0.768  0.1187 -0.0958  0.3404
26866W        W40280  12.797  12.758   4.755  0.2988  0.1102 -0.0251
26867W        W40281   1.656  15.135   1.952  0.1556  0.2274 -0.0203
26868W        W40282  15.851  15.219  15.234 -0.2312  0.1704 -0.0385
26869W        W40283  17.539  16.794   5.497  0.0923 -0.0185  0.2835
26870W        W40284   6.508  12.850   2.625  0.0256  0.2628 -0.1470
26871W        W40285  12.161  10.239  11.512 -0.0224 -0.1137 -0.1041
26872W        W40286   1.847  15.735   1.359  0.1775 -0.1254 -0.0381
26873W        W40287   6.755   3.571  14.813  0.1702  0.3387  0.1371
26874W        W40288  16.742   1.126  11.945 -0.0043 -0.2209  0.0120
26875W        W40289  16.202   2.470  15.819 -0.1584 -0.3065 -0.2121
26876W        W40290   6.822  12.937   5.287  0.1164  0.0523  0.1354
26877W        W40291   2.031  12.336  10.535 -0.0043  0.1386 -0.1762
26878W        W40292  16.648   8.585  11.619 -0.1407 -0.2054 -0.0940
26879W        W40293   5.618   1.945   3.539 -0.1024 -0.0687 -0.0992
26880W        W40294  15.650   1.483  12.335  0.1451  0.0329 -0.2031
26881W        W40295  10.659  12.676  14.312  0.0754  0.1963  0.2090
26882W        W40296  14.169   2.447   5.592  0.2413  0.2054 -0.1014
26883W        W40297   8.873  14.295   4.442 -0.2446 -0.2089  0.1713
26884W        W40298  13.025   2.429   1.931  0.1422 -0.1108 -0.0445
26885W        W40299   6.334  15.322  10.735 -0.0622  0.2512  0.0496
26886W        W40300   9.276   9.432   1.501  0.0914 -0.4197 -0.2432
26887W        W40301  16.782  11.413  15.796  0.1905 -0.1406 -0.0220
26888W        W40302   3.060   7.478  10.737 -0.2295  0.2619 -0.1837
26889W        W40303  16.010  14.755   4.589 -0.0418  0.0708  0.2958
26890W        W40304   6.124  12.424   4.668 -0.3368  0.3716 -0.0344
26891W        W40305   4.860  11.371   1.598  0.1913  0.1714  0.0530
26892W        W40306  12.499  15.834  13.083 -0.1120  0.0569 -0.2567
26893W        W40307  10.487   6.921  11.166  0.1219 -0.2316  0.0447
26894W        W40308  18.294   1.915   4.066 -0.2075  0.3108  0.3574
26895W        W40309  14.114   8.177  13.848 -0.1637 -0.2204  0.2270
26896W        W40310   4.287  13.716  15.931 -0.2057  0.3762  0.0312
26897W        W40311   0.423   4.703  15.319  0.4278  0.2748  0.3971
26898W        W40312  11.214  16.365   0.834  0.0639 -0.1323  0.1326
26899W        W40313   5.252  17.443  11.141 -0.1845 -0.0241  0.0781
26900W        W40314   5.491   5.463  10.164  0.2294 -0.0105  0.1653
26901W        W40315  14.818  12.110   5.041  0.0269  0.2641  0.1437
26902W        W40316   7.608   7.480  12.592  0.1203 -0.1632  0.2116
26903W        W40317   8.189  13.536  13.908  0.2318 -0.5009 -0.0730
26904W        W40318   8.461   8.481  15.777 -0.1537  0.1579  0.1398
26905W        W40319  12.090   3.609   4.236  0.1510  0.2026 -0.1600
26906W        W40320  18.067   9.893  15.395  0.1761 -0.0357 -0.1430
26907W        W40321   8.956  16.196   1.685  0.5219 -0.0714 -0.0762
26908W        W40322  13.686   7.196   1.181 -0.1615  0.0721  0.2918
26909W        W40323   6.613   5.530   0.190 -0.0743 -0.0057  0.2095
26910W        W40324   6.451  14.343   5.290 -0.0945  0.1570  0.0406
26911W        W40325   1.463   5.092   1.905  0.2442  0.0331  0.3026
26912W        W40326  12.097  11.658   4.721  0.0177  0.2443  0.1494
26913W        W40327   9.391   9.975   4.109 -0.4129  0.0501  0.3726
26914W        W40328  14.464   3.512   1.732  0.0412 -0.1843  0.2143
26915W        W40329   6.927   9.728   4.718  0.1124 -0.1293  0.2344
26916W        W40330   0.938  13.324  14.669 -0.0416  0.0381  0.1529
26917W        W40331  16.893   9.375  11.180 -0.0912 -0.0886 -0.1393
26918W        W40332  15.589   7.708  13.089  0.1232  0.1429  0.1256
26919W        W40333   0.702  12.643   4.776  0.0852  0.1525 -0.0462
26920W        W40334  11.258   5.004  13.110  0.0613 -0.2699  0.0673
26921W        W40335  15.976   0.421  10.638  0.1093  0.0414 -0.4874
26922W        W40336  14.983   5.768  14.645  0.0730  0.0833 -0.0457
26923W        W40337  17.568   5.737  14.740 -0.0893  0.3614  0.0427
26924W        W40338   9.581   4.211   3.353 -0.0229  0.0870 -0.0459
26925W        W40339   6.245   7.454   3.302 -0.0098  0.0691  0.1782
26926W        W40340   9.400  13.384   0.370  0.2624 -0.1993  0.0257
26927W        W40341  12.690  13.178   5.026  0.1626 -0.0641  0.1456
26928W        W40342  13.945   0.861   4.339 -0.0243 -0.1256 -0.1679
26929W        W40343  17.469  12.317  11.628  0.1012  0.0236 -0.0540
26930W        W40344   9.196   1.327   1.472 -0.2854  0.0686 -0.0805
26931W        W40345   9.886   3.756   4.364  0.3384  0.1276 -0.2166
26932W        W40346  11.407  13.942   5.362  0.3397 -0.0030  0.0478
26933W        W40347  17.465   5.250  11.403 -0.0301 -0.2049  0.1855
26934W        W40348   7.648   3.937   2.332  0.0876  0.3725 -0.1078
26935W        W40349  16.498   9.380   2.264 -0.1403  0.3590  0.0349
26936W        W40350  17.280  10.869   5.437  0.0900  0.1536  0.0128
26937W        W40351   0.879   7.691   2.615 -0.0563  0.1385 -0.2300
26938W        W40352  17.220  16.703   3.536 -0.2170 -0.3246 -0.1306
26939W        W40353   4.086  16.302  11.473  0.0001 -0.1344 -0.0331
26940W        W40354  13.216  11.141  15.658  0.0283 -0.0352 -0.1145
26941W        W40355  12.586  12.955  15.066 -0.0076 -0.0306  0.2227
26942W        W40356  13.821  12.316   4.963 -0.0687 -0.3401  0.2029
26943W        W40357  11.512   3.357   1.542  0.1517 -0.0186 -0.0781
26944W        W40358   8.237   0.743  13.175  0.2126  0.2457 -0.0149
26945W        W40359  10.990   5.452  14.851  0.2127  0.0857 -0.1221
26946W        W40360   0.588   3.518   0.241  0.0383 -0.0330  0.2865
26947W        W40361   1.954   6.989  15.682 -0.1540  0.1772 -0.0861
26948W        W40362   3.383   3.161  11.996  0.1455  0.0262  0.2232
26949W        W40363  11.844   4.734   0.626  0.1552 -0.1035  0.2918
26950W        W40364   7.983   0.329   6.549  0.4002  0.0147 -0.0718
26951W        W40365   5.548   6.975   2.167  0.0979 -0.0633  0.1481
26952W        W40366   2.028  16.416  13.176 -0.0391 -0.0702 -0.2679
26953W        W40367   1.383  10.772  15.819 -0.3366  0.1428 -0.2388
26954W        W40368   3.966  14.478  15.806 -0.1790 -0.0643 -0.0264
26955W        W40369   5.792  11.191  11.351  0.0091  0.0322 -0.0697
26956W        W40370   3.820  10.166   5.138  0.3370 -0.0679  0.2039
26957W        W40371  12.671   8.626   5.751  0.2808  0.0130  0.0681
26958W        W40372  14.598   6.833   2.015 -0.1720 -0.0496  0.1808
26959W        W40373  14.550   8.717   5.227 -0.1831 -0.0331 -0.0163
26960W        W40374  14.823  12.435   1.016  0.0424  0.0518 -0.3135
26961W        W40375  10.129   9.963  15.476  0.2287 -0.1137 -0.1001
26962W        W40376   7.431  11.155   3.907  0.2136 -0.2182 -0.0905
26963W        W40377   8.731  10.168  10.334  0.1010  0.0597  0.0424
26964W        W40378  12.443   7.371   6.388  0.0439 -0.0773 -0.2105
26965W        W40379   9.645   0.753   5.075  0.0300  0.2421  0.0332
26966W        W40380   4.597   7.627  11.934 -0.1813  0.1592  0.2499
26967W        W40381   8.871   0.434  10.858 -0.1050  0.0205  0.1573
26968W        W40382   7.480   1.106  12.375  0.2037  0.0278  0.0732
26969W        W40383  11.331  13.272   2.879  0.1310  0.1396 -0.0204
26970W        W40384  12.298   9.212  16.020 -0.4711  0.1603 -0.0389
26971W        W40385  13.268  11.320  12.458 -0.1610 -0.5077  0.3428
26972W        W40386   3.169  10.548  14.795  0.0922  0.0314  0.0566
26973W        W40387   8.623  14.233  11.627  0.1559 -0.1272 -0.1997
26974W        W40388  11.584  12.010   0.197 -0.0441 -0.0427 -0.1000
26975W        W40389  16.933   0.368   3.270  0.2271  0.3439  0.1852
26976W        W40390  13.374  15.902   4.712 -0.3265  0.0991 -0.0915
26977W        W40391   4.943  10.049  11.443  0.0267  0.0720 -0.1516
26978W        W40392   9.456   7.764  11.095 -0.0612 -0.2214 -0.0297
26979W        W40393  10.988   2.864   3.894  0.1526 -0.0390 -0.1314
26980W        W40394   2.021   9.302   4.842  0.1425 -0.1455 -0.0697
26981W        W40395  14.532   6.534  13.283 -0.0770  0.1554 -0.1417
26982W        W40396   5.621   7.130   4.527  0.1214  0.0267 -0.1201
26983W        W40397  17.488   5.148  16.169 -0.1726  0.0592  0.1800
26984W        W40398   1.816   5.482  16.038  0.1112 -0.3324  0.0829
26985W        W40399   5.689   8.648   1.180  0.0700  0.0316 -0.0552
26986W        W40400   4.476  14.283  13.870 -0.1066  0.1004  0.0471
26987W        W40401  11.213   7.521  15.684 -0.1275 -0.1369 -0.3160
26988W        W40402   8.204  15.996   0.093 -0.2230 -0.0919  0.0750
26989W        W40403   9.367   5.680   0.347 -0.4211  0.0245 -0.0959
26990W        W40404   0.404  14.303  16.016 -0.2346  0.1649  0.0489
26991W        W40405   0.846   1.223  11.196  0.0172  0.0226  0.1391
26992W        W40406   3.486  13.623   4.312 -0.0180  0.0196  0.0361
26993W        W40407  14.591  11.235  16.059  0.0916  0.3551  0.0683
26994W        W40408   8.560   2.627  14.064 -0.2811 -0.3426  0.1141
26995W        W40409   8.451  13.792  11.396  0.0710 -0.1223  0.1573
26996W        W40410  16.240   4.230  11.501 -0.1404  0.1050  0.0737
26997W        W40411   8.460  10.296   5.833 -0.0916  0.4065  0.2247
26998W        W40412  16.165   2.440  13.886  0.1591 -0.0495  0.0087
26999W        W40413  10.839   6.679   4.795 -0.2450 -0.2186  0.0487
27000W        W40414  10.513   3.003   1.277  0.1223 -0.1089 -0.0720
27001W        W40415   4.780  10.261   2.543  0.1491 -0.1503 -0.2052
27002W        W40416   2.524  11.177  11.510 -0.2436  0.2390  0.2674
27003W        W40417  13.550   4.020  15.564 -0.1722  0.1293  0.0882
27004W        W40418  14.611   3.783  11.535 -0.1517  0.0397  0.2277
27005W        W40419   5.931   4.789   5.323 -0.0981 -0.0393 -0.1962
27006W        W40420  15.971   7.080   4.362  0.0644  0.3305 -0.0128
27007W        W40421  13.353  12.107  14.988  0.2790 -0.2062  0.0286
27008W        W40422   3.657   9.787   2.890  0.2507  0.1513  0.3124
27009W        W40423   7.325  17.865   2.453 -0.0102 -0.2292  0.3326
27010W        W40424  13.576  13.900  13.186 -0.0903  0.1302 -0.0724
27011W        W40425   1.505  12.522  10.447  0.1319  0.0175 -0.0083
27012W        W40426  13.655   7.378  10.580  0.1071 -0.3430  0.0345
27013W        W40427   3.586   8.213  11.968  0.1372 -0.2988  0.1058
27014W        W40428  11.335   7.509  11.199  0.1256  0.1203 -0.2154
27015W        W40429   0.799   1.297  14.366  0.0339  0.2863  0.1789
27016W        W40430  10.338  15.213   1.064  0.0982  0.2497  0.2267
27017W        W40431   9.732   6.352  12.307 -0.1704 -0.1953 -0.1369
27018W        W40432   5.930  17.024   4.446  0.2209  0.1408  0.2822
27019W        W40433   4.834  17.020  10.551  0.1430 -0.0254  0.1634
27020W        W40434  17.158  11.510  10.627 -0.0264 -0.1450 -0.0305
27021W        W40435   0.714  12.657  15.939  0.1998  0.1032 -0.0065
27022W        W40436  11.426  13.531   1.173  0.0754  0.0001 -0.1835
27023W        W40437  14.969   4.795  11.800 -0.0176 -0.0741 -0.0620
27024W        W40438   0.288  17.915  11.523 -0.2290  0.1755  0.0885
27025W        W40439   8.880  15.642   5.004  0.1594 -0.1164 -0.0254
27026W        W40440  10.180   8.426   4.555 -0.0975  0.1274 -0.0764
27027W        W40441   9.651  10.222   3.572  0.0946 -0.4178 -0.0708
27028W        W40442   1.612   7.767  14.197 -0.1013 -0.0111 -0.2777
27029W        W40443   5.882  16.312   1.762 -0.0938 -0.2485 -0.0187
27030W        W40444   1.210  16.699  10.463 -0.0803 -0.2067 -0.1816
27031W        W40445   0.674   8.666   1.219  0.0050 -0.1597 -0.0192
27032W        W40446   1.091   4.766   1.041  0.2060 -0.2086 -0.1391
27033W        W40447   1.060   4.804   1.833 -0.0297 -0.3011  0.0338
27034W        W40448  16.334  10.811   2.155 -0.0276 -0.0772  0.2111
27035W        W40449   6.960   4.239   4.253 -0.0130 -0.1641 -0.0926
27036W        W40450   1.383  15.938   1.565 -0.2186 -0.0874 -0.0754
27037W        W40451  16.917   5.920  11.017 -0.1068  0.0471 -0.0422
27038W        W40452   0.137  14.297  13.112 -0.0722  0.2108  0.1779
27039W        W40453   4.131   4.240   5.755 -0.0686  0.1126  0.0320
27040W        W40454   2.715   0.743  15.436 -0.0859 -0.1769 -0.1577
27041W        W40455  18.380   3.875   1.068 -0.1655 -0.1805 -0.0373
27042W        W40456   1.341   6.043   2.306 -0.0911 -0.0301  0.0444
27043W        W40457   4.176   6.231  12.389  0.2660 -0.0456  0.1747
27044W        W40458  16.604  13.245  12.058 -0.0584  0.1401  0.1918
27045W        W40459   1.351  15.896  10.880  0.2805 -0.1194 -0.0097
27046W        W40460  15.713  16.421  16.006  0.1315  0.0158  0.2362
27047W        W40461  11.826   9.615   3.419 -0.2683 -0.1324  0.0801
27048W        W40462   0.522   0.948  11.546  0.0249  0.2994  0.2199
27049W        W40463   8.573  14.485   3.696  0.0471 -0.1754 -0.0521
27050W        W40464  13.614  15.934   2.422  0.1158  0.3527  0.3284
27051W        W40465   9.015  13.026  13.165 -0.0356  0.1887  0.2990
27052W        W40466   0.468   6.531   1.504 -0.0043 -0.1314  0.1304
27053W        W40467   7.664  16.110   3.877 -0.0123 -0.1748  0.0152
27054W        W40468  14.777   5.971   1.518 -0.3014  0.1675  0.1734
27055W        W40469  16.054  15.973  16.134  0.2522  0.2196  0.2143
27056W        W40470   3.293   9.824  15.831  0.0017  0.0304  0.0288
27057W        W40471   8.292   1.665  13.291  0.1135  0.0028 -0.0773
27058W        W40472   1.639   2.027  12.533  0.1007  0.2479  0.0200
27059W        W40473  12.928  15.004  14.942  0.4406  0.1742 -0.1352
27060W        W40474   8.598  15.879   1.885  0.0186  0.2313  0.0406
27061W        W40475   6.286  15.826  15.073  0.0214 -0.1010  0.2862
27062W        W40476  17.149  12.707   2.380  0.1234  0.1377  0.0066
27063W        W40477  16.335   3.099  15.149 -0.3319  0.3246 -0.3444
27064W        W40478   7.138   9.452   5.085 -0.2258 -0.1250 -0.1197
27065W        W40479   1.258   1.715  16.223 -0.2013  0.4903 -0.3382
27066W        W40480   6.037   5.844   0.655 -0.0763  0.0021  0.2818
27067W        W40481   1.614  16.640   2.704  0.2041 -0.3169  0.1984
27068W        W40482  10.885   4.731  13.577  0.0259 -0.1227 -0.0768
27069W        W40483   3.121  11.503   1.278  0.3391 -0.2025 -0.0386
27070W        W40484   8.511   1.258   0.318 -0.0648  0.1084  0.0886
27071W        W40485  16.268   8.294  14.746  0.0044  0.3157  0.1247
27072W        W40486  13.106  12.261   5.476 -0.1993 -0.1095 -0.0679
27073W        W40487   6.211   1.433   4.754  0.3224 -0.0649 -0.0145
27074W        W40488   4.996  13.069  14.249  0.3620  0.1244 -0.1776
27075W        W40489   0.288  14.814  13.182 -0.4471 -0.1498  0.1328
27076W        W40490   1.225   2.264  15.044 -0.1348  0.0364 -0.0598
27077W        W40491   9.870   1.978  13.125 -0.3782  0.2230 -0.1446
27078W        W40492   7.054   7.895  14.468  0.1664  0.1069  0.2506
27079W        W40493   6.003   3.107   4.323  0.1619  0.3267  0.2148
27080W        W40494   2.395   0.012  14.742 -0.0498 -0.1950  0.0321
27081W        W40495  12.008   8.713   2.817 -0.0076  0.2600  0.3619
27082W        W40496   7.322   7.282  13.866 -0.1455  0.0920 -0.0193
27083W        W40497   3.018  11.542  12.329 -0.1162 -0.0579 -0.0829
27084W        W40498  10.429  18.358   1.595  0.2270 -0.0072 -0.0524
27085W        W40499   4.006  14.398   1.484  0.1025 -0.1392  0.1868
27086W        W40500   2.698  12.133   1.776 -0.1537 -0.4080 -0.2285
27087W        W40501   1.657  11.757   3.106  0.0913  0.3251 -0.0307
27088W        W40502  10.752   2.519   4.175  0.1058  0.0731 -0.0542
27089W        W40503  11.449  14.936  12.704 -0.2560  0.0069  0.3753
27090W        W40504  14.818   6.629   6.092  0.0113  0.3839 -0.1885
27091W        W40505   5.352  10.406   0.425  0.0357  0.3187 -0.0667
27092W        W40506   5.081   0.534   1.890  0.0861 -0.1705 -0.3120
27093W        W40507   7.860  15.115   2.718  0.0884  0.0335  0.1740
27094W        W40508  17.880  13.792  10.371 -0.0574 -0.3160 -0.0876
27095W        W40509   2.468  15.960   4.745 -0.0384  0.0151 -0.1866
27096W        W40510   1.483  14.434  15.736  0.0651 -0.2673  0.3685
27097W        W40511  15.267   6.555  11.607 -0.0171  0.0294  0.1030
27098W        W40512   8.578  17.254  13.156  0.1382  0.3298  0.1982
27099W        W40513   4.303  15.746   3.702  0.0772 -0.1512  0.1161
27100W        W40514  14.657   5.899   4.237 -0.0960 -0.1674 -0.0819
27101W        W40515  13.404   6.262   0.014  0.3641  0.1415  0.1672
27102W        W40516   4.615  12.612  14.997  0.1186 -0.1083 -0.0055
27103W        W40517   8.102   8.651  10.844  0.2046 -0.2407 -0.0390
27104W        W40518   3.686  17.513   3.323  0.4336  0.1356  0.0461
27105W        W40519  11.695  18.258  12.961  0.1514 -0.0106  0.2363
27106W        W40520  13.715  11.287  13.711  0.1658  0.2385 -0.2870
27107W        W40521   8.475   9.690  13.250 -0.2326 -0.0951  0.1827
27108W        W40522   1.312   9.029   4.730  0.0345  0.1991  0.2933
27109W        W40523  14.600  11.953   0.911 -0.0894 -0.2000 -0.3936
27110W        W40524   7.018   7.461   1.210  0.0814  0.1501 -0.0521
27111W        W40525  18.441  14.830   4.583  0.0329 -0.0228  0.3803
27112W        W40526   7.966   1.493   3.765  0.1345  0.2699  0.0686
27113W        W40527  17.941  16.160  13.201  0.0737 -0.2600  0.3912
27114W        W40528  14.213   6.467   5.758 -0.2173  0.3765  0.2202
27115W        W40529  17.900  12.623  12.225 -0.2751 -0.1816  0.1209
27116W        W40530   1.713   6.196  10.925 -0.1711 -0.0677  0.1831
27117W        W40531   7.069  14.448  11.971 -0.1488  0.0850  0.3234
27118W        W40532  10.065  15.065  10.661 -0.3001 -0.4567  0.0741
27119W        W40533  17.170  17.433   5.796 -0.0786 -0.2065  0.0541
27120W        W40534  11.417  12.741   5.809  0.1932  0.2022 -0.0190
27121W        W40535   8.568   4.023   2.976  0.1248 -0.0320  0.0828
27122W        W40536   6.322   6.560  12.706  0.1609  0.0650 -0.1714
27123W        W40537  16.134   3.370   3.397 -0.0864  0.2029  0.3666
27124W        W40538   3.471   3.586  11.243 -0.0059  0.0663  0.0741
27125W        W40539   5.054   7.613   6.137  0.1847 -0.1138  0.2755
27126W        W40540  10.222  13.864   0.372  0.1641 -0.1977  0.0389
27127W        W40541   7.241   5.495   3.818  0.0457  0.3813  0.0067
27128W        W40542  11.936   9.980   3.879  0.5235  0.0791 -0.0385
27129W        W40543  17.856   5.520  12.173  0.0499  0.1789  0.3336
27130W        W40544  16.415  17.490   0.116 -0.0062 -0.0771 -0.1780
27131W        W40545  16.226  10.153   4.077 -0.0375 -0.2605  0.0579
27132W        W40546  12.095   6.721   3.294  0.0634 -0.1489  0.0866
27133W        W40547   6.460   4.367   2.339 -0.1433 -0.0617  0.2204
27134W        W40548   6.457   7.605   0.707  0.1509 -0.0293  0.0031
27135W        W40549   0.068   3.466   5.097  0.2393  0.0235  0.0323
27136W        W40550  12.267  15.240  13.552 -0.3750 -0.1349 -0.1984
27137W        W40551  13.092   1.950   3.216  0.1306  0.3756  0.1160
27138W        W40552  12.997   6.548   4.390  0.2393 -0.0456  0.1243
27139W        W40553   3.141   4.347   3.993  0.2340  0.0526  0.0660
27140W        W40554  18.311   9.831  12.342  0.2184  0.3823 -0.0124
27141W        W40555   1.978  16.665   4.060 -0.0584  0.1183 -0.1310
27142W        W40556   9.890   7.262   3.268  0.2876 -0.1466 -0.2357
27143W        W40557   5.770  14.655  11.657  0.0710  0.1018  0.0647
27144W        W40558  14.409  13.110   5.234  0.1200  0.1475  0.2189
27145W        W40559   8.761  14.903   3.541  0.4851  0.3498  0.1466
27146W        W40560   4.985  16.003  12.588  0.0002  0.1960  0.1968
27147W        W40561  11.641  13.947  14.573 -0.0987  0.1817  0.1105
27148W        W40562  15.455  11.819  10.491  0.0667  0.0020 -0.2768
27149W        W40563  16.715  10.447   3.777  0.2166  0.2941  0.1181
27150W        W40564   4.476  17.076   1.301 -0.0492 -0.1578 -0.1744
27151W        W40565   5.740   2.511   2.602 -0.4011 -0.1907  0.1918
27152W        W40566  13.863  17.762  14.224  0.1480  0.1425  0.0892
27153W        W40567   5.477   2.898   2.996 -0.0572  0.1198 -0.1672
27154W        W40568   6.164  17.084   0.087  0.0727 -0.2005  0.4288
27155W        W40569  16.766   4.528  14.647 -0.3126 -0.0406  0.0604
27156W        W40570   5.274   5.724   1.705 -0.1077 -0.0689 -0.2315
27157W        W40571  15.125   5.811   4.034  0.3175 -0.0060  0.2009
27158W        W40572   8.417  12.974   2.717  0.1117 -0.2146  0.1007
27159W        W40573  12.045  10.747   1.683  0.2306 -0.1425  0.6117
27160W        W40574  15.318  17.008  12.853  0.1203  0.1211  0.0193
27161W        W40575  11.824   3.333   4.817  0.4074 -0.3330  0.1704
27162W        W40576   9.213  12.974   4.302  0.0212  0.2326 -0.0518
27163W        W40577  10.410  13.056  15.502 -0.1782 -0.2405  0.2995
27164W        W40578   4.882  17.712   3.063 -0.0540  0.2453  0.0120
27165W        W40579   6.013  14.085  13.590  0.2215 -0.2552 -0.0279
27166W        W40580   9.281   7.723   4.262  0.4382 -0.0352 -0.1455
27167W        W40581   7.873  17.175   0.135  0.1911  0.5750  0.0181
27168W        W40582  15.837  15.535   5.696  0.0120  0.0716  0.1519
27169W        W40583  18.017   8.120   1.502 -0.2240 -0.0756 -0.1394
27170W        W40584  12.900   0.277  11.341 -0.0381  0.0282  0.0373
27171W        W40585   5.112  15.789   1.846 -0.2588  0.1780 -0.1845
27172W        W40586  11.636  16.281  15.183 -0.0182  0.0308  0.1148
27173W        W40587  15.866  12.271  12.787  0.1006  0.1048 -0.1519
27174W        W40588  12.892   2.203   5.936  0.0832 -0.1679 -0.1924
27175W        W40589   8.861   6.479  13.370 -0.0822  0.0044 -0.0236
27176W        W40590  12.863   2.664   5.193 -0.0963  0.2018 -0.2592
27177W        W40591   4.976   1.418  12.466 -0.1312 -0.2215 -0.0024
27178W        W40592  17.762   7.049  15.966  0.0774  0.2216 -0.2025
27179W        W40593   1.184   4.348   5.000 -0.6363  0.1786 -0.0381
27180W        W40594  11.403   2.663  15.198  0.0597 -0.2440 -0.1221
27181W        W40595  12.242   0.121   0.443  0.0877  0.2177  0.2216
27182W        W40596   1.129   9.890   3.658 -0.3313 -0.0022 -0.2607
27183W        W40597  13.137   4.367  13.001 -0.1050 -0.1266 -0.1598
27184W        W40598  16.474   7.463  15.081  0.1894  0.1004  0.0156
27185W        W40599   0.835   8.508   5.568  0.2165 -0.1816  0.0972
27186W        W40600  16.886   9.538   2.636  0.0210  0.1861  0.2465
27187W        W40601  12.163  11.668  11.247 -0.0961 -0.0460 -0.1248
27188W        W40602  10.702   5.937  12.720  0.1939 -0.2749 -0.2397
27189W        W40603  17.071   7.130  13.044 -0.0873 -0.0313  0.0094
27190W        W40604  14.305  11.946  14.769 -0.3980  0.3104  0.1939
27191W        W40605   3.714   5.349   5.059  0.1909  0.0649 -0.2098
27192W        W40606  18.294   3.323   3.690  0.0878 -0.1337  0.1202
27193W        W40607   9.922  13.333  12.402 -0.0307  0.1606 -0.0277
27194W        W40608   7.116  16.343   2.179 -0.0220  0.0114  0.2214
27195W        W40609  12.874  17.207   0.372 -0.0543 -0.2082 -0.0771
27196W        W40610  17.734   3.978   6.121  0.1669 -0.1007 -0.0989
27197W        W40611  10.729   1.875   9.519  0.0978 -0.0212  0.1308
27198W        W40612   1.483   4.663  14.546  0.0467 -0.3004  0.1121
27199W        W40613   3.220   4.497   5.524 -0.2116 -0.2358  0.0434
27200W        W40614   0.667  12.295  13.938 -0.2495 -0.2436 -0.0062
27201W        W40615   6.643  12.516   4.524  0.2737  0.2065 -0.0435
27202W        W40616  11.483   1.827  10.956  0.0465  0.3056  0.2145
27203W        W40617  16.067   6.523   1.814  0.0928 -0.0982 -0.0211
27204W        W40618  17.552  12.928   1.718 -0.0520  0.1194 -0.0394
27205W        W40619   8.146   1.218  11.030 -0.1337 -0.1526 -0.0740
27206W        W40620   9.063   3.642  12.731  0.1470 -0.2253 -0.1542
27207W        W40621  11.039   3.888  12.625 -0.0317  0.1747  0.0879
27208W        W40622  12.144   1.535  14.553 -0.3308 -0.1313 -0.0711
27209W        W40623  16.735   4.246   6.509 -0.0543 -0.1319 -0.0116
27210W        W40624  12.424  16.569  10.777 -0.0696 -0.3932  0.0483
27211W        W40625  11.647   9.655  11.125  0.1588  0.2533  0.3187
27212W        W40626  17.605   4.855  14.458  0.0189  0.0417  0.1956
27213W        W40627   8.060   3.151  13.066 -0.1315 -0.4422  0.2436
27214W        W40628  12.479  16.739  16.000  0.0576  0.1041 -0.0434
27215W        W40629  14.114   1.273   4.677  0.1876 -0.2437  0.0264
27216W        W40630   2.220  11.478   4.668  0.2013 -0.0824 -0.1764
27217W        W40631   8.666  10.143   1.596  0.2270  0.1196  0.1169
27218W        W40632  16.705   3.233   5.529 -0.0990  0.0381  0.4890
27219W        W40633   1.072   2.254   4.408 -0.0211  0.0345  0.3011
27220W        W40634  10.765   7.858  13.867  0.1943  0.1792  0.3939
27221W        W40635   5.987  10.499   1.186  0.3400  0.0249 -0.1233
27222W        W40636  12.400  12.135   0.730 -0.3203 -0.0748 -0.1691
27223W        W40637  12.306  18.247  13.556  0.0514  0.0057 -0.1783
27224W        W40638   7.093   1.668  11.891  0.1884 -0.1045  0.0317
27225W        W40639   3.715   2.272   5.188 -0.0147 -0.0308 -0.1307
27226W        W40640   3.159   9.514  14.510  0.1482 -0.1529 -0.0479
27227W        W40641  12.145   9.931  14.895 -0.1756  0.2444 -0.3518
27228W        W40642   3.954   3.270  11.190  0.1092 -0.1105 -0.1812
27229W        W40643   3.255   8.718  15.136 -0.1789 -0.2669 -0.0737
27230W        W40644  11.109   3.751  11.178  0.0392 -0.2303 -0.2019
27231W        W40645   7.619  11.669   3.821  0.0586  0.0107  0.0090
27232W        W40646   3.201  15.481   4.952  0.0460  0.2748  0.0419
27233W        W40647  14.744   2.332  11.938 -0.0879  0.1556  0.0421
27234W        W40648   3.193  11.293   4.919  0.0612 -0.0391  0.1859
27235W        W40649   9.136  12.372   9.708 -0.3964  0.0725 -0.0509
27236W        W40650   2.079   3.757   0.813 -0.0280  0.0664 -0.2239
27237W        W40651   9.700   1.231  12.398  0.0461 -0.1966 -0.0216
27238W        W40652   9.350  13.195   5.186 -0.1138  0.3121 -0.3542
27239W        W40653  17.499  13.455   4.114  0.2968 -0.1748 -0.1252
27240W        W40654   7.591   8.871  14.837 -0.2797  0.1582  0.0801
27241W        W40655   9.457   4.652  10.841 -0.1009 -0.1058 -0.4647
27242W        W40656  17.480   0.512   4.957  0.0604  0.0672 -0.0093
27243W        W40657  10.220   8.470  13.423 -0.0271 -0.2888  0.1054
27244W        W40658   7.457   2.351   0.678  0.1598  0.0530 -0.4083
27245W        W40659  15.225  16.316   4.290 -0.1897  0.1830  0.1250
27246W        W40660  16.823   8.968  14.512  0.2013  0.3436 -0.1968
27247W        W40661   6.398   9.543   2.011  0.1424 -0.0008 -0.0501
27248W        W40662  14.554   5.550   1.821  0.2757  0.0601 -0.1964
27249W        W40663   2.536   7.639  15.632 -0.1271  0.0253  0.0521
27250W        W40664   7.925  10.554  11.584 -0.0687  0.2202  0.0563
27251W        W40665   0.499   2.302  10.487 -0.0497 -0.2247 -0.2125
27252W        W40666  15.383  16.790  13.898  0.1263 -0.0394 -0.1598
27253W        W40667   6.174  16.288  15.271  0.1232  0.2074 -0.3497
27254W        W40668  11.029   4.866  15.639  0.4508 -0.0638 -0.0563
27255W        W40669  16.754   7.095  15.275  0.0834 -0.0235  0.0479
27256W        W40670  11.135   7.156   0.557 -0.0864 -0.0294  0.2506
27257W        W40671   7.790  14.553  11.214  0.0221  0.0735 -0.0823
27258W        W40672   6.994   2.590  11.226  0.0578 -0.2924  0.0018
27259W        W40673  11.993   9.904   1.139  0.2405 -0.0419 -0.0782
27260W        W40674  12.170   7.360  15.932  0.1230 -0.0231  0.0783
27261W        W40675  15.730   2.164  15.515 -0.0975 -0.1646  0.1977
27262W        W40676   4.515   4.698   3.248 -0.0603 -0.2793 -0.0987
27263W        W40677  15.064   2.840  15.160  0.2366 -0.2364  0.1038
27264W        W40678   3.531  16.947   0.455  0.3585 -0.0726  0.0800
27265W        W40679  16.961   6.387  15.841 -0.1265  0.0698 -0.0805
27266W        W40680  13.557   2.135  13.463 -0.0628 -0.0380 -0.1884
27267W        W40681  15.649  12.318   1.869  0.0980 -0.1271  0.6035
27268W        W40682   2.417   3.102   1.282  0.1086 -0.0566 -0.2424
27269W        W40683   0.614  11.671  12.061 -0.0079  0.2005 -0.3375
27270W        W40684  15.360  17.608   0.315  0.4460 -0.0619  0.3436
27271W        W40685   4.497  13.154  12.741  0.1418  0.0461  0.0191
27272W        W40686  13.358  16.988   1.561  0.0148  0.1644  0.0875
27273W        W40687  15.558   0.290   3.646  0.2174  0.3601  0.2257
27274W        W40688   2.932  10.055   1.270 -0.1515 -0.1452  0.1469
27275W        W40689   1.795  13.690   1.593  0.1928  0.2901  0.0228
27276W        W40690   1.503   3.252  14.083 -0.2484  0.1448  0.0698
27277W        W40691   4.075   3.683  12.271  0.2527  0.0045 -0.0633
27278W        W40692  13.068   0.665   2.123 -0.1968 -0.1501 -0.0305
27279W        W40693   8.672  18.138  12.522  0.1224 -0.1630 -0.2363
27280W        W40694  10.976   9.429   4.722 -0.3439  0.1829  0.1486
27281W        W40695   2.115  12.169   0.571  0.3256 -0.1494 -0.0677
27282W        W40696  11.177   2.636  13.991 -0.2365  0.1459 -0.0633
27283W        W40697  12.318   5.793  12.624  0.2918  0.1395 -0.2989
27284W        W40698   8.160   7.460  11.569  0.0335  0.1089 -0.0446
27285W        W40699  16.349  13.446   1.673 -0.2347  0.1728 -0.0868
27286W        W40700   4.936  17.847  11.029 -0.0676  0.2599 -0.2483
27287W        W40701  11.088  15.490   4.902  0.3303 -0.0149  0.1447
27288W        W40702  13.970  18.383  15.914  0.1047 -0.3194 -0.2591
27289W        W40703   3.850  17.982   0.553 -0.0686  0.0643  0.2180
27290W        W40704  12.836   5.578   1.730 -0.1909  0.2011  0.1218
27291W        W40705   2.975  13.436  13.884 -0.0654  0.2409 -0.2531
27292W        W40706   0.191   7.948   0.032 -0.0130 -0.1800  0.0753
27293W        W40707  16.257  14.387   0.447  0.0528 -0.0031  0.0454
27294W        W40708  10.737  15.848  14.584  0.3173 -0.0109 -0.0499
27295W        W40709  12.738   4.220   4.480 -0.1761 -0.0574 -0.0971
27296W        W40710   9.847   3.484   2.951  0.3415  0.1080  0.1791
27297W        W40711   2.431  18.418   1.144 -0.0238  0.2446 -0.0716
27298W        W40712  14.972   1.474   1.322  0.0354 -0.1862 -0.1051
27299W        W40713   0.939  13.951   1.451  0.2214 -0.4003  0.1182
27300W        W40714   8.107   4.632  11.073  0.0384 -0.3751 -0.0940
27301W        W40715   3.560   0.066   2.434 -0.1209  0.3190  0.3762
27302W        W40716   9.082   6.983   0.868  0.0994  0.0677 -0.5301
27303W        W40717  15.243   0.588   5.309  0.1304  0.2358  0.3377
27304W        W40718  10.566   3.191  12.863 -0.0691  0.1043 -0.2549
27305W        W40719  16.470   5.358   0.852 -0.1304  0.0412 -0.3939
27306W        W40720  18.040   2.683  11.606  0.0842 -0.1637 -0.0367
27307W        W40721  13.660  12.877  15.877  0.1075 -0.1059  0.0302
27308W        W40722  10.906   1.752  13.017  0.0634  0.2108  0.0095
27309W        W40723  10.403   8.903   6.462  0.3218  0.1670 -0.0961
27310W        W40724   2.356  10.948   5.207 -0.0298 -0.0483 -0.1528
27311W        W40725   8.395   3.545  15.336  0.0141  0.1741  0.0237
27312W        W40726   0.694  12.339  12.907 -0.2993  0.6994 -0.2242
27313W        W40727  15.056  17.887   0.574  0.2318  0.0286  0.3403
27314W        W40728  15.142   9.835   2.581 -0.0398 -0.0033 -0.1618
27315W        W40729   6.924   3.748   2.943  0.0042 -0.1955 -0.0199
27316W        W40730   7.809   5.470  15.132  0.1246  0.0901 -0.1667
27317W        W40731   3.429  17.553  11.773 -0.3214  0.0467  0.1846
27318W        W40732  10.691   2.602   4.681  0.0573  0.0022 -0.1325
27319W        W40733   0.518  17.196  15.148  0.1130  0.1669 -0.1615
27320W        W40734  11.013  12.331   2.235  0.1090  0.1183 -0.2536
27321W        W40735   8.963   5.805   3.514 -0.0126  0.2070  0.2707
27322W        W40736  11.436  15.846  11.256  0.2963  0.0915  0.0808
27323W        W40737   0.467  10.964   0.053 -0.1225 -0.0255  0.0651
27324W        W40738  11.399  14.459  15.388 -0.0212 -0.0651 -0.2217
27325W        W40739  17.458  14.401  14.606  0.1075  0.0568  0.2029
27326W        W40740  16.204  13.280  14.374  0.0411  0.2161 -0.2836
27327W        W40741   8.734   8.945   4.899  0.1143  0.0018  0.0251
27328W        W40742   5.487  11.040   4.036 -0.2088 -0.3517  0.0464
27329W        W40743   2.779   1.370  12.193 -0.0809  0.2350  0.1343
27330W        W40744   2.291  15.174  12.869  0.1917  0.1089  0.0585
27331W        W40745   3.715  11.536   2.440  0.2558  0.1690  0.1817
27332W        W40746   6.494  15.641   5.749  0.1444 -0.0086  0.0162
27333W        W40747  11.869   0.255   3.026 -0.1519 -0.1783  0.3209
27334W        W40748   4.222   7.922   4.638  0.1159 -0.0137  0.2922
27335W        W40749   5.063   8.637  14.000 -0.0691 -0.0692  0.0314
27336W        W40750   0.886   5.167  11.867  0.1293 -0.3568  0.2070
27337W        W40751   4.620   7.465  13.801  0.3440  0.1132  0.0212
27338W        W40752  15.298  11.237   4.477 -0.0793 -0.0077 -0.2053
27339W        W40753   7.322  18.209   5.521  0.0641  0.0704 -0.1047
27340W        W40754  15.818   2.469   0.849  0.0173  0.0999  0.1403
27341W        W40755   4.383   6.053   3.861  0.1547  0.1830 -0.1817
27342W        W40756  10.525  13.478   4.084 -0.1076 -0.0558  0.0158
27343W        W40757   0.202  13.898   4.283 -0.2831 -0.0720  0.2194
27344W        W40758  17.422   2.469  12.843  0.2493  0.0844  0.2484
27345W        W40759  10.724   8.502   1.637  0.1780 -0.0156  0.0900
27346W        W40760   9.595   8.153   0.223  0.2748  0.0098 -0.1850
27347W        W40761   1.353   9.268  11.786 -0.0254  0.2378  0.0475
27348W        W40762  17.607   6.046  15.259 -0.1934 -0.0746  0.0524
27349W        W40763   4.429   9.950  12.112  0.0032 -0.1819 -0.0356
27350W        W40764   1.353  10.944   6.050 -0.2519  0.0685 -0.0988
27351W        W40765  16.290   0.156   0.027  0.2650 -0.0197 -0.1384
27352W        W40766  11.414  14.509  11.346  0.1333 -0.0174 -0.2633
27353W        W40767   2.920  18.271   4.564  0.2509  0.0498 -0.0615
27354W        W40768  11.990   9.933   4.703 -0.0218  0.0957  0.4571
27355W        W40769  12.359   2.427   5.472  0.0060  0.0833 -0.2591
27356W        W40770  18.333   0.880  14.950 -0.0505  0.0723 -0.0023
27357W        W40771  17.337  17.790  16.241  0.1765 -0.1157 -0.1128
27358W        W40772  15.551   5.107   0.846 -0.0938  0.2444 -0.1769
27359W        W40773  14.831   1.840  11.485  0.2737 -0.1291  0.1019
27360W        W40774   3.844   6.986   3.944  0.2969 -0.0404  0.5808
27361W        W40775  14.147  14.054  11.691 -0.2002 -0.1357 -0.3205
27362W        W40776   0.172  11.539  12.504  0.0432 -0.0681 -0.1657
27363W        W40777  13.567  14.394   0.749  0.0643  0.1387 -0.3051
27364W        W40778   9.402   1.939   5.781 -0.1261  0.0092 -0.2641
27365W        W40779   2.608   8.903   2.037  0.0342  0.1554  0.1257
27366W        W40780  13.974   5.343   1.643  0.2977 -0.1677 -0.0506
27367W        W40781   9.654  18.446  13.960 -0.0227 -0.0686  0.0919
27368W        W40782   1.757   8.406  13.598 -0.2927  0.0487 -0.1141
27369W        W40783  17.375   1.494  12.293  0.0118  0.3610 -0.0529
27370W        W40784  18.177   9.502  16.205  0.0468  0.0132 -0.2192
27371W        W40785  17.423   2.103  15.001 -0.0133 -0.2308 -0.0387
27372W        W40786   0.971   4.446   0.190  0.1509 -0.0318 -0.3757
27373W        W40787   6.767  16.614   3.975  0.0608  0.0726 -0.2058
27374W        W40788   7.465  14.431  15.532  0.2282  0.1168 -0.0259
27375W        W40789   5.721   3.556  10.776 -0.3315 -0.0955 -0.1400
27376W        W40790   2.912   6.503  12.246 -0.2870 -0.0414  0.3355
27377W        W40791   2.021   8.967   2.542  0.2919 -0.1013  0.0105
27378W        W40792   4.847  10.883  12.872  0.2970 -0.0516  0.0171
27379W        W40793  16.607  16.935   4.122  0.2126 -0.1933  0.1902
27380W        W40794  12.332   2.997  14.620 -0.2880 -0.0839 -0.1203
27381W        W40795  16.965   6.893  11.016 -0.1582  0.1154  0.2043
27382W        W40796   5.914   5.821   2.737 -0.1848 -0.1594 -0.0445
27383W        W40797   7.762  14.637   3.408  0.1835  0.1894 -0.0100
27384W        W40798  12.414   0.294  14.800  0.0260  0.1862  0.1335
27385W        W40799   6.396  14.360   1.127 -0.1082  0.2279  0.0035
27386W        W40800   0.523  14.907   5.977 -0.1939  0.1944 -0.2700
27387W        W40801  17.481  15.525  12.972 -0.0110 -0.1888 -0.1771
27388W        W40802  13.721   3.931   5.368 -0.0103 -0.3072  0.1428
27389W        W40803  13.685   4.214   2.969 -0.0603 -0.1766  0.2717
27390W        W40804   3.613  18.072   5.981  0.1030 -0.1750  0.2197
27391W        W40805   1.617  16.943  16.149 -0.1923  0.1294  0.1395
27392W        W40806  12.824  15.941  10.646  0.2054 -0.1061 -0.0283
27393W        W40807   0.834   1.128   1.290 -0.0278 -0.1592 -0.0113
27394W        W40808   3.513   0.293  15.507 -0.0110 -0.1048  0.2210
27395W        W40809   9.439  17.291  13.319  0.1444  0.1720 -0.2291
27396W        W40810  13.925  16.353   2.423  0.0810  0.0035 -0.1946
27397W        W40811   3.675  14.442  11.243 -0.2972  0.0362 -0.1005
27398W        W40812   4.871   4.445   3.397 -0.3475  0.2286  0.1361
27399W        W40813  14.031  17.855   2.844  0.2557  0.0033 -0.0345
27400W        W40814  15.619   9.469  11.414 -0.0278  0.1831 -0.3039
27401W        W40815  10.861   2.501   2.580 -0.1680  0.0536  0.0721
27402W        W40816  12.814   7.804   5.425 -0.1549  0.2504  0.2104
27403W        W40817   0.830  14.861   0.084 -0.1656  0.3639  0.0118
27404W        W40818   3.892   3.721  11.419 -0.1602  0.0598  0.1054
27405W        W40819   5.152  11.292  12.692 -0.3170  0.0003 -0.1570
27406W        W40820  12.129  11.914   5.274 -0.1528 -0.1671  0.0446
27407W        W40821  13.522   2.645   2.587 -0.3175  0.5350 -0.3286
27408W        W40822  15.778  14.505  10.235  0.1477  0.0470 -0.1214
27409W        W40823   1.331   8.342   3.933 -0.1623  0.0071 -0.1177
27410W        W40824  12.024   7.723   3.209  0.1187  0.0201  0.0575
27411W        W40825  16.411  11.052   5.410  0.0816 -0.0363 -0.0325
27412W        W40826   8.093  15.082  10.573 -0.0806 -0.2147  0.2211
27413W        W40827  18.175  10.337   5.828 -0.1357  0.0440 -0.0768
27414W        W40828   4.468   6.811   1.135  0.2276  0.0435  0.2383
27415W        W40829   9.066  17.197   1.348 -0.0683 -0.0038  0.3395
27416W        W40830  15.916  15.526  10.342 -0.0524 -0.0622  0.0769
27417W        W40831   0.580   5.776  12.710 -0.0690  0.1957 -0.2042
27418W        W40832  16.407   9.264  14.766 -0.1268  0.4338 -0.1348
27419W        W40833  16.677  10.425   2.030 -0.0020  0.1112  0.1081
27420W        W40834  12.477   7.874  12.406 -0.0698  0.3753  0.0934
27421W        W40835  10.441  10.189   4.184  0.3128  0.0096  0.2921
27422W        W40836   7.387   5.811   3.424  0.1512 -0.0002 -0.2189
27423W        W40837  14.752  15.977  12.668 -0.3568 -0.1888 -0.0576
27424W        W40838   8.493   4.788  10.751 -0.0436 -0.0797  0.3621
27425W        W40839  16.469   6.282   0.959  0.2455 -0.1608 -0.0651
27426W        W40840  17.438  12.631   5.077 -0.2569  0.0636 -0.0463
27427W        W40841   9.339   3.278   1.520  0.0197  0.0248 -0.1361
27428W        W40842   3.812   4.710  15.220  0.2370  0.0883 -0.2348
27429W        W40843   3.689  12.248   3.762  0.1340  0.2244  0.1251
27430W        W40844   7.259  11.617  15.219 -0.2441  0.3846 -0.0101
27431W        W40845  10.134  12.550  15.076  0.0196 -0.1523  0.0809
27432W        W40846   4.547   6.083  11.021 -0.2169  0.0370  0.3744
27433W        W40847   9.702  17.832   0.840  0.0980 -0.1055  0.2382
27434W        W40848  14.744   7.998  14.594  0.0420 -0.1247 -0.1585
27435W        W40849  11.881   7.545   0.062  0.2600 -0.2567  0.2863
27436W        W40850   3.593   6.372   4.851 -0.0658 -0.2009 -0.1062
27437W        W40851   0.583  15.896   1.643  0.0665 -0.2932 -0.1172
27438W        W40852  10.235   8.916   4.664 -0.3786  0.1750  0.5730
27439W        W40853   8.148  15.321  13.109 -0.0609  0.2413  0.0094
27440W        W40854   9.668  16.711  14.560 -0.2649  0.1485 -0.1376
27441W        W40855   4.540   4.551  11.129 -0.1022  0.0862 -0.1984
27442W        W40856   7.077  10.834  12.180 -0.0425 -0.0732 -0.1253
27443W        W40857   8.432   2.965  14.481 -0.1140  0.1210  0.1193
27444W        W40858  18.355  13.541  10.367  0.2915 -0.2462 -0.2458
27445W        W40859   1.814   6.217  14.995 -0.0313 -0.1727  0.1930
27446W        W40860   4.369   6.299   2.458  0.0550  0.2842 -0.2212
27447W        W40861   8.670  14.779   5.631 -0.2230 -0.0665  0.1480
27448W        W40862   8.582  17.666  15.965  0.1862 -0.1989 -0.1074
27449W        W40863   9.462  18.071   1.394  0.3041 -0.3372 -0.0681
27450W        W40864   8.124   0.231  13.122 -0.0923 -0.3432  0.1032
27451W        W40865   1.834  17.405   3.787 -0.1899 -0.0727  0.1852
27452W        W40866   3.726   7.515   1.958 -0.3854  0.1787  0.2071
27453W        W40867  17.375  10.905   0.729  0.0304 -0.4156  0.0293
27454W        W40868  17.044  11.082  13.672 -0.2219 -0.0010  0.3387
27455W        W40869   6.924  10.147  10.964  0.4125  0.2013 -0.1768
27456W        W40870   7.417   2.879  10.321  0.3594  0.1849  0.0287
27457W        W40871  15.767  12.190   5.275 -0.1101 -0.1007  0.0203
27458W        W40872   0.788  17.315   5.097  0.0819 -0.0414 -0.1727
27459W        W40873   6.590   7.743  12.234 -0.0148 -0.1302  0.3424
27460W        W40874   0.599  13.027  10.991 -0.0032 -0.0849  0.1632
27461W        W40875   4.639  16.899   5.312 -0.1493 -0.2123 -0.0549
27462W        W40876  12.622   9.033  14.326 -0.3989  0.0344  0.2580
27463W        W40877  17.203   8.577  14.318  0.1236  0.3046  0.1988
27464W        W40878   6.090  17.506   5.901  0.0931  0.2411 -0.0423
27465W        W40879   1.100  13.346   2.218 -0.0329  0.0997  0.1978
27466W        W40880   5.612   1.328  12.077  0.0162 -0.2147 -0.1584
27467W        W40881  11.298  13.849  14.155  0.0052  0.2301 -0.3780
27468W        W40882  10.480   3.347   0.849 -0.2187  0.0198 -0.1117
27469W        W40883   7.946   1.246   2.464  0.3167  0.0628  0.2973
27470W        W40884   4.707   2.795  14.016 -0.0821  0.3159 -0.2348
27471W        W40885   2.302   9.236  12.500  0.0010  0.0562 -0.2704
27472W        W40886   2.656  14.895  16.206 -0.2486  0.1559 -0.0176
27473W        W40887  17.481  14.231  12.350  0.2289 -0.1455  0.1220
27474W        W40888  18.403  15.517   4.124  0.0054  0.2374  0.0550
27475W        W40889   0.200  14.258   3.736 -0.2064  0.2127 -0.1531
27476W        W40890  15.829   2.707  15.563 -0.1193 -0.4446  0.1226
27477W        W40891   9.909  16.536   9.962 -0.1696  0.0722 -0.3262
27478W        W40892   4.946   6.852  10.663  0.1510 -0.0797  0.1516
27479W        W40893  14.141  11.113  10.119 -0.2617  0.1093 -0.0383
27480W        W40894   4.696   4.236   0.641  0.2449 -0.1873  0.1742
27481W        W40895   2.498  14.960  13.759  0.0100 -0.2342 -0.0853
27482W        W40896   4.681   8.556   3.062  0.1374 -0.1328 -0.1015
27483W        W40897  14.301   5.512   1.205  0.1272  0.0125 -0.1707
27484W        W40898  15.821   1.089   2.830  0.0535 -0.0926  0.3022
27485W        W40899  17.093   2.451   3.412 -0.1671 -0.1402 -0.1130
27486W        W40900  14.206  14.083  15.780  0.2312  0.2431  0.2565
27487W        W40901  13.989  11.825  12.413  0.1169 -0.0169 -0.0109
27488W        W40902  18.029   6.175  13.486 -0.1685  0.3487 -0.1985
27489W        W40903  16.824   2.520   2.118  0.0695  0.1456 -0.1668
27490W        W40904  15.964   9.052  13.771  0.3248 -0.1120 -0.0213
27491W        W40905   9.506  13.386   1.878  0.1691  0.2263 -0.0804
27492W        W40906   7.345   4.170  10.404 -0.0549 -0.1252 -0.0269
27493W        W40907   5.444  17.090   2.334  0.2901 -0.1037 -0.0738
27494W        W40908  11.922  15.144   0.433 -0.3312  0.1839  0.0096
27495W        W40909   8.558   5.503  11.350  0.3006 -0.2875  0.0164
27496W        W40910   2.165   7.156  13.676  0.2385  0.0411 -0.2967
27497W        W40911  14.259   3.957   1.380  0.1091 -0.1221 -0.2007
27498W        W40912   3.098   9.254  15.042  0.1614  0.1162 -0.0784
27499W        W40913   8.866   4.263  15.534  0.0031  0.2578  0.1159
27500W        W40914  17.093  12.184   2.518 -0.2348  0.1895 -0.0702
27501W        W40915  11.792   3.133   0.657  0.0881 -0.2221  0.0182
27502W        W40916   5.005   1.798   5.032  0.1204 -0.1316 -0.1014
27503W        W40917  13.677   2.475   0.550  0.0404 -0.0318  0.0358
27504W        W40918   4.093   3.664  14.024 -0.2348  0.0551 -0.1231
27505W        W40919   4.567  10.575  13.555 -0.0962 -0.1524 -0.2344
27506W        W40920   6.642  11.498  11.066 -0.1026  0.0629 -0.1558
27507W        W40921   1.845  15.560   0.781  0.0947  0.1572  0.0984
27508W        W40922   6.139   4.249   1.937  0.0428  0.1760 -0.1427
27509W        W40923   9.715  10.163  12.024 -0.2776  0.4438  0.1295
27510W        W40924  15.039   7.494  15.032  0.0904 -0.2870  0.0006
27511W        W40925   4.219  15.709  11.707  0.0658 -0.0037  0.3872
27512W        W40926  15.500   6.526   0.471  0.1928 -0.2806  0.0660
27513W        W40927  10.565  16.639  11.614  0.1164  0.0540 -0.3099
27514W        W40928  12.446   5.008   3.119 -0.0375  0.1590 -0.1331
27515W        W40929  16.104   9.316   4.237  0.1226 -0.1035  0.0691
27516W        W40930   4.903  16.650  12.662  0.1356 -0.0470  0.0797
27517W        W40931  10.018  12.665  11.607 -0.0038  0.0028 -0.2326
27518W        W40932  10.698   0.653  15.189 -0.0747 -0.1444 -0.3935
27519W        W40933  11.846  11.308   2.221 -0.2572  0.0045 -0.0620
27520W        W40934  18.196  17.449   2.871  0.0457 -0.1390 -0.2558
27521W        W40935   1.177   2.953  15.051  0.3538 -0.1196  0.1143
27522W        W40936   4.203  10.551   1.539  0.0537 -0.0002 -0.0508
27523W        W40937   8.542   7.863  11.177  0.0811 -0.2280  0.0201
27524W        W40938  10.528   0.877   6.138 -0.0083  0.0345 -0.0690
27525W        W40939   4.191   8.694   1.737  0.1599  0.3595  0.0065
27526W        W40940  11.955   4.743  11.790  0.3628  0.1611  0.1042
27527W        W40941   2.446   0.161  11.244 -0.2620  0.3941 -0.1901
27528W        W40942   6.187  12.514  13.039 -0.0793 -0.2211  0.2298
27529W        W40943  10.264   5.356   2.893 -0.2310  0.1748 -0.0845
27530W        W40944  11.154  16.807  10.425  0.2012 -0.2780  0.1252
27531W        W40945  15.510  15.845   4.462 -0.1459 -0.0305 -0.0479
27532W        W40946   3.513  12.642  15.352 -0.0139 -0.1435 -0.0205
27533W        W40947  14.487   6.293   2.703 -0.2026 -0.1514 -0.0812
27534W        W40948  18.163   9.462   5.562 -0.1007 -0.2674 -0.1129
27535W        W40949   5.428  14.982  12.386  0.0927  0.2834 -0.0907
27536W        W40950   3.964  11.770  15.042  0.2989 -0.0273 -0.0526
27537W        W40951   3.550   9.119   5.427 -0.1228  0.2396  0.1949
27538W        W40952   2.969   0.054   1.532  0.0000  0.0208  0.0478
27539W        W40953  10.622  16.052  12.230  0.0085 -0.0811  0.1525
27540W        W40954   2.919   6.572  16.107 -0.2029 -0.2162 -0.2065
27541W        W40955   6.305   2.067   0.529  0.1191 -0.0174 -0.4532
27542W        W40956   1.392  13.314   4.929  0.1349 -0.0806 -0.1438
27543W        W40957  13.560  15.379  15.258 -0.2782 -0.1501  0.3161
27544W        W40958  10.378  17.098   4.524 -0.0918 -0.0422 -0.0792
27545W        W40959  14.474   0.084   1.385 -0.1568 -0.2305 -0.1825
27546W        W40960  16.016  12.222   0.464 -0.2564  0.1412 -0.0069
27547W        W40961  10.199  15.696   4.374 -0.0804  0.1258 -0.0982
27548W        W40962  11.437   3.705  15.758 -0.0032 -0.0326  0.2883
27549W        W40963  17.631  12.251   1.796 -0.0529  0.1029  0.3612
27550W        W40964   6.018   0.918  15.739 -0.2416 -0.2546 -0.0219
27551W        W40965   5.891  16.726  15.084  0.0307 -0.1707  0.1097
27552W        W40966  15.135  16.262   3.732  0.2682 -0.0889  0.3082
27553W        W40967   4.909   1.343   5.252 -0.0884 -0.2313 -0.3360
27554W        W40968   3.917   5.434  14.169 -0.0790 -0.1681  0.0657
27555W        W40969  10.759  16.259  12.647 -0.3882 -0.1974 -0.3495
27556W        W40970   0.851   4.812   4.272  0.0385 -0.0908  0.0122
27557W        W40971   6.696   3.094  11.551  0.2486  0.2879  0.0852
27558W        W40972  14.485  12.170   2.753  0.1641 -0.0898  0.2553
27559W        W40973   8.912  10.788  14.791  0.1875 -0.0838  0.0107
27560W        W40974  18.148  10.611  14.817  0.2811 -0.0865  0.0127
27561W        W40975   5.866  11.157   5.940 -0.0663 -0.3132 -0.1230
27562W        W40976  18.396   7.098  14.089 -0.2314 -0.1700 -0.1237
27563W        W40977  15.513   7.758  11.263 -0.0704  0.1190 -0.0410
27564W        W40978  14.510  11.555  10.714  0.0724  0.0309  0.1108
27565W        W40979  13.142  10.994   5.859  0.2392  0.1430 -0.1352
27566W        W40980   0.993   0.196  13.466 -0.1944  0.3299  0.1396
27567W        W40981   7.164   4.960  15.739  0.0479  0.0901  0.0384
27568W        W40982  11.212   6.868   5.787 -0.1400  0.2040 -0.1267
27569W        W40983   1.959  15.851   4.683  0.2685 -0.1084 -0.0455
27570W        W40984  14.850   0.582  15.958 -0.0827 -0.1121 -0.1274
27571W        W40985  16.703  17.321   0.482  0.0963  0.2614 -0.3285
27572W        W40986   8.068   7.933  11.345 -0.0718 -0.0440 -0.2275
27573W        W40987  14.113   0.672   2.450 -0.3083 -0.2843 -0.2307
27574W        W40988   5.430   4.528   2.710  0.3460  0.1302 -0.3217
27575W        W40989   3.894   0.838   0.368 -0.0341 -0.0838 -0.0232
27576W        W40990  11.290   9.007  15.650  0.0119 -0.1535  0.2245
27577W        W40991   3.667   7.838   1.584  0.0346 -0.2318  0.0802
27578W        W40992  14.397   2.201  14.984 -0.2283  0.1270 -0.0767
27579W        W40993  13.851  14.695   5.269 -0.1430 -0.0900 -0.0183
27580W        W40994  13.873   2.112  15.895 -0.0846  0.1369  0.0156
27581W        W40995  18.221   3.848  13.617 -0.1559  0.0400 -0.0431
27582W        W40996   1.503   1.613  14.939  0.1538  0.0227 -0.0728
27583W        W40997  14.812  13.205   5.000 -0.0139  0.0190  0.2676
27584W        W40998  15.874  15.124   1.974  0.0409 -0.0869 -0.0494
27585W        W40999   9.953   3.859   1.166 -0.0195 -0.3946  0.2431
27586W        W41000   7.330  12.352   0.887 -0.1351  0.1360 -0.1601
27587W        W41001  15.684   6.892   0.210  0.1553  0.1804  0.2906
27588W        W41002   1.772  11.798  10.577 -0.1117  0.2818  0.1965
27589W        W41003   1.990   0.249   3.039 -0.3149  0.0343  0.0902
27590W        W41004   9.024  15.715  10.681 -0.3992 -0.6023 -0.0853
27591W        W41005  13.776  12.608   0.090  0.1605  0.2214 -0.0106
27592W        W41006  10.802  14.533  11.990  0.1452  0.3240 -0.0709
27593W        W41007  12.915   2.318   1.369 -0.0206 -0.0455  0.1803
27594W        W41008  12.864  14.316   2.639 -0.0928  0.0877  0.3680
27595W        W41009   2.039  18.372  13.052 -0.1502 -0.0134  0.2602
27596W        W41010   0.207   3.869  11.102 -0.3675  0.1644  0.2868
27597W        W41011  15.856   5.505  14.931 -0.0994 -0.3504  0.0220
27598W        W41012  10.550   0.448   3.027  0.0669  0.1075 -0.2373
27599W        W41013  13.905   2.775   2.936 -0.0647 -0.0728 -0.0604
27600W        W41014   3.968   5.443  12.713  0.1022 -0.2521 -0.2173
27601W        W41015   2.777   6.335   2.544 -0.0603 -0.2913  0.2133
27602W        W41016   0.618  15.655  15.108 -0.0809 -0.1491 -0.2515
27603W        W41017  10.141   6.863   3.934 -0.0293 -0.2906 -0.0047
27604W        W41018   7.613  12.836  14.292  0.3171  0.1454 -0.0657
27605W        W41019  16.088  12.863   0.926  0.0257 -0.0248  0.1532
27606W        W41020   2.307   4.112  15.808 -0.2321 -0.1620  0.0358
27607W        W41021  10.210   8.277  15.168  0.2474  0.3920 -0.0314
27608W        W41022   8.997  15.200   1.249  0.1739  0.0655  0.1808
27609W        W41023  18.124   8.807   3.236  0.1332 -0.1248  0.1851
27610W        W41024   9.141  16.177   3.079 -0.1476 -0.0311  0.3059
27611W        W41025   8.993  14.566   4.847  0.3246  0.2157 -0.0030
27612W        W41026  14.657  16.105  14.335  0.0901  0.1308 -0.1846
27613W        W41027   3.172   3.661   4.256 -0.0739 -0.0849 -0.2700
27614W        W41028   2.468   3.472  13.267 -0.0306  0.3181  0.1468
27615W        W41029  13.376  16.491  14.013 -0.1914  0.0740  0.1203
27616W        W41030  11.582  11.493   0.532  0.1473  0.1986 -0.0892
27617W        W41031   9.925   8.943   1.466  0.0228  0.2173  0.0447
27618W        W41032  14.524   1.840  14.684  0.3459  0.0022  0.1245
27619W        W41033  17.601   3.364   2.106 -0.0177 -0.1600 -0.3859
27620W        W41034   2.434  11.074   3.894  0.1241 -0.0788  0.2089
27621W        W41035  12.600   0.794  11.745 -0.1815  0.3860  0.2452
27622W        W41036   5.832   2.628   4.274 -0.0275 -0.1606 -0.3438
27623W        W41037   0.721   3.132  15.183 -0.0679 -0.1742 -0.2681
27624W        W41038   0.709  11.426  13.354  0.0902 -0.0768 -0.0922
27625W        W41039   4.917  12.684   2.376 -0.1471  0.0625  0.4555
27626W        W41040   3.873   5.624  16.055 -0.0940 -0.4387  0.0070
27627W        W41041  12.906   4.741   2.293  0.1281  0.1180 -0.3926
27628W        W41042   3.835  15.211  15.792  0.0402  0.1675 -0.0008
27629W        W41043  12.341   4.404  15.126 -0.1330  0.2713 -0.0292
27630W        W41044  18.247  16.682  11.457  0.0246  0.2746  0.0640
27631W        W41045  16.018   3.806   4.992 -0.2626 -0.4876  0.1536
27632W        W41046   3.404  10.049  11.469  0.2254  0.1473  0.0710
27633W        W41047  14.802  18.272   3.559 -0.2239 -0.0242 -0.1725
27634W        W41048  14.112  10.330   2.789  0.0861  0.5056 -0.0548
27635W        W41049  14.250   9.779   6.037 -0.0209  0.3885 -0.1763
27636W        W41050   7.984   1.645  12.301  0.1552  0.1267  0.1487
27637W        W41051  12.134   6.737  15.297 -0.1897  0.4505 -0.0114
27638W        W41052   7.047   1.568   3.814 -0.0119  0.2633  0.0809
27639W        W41053  10.952   2.551  16.088  0.1734  0.0671 -0.1359
27640W        W41054  13.569  16.522   5.495  0.1133  0.2004  0.1303
27641W        W41055   0.656   0.322  10.128 -0.0293  0.0055 -0.3195
27642W        W41056   7.800  10.010  13.955  0.2240 -0.2026 -0.1341
27643W        W41057   0.694   4.180   0.562 -0.0374  0.1490  0.0688
27644W        W41058   9.996  12.348  15.528  0.3022 -0.0268  0.2581
27645W        W41059  11.362   2.199  15.453 -0.0203  0.1334  0.0523
27646W        W41060  13.546  12.664   2.614  0.3994  0.1154  0.0541
27647W        W41061   8.292   1.464   4.107  0.0319  0.0097  0.1740
27648W        W41062  10.834  16.201  11.527 -0.1560  0.2944 -0.0228
27649W        W41063  11.269  16.831   3.755  0.2172 -0.0889  0.1001
27650W        W41064   0.295  17.259   6.099 -0.3409 -0.3935  0.0233
27651W        W41065  16.383  16.717   3.313 -0.4052  0.1713  0.2802
27652W        W41066   7.389   7.093   3.476  0.2247 -0.1743 -0.0062
27653W        W41067  12.214  12.330   2.422 -0.3801  0.1839 -0.1874
27654W        W41068  18.162  15.391  12.412  0.1705  0.1790  0.1404
27655W        W41069  11.151  14.134  15.176 -0.0284 -0.0561  0.1104
27656W        W41070   3.089  13.299  10.707 -0.0761  0.2120  0.0408
27657W        W41071  18.378  18.413   1.240 -0.0563  0.0925  0.0494
27658W        W41072  12.128  13.757   1.856 -0.1745 -0.1172 -0.0971
27659W        W41073   9.937   0.873   3.035 -0.2239  0.2189 -0.0781
27660W        W41074   6.263   8.140  10.988 -0.1418  0.1410 -0.1416
27661W        W41075   9.002   9.805  13.349 -0.0508  0.2462 -0.1002
27662W        W41076   3.184  16.614  14.973  0.0068  0.0334  0.2097
27663W        W41077   8.803  11.173  13.590  0.0767 -0.0884  0.0461
27664W        W41078   2.903   9.567  14.043 -0.1780  0.2905  0.0842
27665W        W41079  16.198   9.570  12.800 -0.1266 -0.2468  0.2320
27666W        W41080   7.343  13.638   1.388  0.1479 -0.0357 -0.1987
27667W        W41081  10.973  12.341   3.219 -0.0102 -0.0533 -0.3008
27668W        W41082   2.737  11.464   2.051 -0.0854  0.0569  0.1372
27669W        W41083   3.290   5.613   1.773 -0.1241 -0.3316 -0.0237
27670W        W41084   4.298  11.003  12.887 -0.2899 -0.1974  0.4154
27671W        W41085   9.615  11.165   4.450  0.0116  0.4442 -0.1192
27672W        W41086  15.740   5.154  11.062 -0.1539 -0.0694 -0.1984
27673W        W41087  15.136   6.397   2.749 -0.0277 -0.1071  0.2102
27674W        W41088  12.213  11.552   1.313 -0.0211 -0.0248  0.0832
27675W        W41089  12.149   6.786   3.811  0.2494  0.3041  0.2136
27676W        W41090   5.481   5.879   5.485 -0.1276  0.1921  0.0415
27677W        W41091   8.024  14.274   0.003  0.0629 -0.4173  0.0514
27678W        W41092  17.249  17.210  10.435  0.0853 -0.2992 -0.0156
27679W        W41093  12.345  11.401   5.076 -0.3352 -0.0181 -0.0094
27680W        W41094  10.290   8.697   4.136  0.0775  0.0641 -0.0447
27681W        W41095   6.216  10.935  11.676  0.0423  0.1139 -0.1085
27682W        W41096   1.995  14.073   2.257  0.0355 -0.0152 -0.1083
27683W        W41097   1.704   2.076   5.699  0.1039  0.1072  0.1081
27684W        W41098   5.276   4.107   3.340 -0.0033  0.0467 -0.0394
27685W        W41099   1.143  12.558   2.683  0.0280 -0.3231  0.1051
27686W        W41100   4.970  15.274  12.175 -0.1882  0.1060  0.5578
27687W        W41101   0.243  11.484  10.421 -0.5545  0.2714 -0.1036
27688W        W41102   9.665   2.570  10.195  0.1540  0.2192  0.2399
27689W        W41103  14.906   5.732  12.044  0.3780 -0.4229  0.1530
27690W        W41104   8.702  10.871  10.553 -0.4366  0.1151 -0.2740
27691W        W41105   9.254   5.580   1.055  0.0922  0.0157  0.2595
27692W        W41106   9.342  17.758  10.885  0.2409  0.2741  0.0410
27693W        W41107   5.864  16.886   3.214 -0.3844  0.1346 -0.2440
27694W        W41108   6.178  12.431   2.314  0.1009  0.0100 -0.3177
27695W        W41109  16.366  14.816   3.783 -0.1151 -0.0894  0.0709
27696W        W41110  13.231   1.356   0.064  0.0258 -0.1009  0.0000
27697W        W41111  14.421  12.272   4.561 -0.4667  0.1353 -0.0824
27698W        W41112   1.709  11.171  10.912  0.2183 -0.2030 -0.1039
27699W        W41113  11.326   3.323  12.650  0.0851  0.1401  0.3321
27700W        W41114  17.888   7.537  12.538 -0.2336  0.2055  0.1588
27701W        W41115   3.651   4.804  12.266 -0.1339  0.1180 -0.1638
27702W        W41116   7.512   8.785  10.863 -0.1376 -0.0373 -0.3220
27703W        W41117  13.440   0.880   0.212  0.0795  0.2545  0.3004
27704W        W41118  12.164   5.807   5.603 -0.0306 -0.2050  0.2652
27705W        W41119  10.837  17.920  14.884  0.1098  0.2204  0.1453
27706W        W41120   6.848   8.836   3.192 -0.1065 -0.1262 -0.1059
27707W        W41121  13.270   0.899  10.415  0.1275 -0.0724 -0.0766
27708W        W41122   9.607  12.577   0.877 -0.0721  0.3253  0.1025
27709W        W41123   4.950  15.157   0.547  0.2447 -0.1158  0.1022
27710W        W41124  18.288   4.328  12.634  0.2393 -0.0870 -0.0047
27711W        W41125   6.702  18.191   4.413 -0.2958  0.1498 -0.2168
27712W        W41126   4.532  10.606   2.928  0.3402  0.0167 -0.0318
27713W        W41127  12.531  12.813   1.249  0.1093 -0.0268 -0.0395
27714W        W41128   9.644   7.753   3.943 -0.2753 -0.0135  0.3928
27715W        W41129  15.601  17.384  12.727 -0.3937  0.1494  0.0291
27716W        W41130  17.924  17.186  15.425 -0.0119 -0.1921 -0.1318
27717W        W41131   4.430   5.375  14.650  0.0619  0.2207 -0.2912
27718W        W41132  15.135   8.959   0.882 -0.2995 -0.0233  0.0524
27719W        W41133   5.721   7.682  10.776  0.1752  0.0650 -0.0588
27720W        W41134  10.752  16.047  15.070  0.0222  0.1437  0.1627
27721W        W41135   2.298   0.424   0.987  0.0576 -0.1091  0.0039
27722W        W41136   2.571  16.110  14.736 -0.0321  0.1873  0.2481
27723W        W41137   7.054  17.857   0.335 -0.2565  0.3509 -0.0951
27724W        W41138   2.157   7.912  15.652  0.2822 -0.2021  0.1415
27725W        W41139  13.248   7.385   4.412  0.0465  0.5573  0.1072
27726W        W41140  17.398  18.209   1.928 -0.0725  0.0592 -0.0251
27727W        W41141  14.220   8.492  15.702 -0.0540 -0.0153  0.3166
27728W        W41142  11.684  17.399  16.055 -0.3981 -0.0146  0.2659
27729W        W41143   1.762  16.743   3.605  0.3234 -0.2506  0.0280
27730W        W41144   3.591   9.170   4.751  0.2950  0.0892 -0.1793
27731W        W41145  17.170  10.211   4.628 -0.2640 -0.1144 -0.0372
27732W        W41146   3.801  17.668   5.256  0.0412  0.2953 -0.3352
27733W        W41147   7.445  16.063   5.955 -0.2314 -0.0530  0.2565
27734W        W41148   1.937  12.005  12.005  0.1887  0.0592  0.1059
27735W        W41149   9.237   8.874  12.446  0.3356  0.0408  0.1582
27736W        W41150  17.386  16.110   1.044 -0.1090 -0.1455  0.1293
27737W        W41151   4.632   4.667   2.337 -0.0709  0.1397 -0.3045
27738W        W41152  10.539  16.833   1.013 -0.0589  0.0015 -0.2387
27739W        W41153  16.205   2.188  12.293  0.3176 -0.1307  0.1617
27740W        W41154  17.010   7.985   0.174  0.0969 -0.1341 -0.3297
27741W        W41155  12.975   1.304   4.108  0.1261  0.0417 -0.0296
27742W        W41156  14.735  15.487   4.567 -0.4032  0.1847 -0.1611
27743W        W41157  11.650  12.405   2.434  0.1212 -0.0925  0.0265
27744W        W41158   4.026  15.639  15.799  0.0281 -0.1170 -0.1831
27745W        W41159   7.991   1.762  10.203 -0.2371  0.0642 -0.0302
27746W        W41160  13.831   4.723   3.757 -0.0132 -0.0688  0.0941
27747W        W41161  12.182  13.381   9.974 -0.1594 -0.0916 -0.0206
27748W        W41162  15.639   7.595   3.936  0.0128  0.0354 -0.2279
27749W        W41163   0.535  14.280   3.315 -0.1112 -0.0884  0.2106
27750W        W41164   8.456   3.138  14.968  0.1754 -0.0985  0.1117
27751W        W41165  18.384   6.513  11.763 -0.0841  0.1365 -0.2027
27752W        W41166   4.734   1.766  15.023 -0.1011 -0.0783  0.0376
27753W        W41167  18.320   7.240   3.511  0.0137  0.0832 -0.2939
27754W        W41168   1.271   1.573  13.249  0.0039 -0.3072  0.3235
27755W        W41169   6.209   1.570   5.727 -0.1389 -0.0577 -0.2128
27756W        W41170   0.890  10.280  10.430 -0.0686 -0.1744 -0.0049
27757W        W41171  10.049   0.642   0.168  0.0086  0.0776 -0.1155
27758W        W41172  13.358   1.819   3.877  0.1277  0.2645 -0.0312
27759W        W41173  14.240  12.988   0.854  0.3582 -0.1748  0.1208
27760W        W41174   7.476   0.620  13.515 -0.3479  0.0515 -0.1939
27761W        W41175  11.393   9.995   2.750 -0.1799  0.1643 -0.2375
27762W        W41176  10.458   3.825   0.670 -0.1588 -0.0426  0.0840
27763W        W41177  14.602  17.156  11.528  0.1262 -0.1070 -0.1666
27764W        W41178   8.950   7.701   5.652 -0.0594  0.0292 -0.1256
27765W        W41179   9.513   3.088  11.278 -0.2238  0.0968  0.0722
27766W        W41180  13.091  14.604   0.453 -0.3970 -0.3382 -0.0657
27767W        W41181  10.920   3.455   2.667  0.1091  0.0623 -0.0540
27768W        W41182  13.578  11.569   4.384 -0.1037 -0.5041  0.2396
27769W        W41183  13.333   1.736  11.731 -0.0392 -0.1753 -0.3351
27770W        W41184  11.121  15.751  10.253 -0.0551 -0.0624  0.3287
27771W        W41185  12.641   1.435  14.737 -0.0897 -0.2046 -0.1429
27772W        W41186   4.552  15.023   2.055  0.1183 -0.0647 -0.0156
27773W        W41187   0.524  10.240   2.877 -0.3458  0.0307  0.2563
27774W        W41188   9.722  16.303  10.865 -0.3271  0.1672  0.0844
27775W        W41189   1.073  15.527   3.588  0.1006  0.2019 -0.1413
27776W        W41190  14.340  12.952   1.610  0.1656  0.2850 -0.4146
27777W        W41191   5.919  13.894   5.081  0.1059  0.0879 -0.0301
27778W        W41192  11.606  14.668   3.987  0.0158 -0.0605 -0.2087
27779W        W41193  12.619   4.671  14.384 -0.2670 -0.1356 -0.0671
27780W        W41194   5.189  10.873  15.291  0.3821 -0.0423 -0.2351
27781W        W41195   0.331   8.167   0.453 -0.3960 -0.1899 -0.1615
27782W        W41196  12.988   4.558  13.487 -0.0619  0.0098  0.0497
27783W        W41197  17.003  10.061   1.908 -0.0736 -0.0260 -0.2629
27784W        W41198   2.744   7.201  15.396 -0.0593  0.3795 -0.3408
27785W        W41199  13.412  15.926  16.131  0.2217 -0.1511 -0.1011
27786W        W41200   4.286  11.284  15.140  0.1307  0.1484  0.2058
27787W        W41201   0.493  11.019  15.401  0.0815 -0.0565  0.1161
27788W        W41202   3.411   0.271   1.626 -0.0622 -0.0430  0.1483
27789W        W41203  13.944  13.974   0.226 -0.1133  0.1492 -0.3504
27790W        W41204   0.212  15.268   5.534  0.0670 -0.3531  0.1211
27791W        W41205   4.549  10.164   1.535  0.1537  0.2244  0.1705
27792W        W41206  17.152  17.984  14.031  0.2874 -0.2120 -0.0977
27793W        W41207   6.459  16.133  14.725  0.0750 -0.0377  0.1558
27794W        W41208   3.297   3.220   4.572 -0.0303 -0.0510  0.1538
27795W        W41209  14.257   9.766  11.852 -0.1298  0.2411 -0.0520
27796W        W41210  12.253   1.216  15.039 -0.1891  0.0975 -0.2243
27797W        W41211   8.624   1.548  10.967  0.0018 -0.3865  0.1585
27798W        W41212   1.261  13.029   5.929  0.1841 -0.1383 -0.0473
27799W        W41213   9.712  16.781  11.151 -0.1989 -0.2356  0.2696
27800W        W41214   0.207  12.588   3.518  0.0985  0.3607  0.0085
27801W        W41215   8.012  15.546  10.129 -0.0681 -0.2895 -0.1669
27802W        W41216   5.323   8.775  15.962 -0.0501 -0.3483 -0.2119
27803W        W41217   6.421  17.268   0.483 -0.2389 -0.0108  0.1628
27804W        W41218  18.295   4.761   5.825  0.0615  0.0245 -0.0373
27805W        W41219  17.920  14.596   1.615  0.0874 -0.1593 -0.0393
27806W        W41220   1.276   0.463   6.883  0.0597 -0.0979 -0.1426
27807W        W41221  14.930  17.964   2.705  0.0301 -0.1412  0.0481
27808W        W41222  12.893  18.361  12.834 -0.0672 -0.3245 -0.1913
27809W        W41223  16.872  13.019   3.273 -0.0638  0.1586 -0.3472
27810W        W41224   4.081   9.730  14.416  0.2721  0.3240 -0.0460
27811W        W41225  11.117   5.215   0.361 -0.0227  0.3904  0.1163
27812W        W41226   0.253   5.544   5.648 -0.1504 -0.3238  0.0475
27813W        W41227   3.341  15.663  12.606  0.0342  0.0900  0.1049
27814W        W41228   2.230   6.528   1.951  0.1286  0.0832  0.0336
27815W        W41229  14.679  18.439   0.867 -0.0835  0.0316 -0.1201
27816W        W41230   9.256  17.766  10.349 -0.0089  0.2056  0.0547
27817W        W41231  18.029  12.207   1.455  0.0173  0.0908 -0.2915
27818W        W41232   3.990  11.045  10.085  0.1615 -0.1957 -0.1534
27819W        W41233  10.092  14.096  11.528 -0.1037 -0.0885  0.4328
27820W        W41234  15.663   8.334  15.409 -0.1954 -0.0199 -0.0997
27821W        W41235  11.551   2.842  12.115 -0.1708  0.1987 -0.0930
27822W        W41236   7.730  12.338  12.942  0.1011 -0.2871  0.1469
27823W        W41237  16.717   6.258  14.928  0.1602  0.0102  0.1349
27824W        W41238   6.144  12.412   3.020 -0.0125 -0.4949 -0.1009
27825W        W41239   1.171  13.537  12.322 -0.1604  0.2306 -0.1484
27826W        W41240   9.729  16.704  13.992 -0.1838  0.0013  0.1432
27827W        W41241  12.261  17.588  13.307 -0.1448  0.2402  0.1093
27828W        W41242  13.284  18.001  11.488 -0.5997  0.2057  0.0839
27829W        W41243  12.400   8.561   3.238  0.1047  0.1744  0.3359
27830W        W41244   8.981   7.428  11.127  0.3191 -0.0525  0.1729
27831W        W41245   3.854   5.622   0.903 -0.0600  0.0332 -0.0028
27832W        W41246   2.744   8.504   4.751  0.1645 -0.2385  0.1405
27833W        W41247  10.313  15.651   9.917  0.0148 -0.0505  0.0194
27834W        W41248   7.120  16.710   4.879  0.0497  0.3717  0.3646
27835W        W41249  12.663   4.560   3.265 -0.0742 -0.1135  0.2680
27836W        W41250  15.434  15.021   3.284 -0.3714 -0.0018 -0.0426
27837W        W41251  10.546  12.253  12.539  0.1629 -0.1119 -0.2421
27838W        W41252  16.369  11.862   0.370  0.1377 -0.0748  0.1783
27839W        W41253  15.008   6.125   5.789  0.1263  0.0931 -0.1039
27840W        W41254   3.609   0.675  10.442  0.3203  0.0455  0.4899
27841W        W41255  15.851  17.261   3.985 -0.1175 -0.0942  0.3204
27842W        W41256  11.676  11.212  13.724  0.0762 -0.1299  0.2439
27843W        W41257   2.061  13.166   2.635 -0.0211  0.0693 -0.2152
27844W        W41258   4.948  10.267   3.687 -0.2410  0.5398  0.2611
27845W        W41259   3.196  16.288  15.909 -0.0318 -0.3979 -0.0937
27846W        W41260   6.256   5.674  13.139 -0.0941 -0.1269 -0.0300
27847W        W41261  13.941  15.700  13.013  0.0189 -0.1968  0.0883
27848W        W41262   5.651   2.169   0.667  0.1386  0.2305  0.2352
27849W        W41263  13.973   1.720  10.350  0.0762  0.0543 -0.0579
27850W        W41264  11.108   3.391  11.551  0.0384 -0.1445 -0.2307
27851W        W41265   2.165  14.826   3.682 -0.1966 -0.1434 -0.0513
27852W        W41266   3.380  15.044  13.326  0.1701  0.1933 -0.2394
27853W        W41267   0.727  10.234  10.927 -0.2604  0.1458  0.0990
27854W        W41268   6.398   7.247  14.660  0.1570  0.2119 -0.0635
27855W        W41269   3.296   6.123  10.764  0.1073 -0.2901  0.0195
27856W        W41270   3.257  12.315   3.507 -0.1192 -0.2075  0.2410
27857W        W41271   7.448   9.858  13.609 -0.0988  0.1913  0.2865
27858W        W41272   3.482   1.557   4.030 -0.2947 -0.2077 -0.0384
27859W        W41273   7.950   1.688   0.850  0.0385  0.2699  0.1625
27860W        W41274  15.017  12.542  15.849  0.2691  0.0349  0.3916
27861W        W41275  18.040   1.157  12.627 -0.2218  0.0716 -0.1564
27862W        W41276   8.569   5.480   3.650  0.1756  0.4464 -0.0119
27863W        W41277   4.169  12.628  10.575  0.3385  0.0631  0.0557
27864W        W41278   1.544   0.026   3.037  0.2869 -0.0168 -0.3048
27865W        W41279  15.799   9.166  11.873  0.1514  0.1142  0.0334
27866W        W41280   4.162  15.442  14.397  0.1144 -0.0607  0.0596
27867W        W41281   6.971   9.969  13.605 -0.0550 -0.0695 -0.2533
27868W        W41282   2.427  18.345   2.963 -0.2419  0.0585  0.0572
27869W        W41283  15.483  13.424  16.015  0.0917  0.2376  0.1202
27870W        W41284   5.181   2.116   3.306  0.3386 -0.4944 -0.1979
27871W        W41285  11.089  13.761  12.194 -0.0659  0.2123 -0.2171
27872W        W41286   7.979  16.678   5.164  0.5533  0.0792 -0.0745
27873W        W41287   1.875  14.011   1.213  0.1373 -0.0573  0.0989
27874W        W41288   3.794   9.447  13.844 -0.2732  0.2184  0.0813
27875W        W41289  16.706   0.373   6.239  0.0014  0.1929  0.0169
27876W        W41290   5.127  13.821   0.938  0.2184 -0.1949  0.3031
27877W        W41291  15.283  17.982  14.777  0.0525  0.2171  0.0723
27878W        W41292   9.873  16.866   4.715  0.2576  0.0330  0.0492
27879W        W41293  17.907   6.818  12.138  0.1566  0.0703  0.1981
27880W        W41294   4.738   2.044   1.258  0.1709 -0.0226  0.1964
27881W        W41295   3.425  13.278   3.925  0.1225  0.1322  0.0218
27882W        W41296   5.508   8.941  11.706  0.0034  0.1104  0.0993
27883W        W41297   6.038  12.920  10.418  0.1115 -0.1407 -0.1019
27884W        W41298   7.912   3.687  15.375  0.1029 -0.1679  0.0832
27885W        W41299   7.709   9.221  12.067  0.3715 -0.0031  0.0619
27886W        W41300  12.816   9.672  15.662  0.0049 -0.3148 -0.0131
27887W        W41301  11.638  15.065  14.775 -0.1447  0.2273  0.1420
27888W        W41302  10.451   1.319  11.858 -0.0791  0.3133  0.1506
27889W        W41303   6.212  13.468  15.844 -0.3255  0.0469 -0.1915
27890W        W41304   1.862   3.292  13.044 -0.0812 -0.0992  0.1852
27891W        W41305   0.367  14.735   3.748 -0.1939 -0.0285  0.0162
27892W        W41306   9.685   2.551   1.248  0.3294  0.4505 -0.3828
27893W        W41307   6.201  14.654  13.669 -0.0970  0.1584  0.0777
27894W        W41308   1.778  10.261   6.491 -0.3520  0.0439  0.0512
27895W        W41309   0.724   2.968  13.776 -0.0223 -0.0286 -0.0223
27896W        W41310   8.380   2.664  15.446 -0.0624 -0.1534 -0.0420
27897W        W41311   2.640   9.623  12.751  0.2170  0.0427 -0.0270
27898W        W41312   9.168   3.052   4.489  0.0153 -0.2084  0.0978
27899W        W41313   2.759   6.027  12.048 -0.3084 -0.1050 -0.3661
27900W        W41314  13.042  11.969   1.987 -0.2389 -0.2701  0.1730
27901W        W41315  17.095   7.342   2.662  0.1405 -0.1016  0.1349
27902W        W41316  17.727  11.251  16.070 -0.0425  0.2963  0.0510
27903W        W41317  10.459  11.293   4.903 -0.1532  0.2599 -0.0307
27904W        W41318  18.142  10.026  11.846  0.0094  0.0629  0.1623
27905W        W41319   1.183  17.633  11.400  0.0947 -0.0567 -0.0142
27906W        W41320   6.658  11.750   1.343  0.1850  0.2682 -0.1111
27907W        W41321  18.425  12.181  14.583 -0.1804  0.1337  0.1712
27908W        W41322  16.534   1.599   4.706  0.1282  0.0742 -0.0670
27909W        W41323  17.323  15.741   3.273 -0.2942  0.0564  0.0163
27910W        W41324   1.630   7.931  15.973 -0.2290 -0.0736  0.0142
27911W        W41325  16.375   3.466  13.507 -0.1289  0.2412 -0.2381
27912W        W41326   0.540  16.356  15.109 -0.0941 -0.1786 -0.2498
27913W        W41327   3.099   1.828   1.581  0.1427 -0.0609  0.0053
27914W        W41328   6.060  10.847  14.353  0.2503  0.1656  0.2044
27915W        W41329  17.773  15.778  15.866  0.2855  0.1201  0.1673
27916W        W41330  16.715   0.124  14.783 -0.0150  0.1958 -0.0157
27917W        W41331   8.701  13.881  13.049  0.1962  0.1711 -0.1907
27918W        W41332   1.964   3.354  15.043 -0.0195 -0.2326  0.1799
27919W        W41333  12.546   6.719  14.489 -0.1275 -0.0149 -0.2009
27920W        W41334  13.575   5.316  10.811 -0.0777 -0.2940  0.1781
27921W        W41335  18.156   0.191  11.078  0.0430 -0.3547  0.1251
27922W        W41336   0.914  10.055  12.652 -0.3757  0.0864 -0.3727
27923W        W41337   7.000  11.398   1.465  0.1287 -0.1836 -0.2730
27924W        W41338  16.252   7.198   6.020 -0.0641 -0.0772 -0.0873
27925W        W41339  10.411  11.484  15.142  0.0507  0.0126  0.2364
27926W        W41340   4.656  11.520  15.507  0.0080 -0.0328 -0.3264
27927W        W41341  15.412   0.181   1.299  0.3732 -0.4334 -0.2765
27928W        W41342  15.206   2.513   1.280  0.2321 -0.0330  0.0682
27929W        W41343  10.425   4.062  10.121  0.4530 -0.1056 -0.0243
27930W        W41344   3.114  16.794  13.174  0.0069  0.1902  0.2678
27931W        W41345   4.403  15.153  14.767 -0.2647 -0.5110  0.0700
27932W        W41346   9.568   7.130  14.922  0.1601  0.1077  0.2934
27933W        W41347   3.581  13.812  14.535  0.3079 -0.2611  0.0941
27934W        W41348   4.612   1.749   0.843 -0.0705 -0.0224  0.1784
27935W        W41349   2.889  17.785   0.837 -0.2238  0.1078  0.1541
27936W        W41350  13.091  18.275   1.086 -0.1002 -0.1372  0.3338
27937W        W41351   4.229  15.866   2.766  0.1641  0.1497  0.0629
27938W        W41352   6.957  16.133  13.887 -0.2246 -0.2201 -0.0619
27939W        W41353   2.088   6.039   0.405 -0.2119 -0.1208 -0.2343
27940W        W41354   2.797   0.146  15.938  0.0666  0.4103 -0.1680
27941W        W41355   6.701  15.898   4.263 -0.3700  0.0981 -0.1731
27942W        W41356   5.014   8.368  13.582 -0.0291  0.3414  0.2758
27943W        W41357   8.072   0.428   3.987  0.3249 -0.0776  0.1743
27944W        W41358   2.362   5.319   0.313 -0.0552 -0.0947  0.0844
27945W        W41359   2.728  15.697   5.137 -0.0884  0.2987 -0.2500
27946W        W41360  11.045  12.808   0.561 -0.0057  0.1174 -0.1474
27947W        W41361  12.324  16.546  15.587 -0.0724 -0.1459 -0.1590
27948W        W41362  17.043  15.938   2.222  0.2734 -0.1351 -0.1941
27949W        W41363  12.898   8.024  13.134 -0.0211  0.2616  0.0627
27950W        W41364   2.581   7.073  14.917  0.3425 -0.0877 -0.1965
27951W        W41365   7.463   2.581  11.231 -0.2757  0.0143 -0.2123
27952W        W41366  13.144   0.405  12.519 -0.0652  0.3708  0.0936
27953W        W41367  11.049   0.924  11.910  0.3033 -0.1245  0.0141
27954W        W41368   6.307   9.562  10.722 -0.1107  0.1500  0.1224
27955W        W41369  13.825   1.377  15.419  0.1152 -0.1207 -0.0810
27956W        W41370   4.220  13.763   2.463 -0.0749 -0.0555 -0.0346
27957W        W41371   0.851  18.120  14.716 -0.2833  0.0114 -0.2015
27958W        W41372  15.977   2.598   2.805  0.0359 -0.3107 -0.2213
27959W        W41373   7.491   2.407   2.467 -0.0281  0.3630 -0.1085
27960W        W41374   3.223  10.801   2.118 -0.0099 -0.0601  0.3262
27961W        W41375   1.644  13.598  10.096 -0.1007  0.0333 -0.1427
27962W        W41376   7.714  16.451   0.245  0.0302 -0.2136 -0.0917
27963W        W41377  14.850  13.656  11.642 -0.0266  0.0386  0.0141
27964W        W41378   5.040  16.783   0.299  0.0761  0.0395  0.1470
27965W        W41379  17.028  17.205  11.351  0.0920  0.0036 -0.1194
27966W        W41380   4.022  13.519  10.259 -0.3459  0.1811  0.3648
27967W        W41381   1.483   6.964  10.029  0.2861 -0.0413  0.1027
27968W        W41382   7.087   5.530  15.609  0.1207  0.0921  0.1130
27969W        W41383   4.951   9.141  13.246  0.2362  0.1274 -0.1462
27970W        W41384   5.930   0.121  13.415  0.2575 -0.1541  0.0798
27971W        W41385  14.487   5.501   3.969 -0.0819  0.0666  0.4569
27972W        W41386   3.887   6.307   5.250 -0.0226 -0.0002  0.2658
27973W        W41387   0.022   5.357   2.214  0.0369 -0.1225  0.0521
27974W        W41388   2.413  10.815   0.807  0.1360  0.1749 -0.1922
27975W        W41389  18.302  13.318   1.184 -0.1151  0.1707  0.1034
27976W        W41390   1.677  13.624  14.721 -0.0312  0.0453 -0.0872
27977W        W41391   3.463  14.086   0.333 -0.0391  0.1088  0.2697
27978W        W41392   4.310   2.070   3.086  0.0468  0.2153  0.2747
27979W        W41393   3.570   0.402  13.051 -0.0178 -0.0541  0.0771
27980W        W41394   0.786  14.577   4.881  0.0649 -0.1858  0.0129
27981W        W41395  16.440  15.043   3.306 -0.2474 -0.0531 -0.1521
27982W        W41396   7.793  11.982  10.487 -0.0873  0.1037  0.0409
27983W        W41397   5.475  14.088  15.211 -0.2552 -0.0770  0.1497
27984W        W41398   0.054  17.727  14.388  0.0618 -0.0040 -0.0510
27985W        W41399   2.729   9.226   3.547  0.2052 -0.2638  0.2131
27986W        W41400  16.474  12.347   4.936 -0.2620 -0.2210  0.2298
27987W        W41401  10.792   6.415   1.050 -0.0206 -0.2376 -0.3267
27988W        W41402   8.913  17.008   5.375 -0.0197 -0.2281 -0.0323
27989W        W41403  18.437   8.981   5.651 -0.0908  0.5595  0.1240
27990W        W41404   5.370  11.701   3.281 -0.0841 -0.2151 -0.1551
27991W        W41405   2.620   5.858   0.839  0.0660  0.2628  0.0476
27992W        W41406   2.462  10.106   2.084  0.3211 -0.3361 -0.2715
27993W        W41407  15.310   0.843  15.751  0.3051  0.2556 -0.3656
27994W        W41408  14.942   6.798   0.858 -0.0325  0.1605 -0.1673
27995W        W41409  11.162   0.924  10.805  0.0766 -0.0135  0.3708
27996W        W41410  12.440   1.554  14.101  0.0019  0.2673 -0.0474
27997W        W41411  15.276  15.767   3.796  0.0923 -0.2268  0.2299
27998W        W41412  12.264   7.046   4.783  0.1871  0.1186  0.1136
27999W        W41413   1.002   8.485  13.476 -0.1810  0.4206 -0.3056
28000W        W41414  13.925   2.472  13.409 -0.1326  0.0561  0.0493
28001W        W41415  14.354   4.748  10.992 -0.1417  0.1806  0.3651
28002W        W41416  14.462   3.333   1.266  0.0737  0.4230  0.0428
28003W        W41417  16.961   5.653   4.962  0.1200 -0.3422  0.1655
28004W        W41418  17.908  16.413  10.975  0.1633  0.0776 -0.2508
28005W        W41419   6.067   2.026  12.228  0.0137 -0.0395  0.2987
28006W        W41420   9.456  18.300  12.515  0.1261 -0.0843 -0.2884
28007W        W41421   3.310  12.700   1.654 -0.2214  0.3243  0.0640
28008W        W41422   0.999   7.157  12.565  0.0911  0.1066 -0.2883
28009W        W41423  11.911   4.474   3.892  0.1283 -0.0583  0.2259
28010W        W41424   3.450  17.243   2.912  0.0168  0.0914  0.0196
28011W        W41425   6.683  11.958   0.900 -0.1228 -0.1283  0.1334
28012W        W41426  14.357   0.789   9.694 -0.2253  0.1227  0.1305
28013W        W41427   9.774  10.562  12.302 -0.0282  0.0316  0.2165
28014W        W41428   3.315  14.742   4.341  0.0521 -0.0112  0.4961
28015W        W41429  15.358   7.580   3.387 -0.0074  0.3080  0.1410
28016W        W41430  13.284  13.574   1.422 -0.1596  0.0765 -0.0378
28017W        W41431   1.233  15.426  10.724  0.0039 -0.2068 -0.4661
28018W        W41432  18.349  12.715   4.563 -0.2839 -0.0736 -0.0757
28019W        W41433  12.886   8.012   2.873  0.0939 -0.2791  0.4077
28020W        W41434   3.742   2.203   0.219  0.0269 -0.0944  0.2000
28021W        W41435  17.948  17.916  13.666  0.0858  0.0722  0.0573
28022W        W41436   6.389   0.187   1.244  0.2337  0.1726  0.0581
28023W        W41437   9.849  13.605  11.853 -0.4186  0.1561 -0.0172
28024W        W41438   1.887   8.087  11.104 -0.1768 -0.0114  0.1143
28025W        W41439   8.363   0.995  12.741 -0.1405  0.2663 -0.4904
28026W        W41440   5.747   7.512  15.817  0.2188  0.1589 -0.4199
28027W        W41441   5.551   3.406   1.667 -0.2138  0.1601 -0.0232
28028W        W41442  10.231  10.686   2.859 -0.2704 -0.0556  0.2491
28029W        W41443   4.834  10.394  15.331 -0.1467  0.0394 -0.3222
28030W        W41444   3.088  14.331  13.345 -0.2309  0.0323 -0.2739
28031W        W41445   1.417  12.736   0.952 -0.1680 -0.0496  0.1345
28032W        W41446   2.579  12.577  12.867 -0.0350 -0.0116  0.1920
28033W        W41447   0.921  13.941  11.476 -0.1343  0.3622  0.2291
28034W        W41448  13.175   8.447  15.869  0.1905  0.2203 -0.0095
28035W        W41449  11.573   8.067   3.686 -0.2458 -0.1265 -0.3566
28036W        W41450  10.593   5.213   3.614 -0.1778  0.0770  0.2238
28037W        W41451  15.115   7.417   2.939  0.0831  0.2200  0.2390
28038W        W41452  11.562  17.095  12.970  0.0657  0.1323  0.3763
28039W        W41453  17.266   9.000   4.880  0.0557  0.0608 -0.1462
28040W        W41454   8.147  16.622  12.535  0.3426  0.1339  0.0200
28041W        W41455  18.201   6.531   0.398  0.1515  0.0141  0.0319
28042W        W41456  16.874  13.005  10.148 -0.2939 -0.0073 -0.1303
28043W        W41457  16.272   2.935  12.408 -0.2196 -0.2116 -0.2371
28044W        W41458   5.238   4.655  15.218  0.0197 -0.1076 -0.0973
28045W        W41459  17.148   2.304  11.801 -0.0462 -0.0217  0.0935
28046W        W41460  15.884   7.512  13.575 -0.0131  0.3590  0.2365
28047W        W41461  10.072  13.109  14.886  0.2006  0.0818 -0.1886
28048W        W41462  17.358   5.480   1.216  0.0891  0.0367 -0.0635
28049W        W41463   9.913  14.519   4.235  0.0711  0.0088  0.0687
28050W        W41464   6.221   9.425  16.105  0.1284 -0.1438  0.2700
28051W        W41465   8.036  13.283   0.880  0.3568 -0.2296 -0.0361
28052W        W41466  16.249  10.824   3.916 -0.2723  0.1541  0.0859
28053W        W41467   1.124   5.508  11.072 -0.0553  0.1153 -0.0442
28054W        W41468  10.833   2.227  13.996 -0.3883  0.1195 -0.1003
28055W        W41469   5.337   1.310  14.467  0.3167 -0.0714  0.2975
28056W        W41470  11.793   6.236  11.561  0.1321  0.0052  0.2473
28057W        W41471  17.554   4.835   0.836 -0.1702  0.0473 -0.1041
28058W        W41472   4.199   6.551   0.462 -0.0208 -0.0072  0.1624
28059W        W41473  17.448  12.325  11.096  0.1854 -0.0014 -0.0101
28060W        W41474   1.863  18.170  12.605 -0.2153 -0.1652  0.0231
28061W        W41475   6.771  16.664   2.956  0.1337 -0.0114  0.0660
28062W        W41476   3.600   4.959  15.617  0.2513 -0.0498  0.0588
28063W        W41477   1.073   7.300  10.055  0.0856 -0.3503  0.0528
28064W        W41478   2.992  12.137  10.556 -0.0581  0.0257  0.0902
28065W        W41479   5.093  14.648  16.002 -0.1236  0.0062 -0.0835
28066W        W41480   3.431   0.454   3.304  0.1290  0.0041  0.0112
28067W        W41481   7.410   3.622  13.948 -0.2941 -0.2887  0.1339
28068W        W41482  17.553   2.075  12.020 -0.0129  0.1015  0.0046
28069W        W41483  10.883   8.904   1.372  0.1666 -0.1121  0.1180
28070W        W41484   3.275  12.769   0.698  0.1315  0.0680 -0.2226
28071W        W41485  12.696   5.475   4.791  0.2495 -0.0791 -0.0937
28072W        W41486   6.540   9.729  11.100  0.2178  0.1838 -0.1677
28073W        W41487  11.563   8.041  11.920  0.2457  0.1270 -0.1111
28074W        W41488  10.940  15.091  12.163  0.1014  0.2173  0.2377
28075W        W41489  11.478   7.878  14.904 -0.0482 -0.0334  0.3570
28076W        W41490  11.904   1.464   3.600  0.1480 -0.0733  0.2809
28077W        W41491   6.206   6.911  10.789 -0.1565 -0.1221 -0.0882
28078W        W41492  10.464   9.667   2.895  0.0077 -0.3650  0.2301
28079W        W41493   6.996  16.646  13.849  0.0474 -0.1359 -0.0376
28080W        W41494   3.801   9.188   1.530 -0.1834  0.1074  0.1694
28081W        W41495   3.261  12.405  11.430 -0.3550  0.1390  0.0915
28082W        W41496  13.325  16.077  10.602 -0.4634  0.0657  0.2494
28083W        W41497   3.575   0.940   2.064  0.0240 -0.1304  0.1536
28084W        W41498  12.435   1.702   0.706  0.2157  0.1399 -0.2499
28085W        W41499   3.686   1.773  15.143  0.0146 -0.0504  0.2820
28086W        W41500  11.289   7.604   0.770 -0.1141  0.2534 -0.1871
28087W        W41501  15.782   8.490   0.867  0.2185 -0.0166  0.1897
28088W        W41502   2.896  11.831   0.785  0.0704 -0.0747 -0.1225
28089W        W41503  14.799   6.038  11.675  0.1358  0.0486 -0.0783
28090W        W41504   9.883  11.197   0.080 -0.0647 -0.3430 -0.0302
28091W        W41505  17.712  17.631   1.297  0.0403  0.1501 -0.0222
28092W        W41506   6.321  10.608  12.587 -0.2360  0.0388  0.1860
28093W        W41507  17.150   3.708  14.783  0.0813 -0.1662  0.1638
28094W        W41508  10.130  11.138  12.374  0.1127 -0.3359 -0.1209
28095W        W41509   1.107  12.525  12.205 -0.0282 -0.0990  0.1628
28096W        W41510  17.757   6.751   0.174 -0.0923  0.1571  0.0740
28097W        W41511   9.676   7.392  14.545  0.2096 -0.1482  0.2193
28098W        W41512   9.023   2.627  13.003  0.0884  0.0292 -0.0934
28099W        W41513  10.092   4.316   5.143  0.2606 -0.0217  0.0356
28100W        W41514  11.476  16.509  10.662 -0.1688  0.1128 -0.1092
28101W        W41515  12.416  15.907   1.665 -0.1342 -0.4079 -0.2719
28102W        W41516   2.250   3.636   1.287 -0.0926 -0.2648 -0.1758
28103W        W41517   6.387   5.036   3.765  0.1718 -0.6071  0.1590
28104W        W41518  17.423  11.158  14.091  0.2883 -0.0918  0.0985
28105W        W41519   6.551   3.416  15.844 -0.1781  0.1429  0.2651
28106W        W41520   3.576   1.332   0.259  0.3478  0.3358  0.1436
28107W        W41521   8.445   2.338   1.139  0.1564  0.0642  0.0908
28108W        W41522   0.242   4.775   3.405 -0.2406 -0.2347  0.2277
28109W        W41523  15.179   9.809  11.426 -0.0331  0.1804 -0.1265
28110W        W41524  17.748   6.149   0.210  0.0051  0.1721  0.2097
28111W        W41525  11.191   8.156   0.795  0.0275  0.0156  0.1446
28112W        W41526  16.072  16.206   3.863 -0.2278  0.0780 -0.1015
28113W        W41527  16.305   1.611   2.111 -0.2126 -0.1904  0.3042
28114W        W41528  16.286   9.986  12.439 -0.3722 -0.0347  0.1200
28115W        W41529   8.762   9.913   3.783  0.0342 -0.2953  0.1072
28116W        W41530  10.837  12.927  11.983  0.2257  0.0617  0.0457
28117W        W41531  14.046  15.090   1.940 -0.0147 -0.0546 -0.1990
28118W        W41532   7.159  13.054  13.854 -0.0910 -0.0138  0.1595
28119W        W41533  12.587  10.585  15.915  0.1683  0.2225  0.0143
28120W        W41534  14.530  10.889   1.967  0.2320 -0.0924 -0.0718
28121W        W41535   0.721  11.008   4.281  0.2216 -0.2172  0.0735
28122W        W41536  13.815  12.536   0.626  0.0913  0.0428  0.0909
28123W        W41537   9.262   2.338  15.181 -0.0329 -0.2777 -0.1736
28124W        W41538  18.109   0.647  13.469  0.0028 -0.2689  0.2702
28125W        W41539  13.959  16.181  11.638  0.4977 -0.2476  0.2875
28126W        W41540   1.788   5.835   5.114  0.0359  0.0364  0.2937
28127W        W41541  17.925   9.549  11.676 -0.1950 -0.0181  0.0371
28128W        W41542  12.836  13.960  12.227  0.0205 -0.3268  0.0258
28129W        W41543  17.347   6.205  14.664  0.1182  0.0683  0.0150
28130W        W41544   7.854  18.081  12.224 -0.1960 -0.0621 -0.0967
28131W        W41545  11.781  16.418   0.958 -0.0082 -0.0390  0.1819
28132W        W41546   5.747   9.774   3.453 -0.2199 -0.0108 -0.1910
28133W        W41547  13.946  10.319  13.086  0.0934  0.0103  0.0830
28134W        W41548   8.793   6.009  16.196 -0.1080 -0.0769 -0.0020
28135W        W41549  11.588  10.964  11.890  0.0138 -0.0125 -0.1361
28136W        W41550   1.155  16.772   6.091  0.0707  0.3470  0.0625
28137W        W41551   0.661  16.029   4.934  0.0201 -0.0317 -0.1456
28138W        W41552   3.697  17.017   3.260  0.3827  0.1988 -0.0788
28139W        W41553  10.639  11.269  14.150 -0.0182  0.0292  0.0147
28140W        W41554   5.637  10.716   3.669  0.1474 -0.1848 -0.1464
28141W        W41555  17.474  18.030  14.610  0.0958  0.1129 -0.0021
28142W        W41556   7.114  11.956   0.623 -0.1955  0.0536  0.0770
28143W        W41557  13.689   2.155   2.322  0.3738 -0.1690  0.0223
28144W        W41558   9.719   4.489   4.417 -0.2983  0.1796 -0.0752
28145W        W41559  14.038   3.886  15.507 -0.0074  0.2008 -0.1001
28146W        W41560  15.567   0.935   5.042  0.0072  0.2245 -0.2713
28147W        W41561   3.298  14.393   5.142 -0.2423  0.1985 -0.2605
28148W        W41562   2.021   2.596  11.742  0.0257  0.1552 -0.1269
28149W        W41563   6.444   5.298   5.394 -0.0222  0.2319  0.1012
28150W        W41564   9.586  13.729   5.848 -0.0384  0.0223 -0.2253
28151W        W41565   1.404  12.723  15.092 -0.1912 -0.0683  0.0874
28152W        W41566  14.317   8.904  11.515 -0.2474 -0.1253  0.3395
28153W        W41567  16.537  17.953  11.064 -0.0052 -0.4023  0.2284
28154W        W41568  16.813  11.296  15.301  0.1093  0.0155 -0.1401
28155W        W41569   6.385   4.597   0.135  0.0589 -0.2161  0.2280
28156W        W41570  13.757   6.931  11.989 -0.2502  0.2472  0.1935
28157W        W41571   9.600   0.063   3.048  0.1345  0.1180  0.2427
28158W        W41572   9.000  14.657   3.977 -0.1297 -0.0465  0.0594
28159W        W41573   9.405  12.940   3.097  0.0957  0.0887  0.0025
28160W        W41574  15.496   8.649  10.192 -0.1627 -0.2234  0.0114
28161W        W41575  17.744  11.227   1.270 -0.0736 -0.0441 -0.1712
28162W        W41576   4.277  14.037   3.498  0.1379 -0.0944 -0.0409
28163W        W41577   8.217  12.215  10.235 -0.1211 -0.2876  0.0607
28164W        W41578   5.104  17.396   5.780 -0.1459  0.0102 -0.0776
28165W        W41579  11.917   6.244   3.155  0.0675 -0.2628  0.0169
28166W        W41580  12.559  10.960   5.070 -0.4045 -0.0572 -0.2458
28167W        W41581   8.504  15.490  13.544  0.2323  0.0217  0.0674
28168W        W41582  15.066   9.778   1.183  0.2357 -0.0544  0.2545
28169W        W41583  17.571   1.757  13.564  0.0951 -0.0691 -0.1072
28170W        W41584  12.393  11.946  13.470 -0.1764  0.1182  0.1874
28171W        W41585   3.402   6.444  12.932 -0.2046  0.4560  0.4175
28172W        W41586  11.156   2.172  13.196 -0.0228  0.0279  0.0130
28173W        W41587   8.151   1.711   0.398 -0.0492  0.1282  0.0714
28174W        W41588   1.651   7.161  14.292 -0.0577  0.2377  0.3321
28175W        W41589  13.192   6.936  13.860  0.3346 -0.0706  0.0801
28176W        W41590  15.602   1.353  14.097 -0.2161 -0.2734 -0.0508
28177W        W41591   1.152  10.969   0.209 -0.0314  0.1420  0.0384
28178W        W41592   3.845  15.522   4.054  0.1528 -0.2767 -0.1333
28179W        W41593   1.506   2.461   1.698 -0.2162 -0.0011  0.1390
28180W        W41594  17.748  17.963  10.076 -0.0938 -0.2011 -0.0199
28181W        W41595   3.647  18.432   4.353 -0.4749 -0.0034 -0.0267
28182W        W41596   6.680   0.899  12.336  0.5255  0.1784  0.1088
28183W        W41597   6.577   9.035   1.099  0.3233  0.0955  0.3064
28184W        W41598  13.610  12.219   4.104  0.1148 -0.2040  0.2589
28185W        W41599  15.251  16.421   2.122  0.2000  0.1100  0.2205
28186W        W41600   4.177   8.772   1.108 -0.1034  0.0685  0.0980
28187W        W41601   2.171   9.198   6.561  0.1343  0.0374 -0.0848
28188W        W41602   1.498  16.082   4.731  0.4301 -0.3258 -0.0116
28189W        W41603  13.843  13.394  15.876  0.0637  0.2406 -0.1608
28190W        W41604   3.927   3.189   2.471  0.0220  0.2017  0.0128
28191W        W41605  18.041  17.651  15.442  0.1377  0.0486  0.1127
28192W        W41606   4.475   9.186  13.357  0.0381 -0.0795  0.0125
28193W        W41607   1.535   9.664  15.276 -0.2680  0.0008 -0.0389
28194W        W41608   3.169  16.128   0.689 -0.3953 -0.0281  0.2457
28195W        W41609   0.046  14.827  14.414  0.0759  0.2186  0.1560
28196W        W41610  12.195   9.498  15.128  0.1451 -0.2951  0.0219
28197W        W41611   0.980  15.832   2.177 -0.0956  0.1302 -0.2148
28198W        W41612  10.969  12.244  15.726 -0.3390  0.2134 -0.1926
28199W        W41613   9.474  12.804  11.707 -0.2405 -0.0820 -0.3303
28200W        W41614   6.139   6.302   5.062  0.1478  0.3822  0.1094
28201W        W41615   2.207   4.023   2.209 -0.0331  0.1267 -0.1892
28202W        W41616  18.364   7.650   0.384  0.0247 -0.0496  0.1950
28203W        W41617   2.239  14.778   0.307  0.1023  0.4346  0.0533
28204W        W41618  14.557  13.675   6.133 -0.0486 -0.0497  0.0002
28205W        W41619   5.133   6.611   5.944  0.2393  0.0884  0.2207
28206W        W41620   9.386   2.159   3.905 -0.2230 -0.0632  0.0866
28207W        W41621   5.343  12.691  15.036  0.0106  0.1124  0.1256
28208W        W41622   3.643  16.995  15.009 -0.1107  0.0471 -0.0968
28209W        W41623  11.714   7.883   0.846  0.2793  0.0137  0.3008
28210W        W41624  16.572  14.150  10.632 -0.2917 -0.3068  0.1919
28211W        W41625  15.551  18.144  13.832  0.0598 -0.0194 -0.2991
28212W        W41626   8.522  12.467  10.677 -0.1342  0.1187  0.0588
28213W        W41627  17.422  13.678   0.719 -0.1252  0.1250  0.2552
28214W        W41628  14.774  16.288   1.236  0.1272 -0.2056 -0.0872
28215W        W41629  17.255   8.600  15.188  0.0656  0.0734  0.1701
28216W        W41630  11.866   1.844   5.104 -0.0849  0.0262 -0.2510
28217W        W41631  16.180  13.097  10.335 -0.2544 -0.3992  0.0436
28218W        W41632   0.496   7.065  12.474 -0.0108  0.0588  0.1414
28219W        W41633  11.435  17.781  14.106 -0.2073 -0.0989  0.1978
28220W        W41634   0.889  13.504   0.199  0.0971 -0.4326 -0.2825
28221W        W41635   7.120   2.018  11.132 -0.3379 -0.1402  0.1005
28222W        W41636   1.623   8.167  11.517  0.3365  0.1688  0.1453
28223W        W41637  12.746   4.193  12.685  0.1000  0.0183  0.1778
28224W        W41638  18.233  14.167   3.078 -0.1504 -0.2580 -0.0251
28225W        W41639  10.342  16.240   2.789 -0.0687 -0.3689 -0.0736
28226W        W41640   4.237  12.437  11.437 -0.3681  0.0434  0.1151
28227W        W41641  11.785  13.934   5.636  0.1352 -0.0576  0.0221
28228W        W41642  12.138   9.926  14.227  0.0161  0.2949  0.0736
28229W        W41643   5.810   2.686  14.229 -0.2394  0.2843 -0.2251
28230W        W41644  15.347   9.111  14.865  0.0996 -0.1218  0.2739
28231W        W41645  16.365   5.873  16.173 -0.2929  0.1403  0.3263
28232W        W41646   5.190  15.446   0.072  0.1084  0.1922 -0.1116
28233W        W41647   7.639   3.173   4.565 -0.2017 -0.1502  0.2624
28234W        W41648   1.870   0.864  10.974 -0.1180  0.0130 -0.0101
28235W        W41649   6.296  11.799   5.382 -0.1882  0.3186 -0.4234
28236W        W41650   7.420  15.666  12.330 -0.1103  0.2385  0.0498
28237W        W41651  14.007  17.690  14.704 -0.4296 -0.1206  0.1512
28238W        W41652   5.514  15.903   1.502 -0.0853 -0.0983 -0.0050
28239W        W41653  17.967  13.385  11.901 -0.1948  0.1109  0.0183
28240W        W41654  11.981  13.904  12.301  0.1126 -0.1327 -0.0941
28241W        W41655   2.990   8.959  16.090 -0.0205 -0.2180  0.0224
28242W        W41656   7.509  10.603  10.559  0.2671 -0.0591 -0.1514
28243W        W41657  10.662  10.703   1.331  0.0780 -0.0054  0.0584
28244W        W41658  12.912  15.949   9.888  0.3596  0.0190 -0.0544
28245W        W41659  11.831  16.905   0.624 -0.0132 -0.2342  0.5701
28246W        W41660   9.215  14.239   5.320 -0.0835  0.1923  0.2209
28247W        W41661   7.101  17.001  12.208  0.0052 -0.0461 -0.0741
28248W        W41662  16.701   2.083  14.390  0.0531 -0.0693  0.0907
28249W        W41663  17.057   8.109  14.586 -0.3184  0.2935 -0.0966
28250W        W41664  16.204   7.879  12.714  0.2445 -0.0947  0.0105
28251W        W41665   7.727  17.520   3.153 -0.0407 -0.0293  0.1650
28252W        W41666   6.817   0.434   6.062  0.0358  0.1805  0.0778
28253W        W41667  13.033   0.837  11.363  0.1847 -0.1377 -0.3017
28254W        W41668  15.880   3.113  12.766 -0.0521  0.0034  0.3404
28255W        W41669   1.132  11.363  13.709 -0.0236  0.0355  0.0366
28256W        W41670  16.689  17.999   5.934 -0.4113 -0.2835 -0.2637
28257W        W41671   2.837  10.745  13.293  0.2937  0.0347 -0.0283
28258W        W41672  17.843   5.544   5.728  0.2130 -0.0368  0.2168
28259W        W41673   3.113   4.051  11.277  0.1212  0.1233  0.1698
28260W        W41674   1.637   3.847   3.542  0.1390 -0.2837  0.4161
28261W        W41675   3.874  16.761  15.960 -0.0495 -0.1958  0.1565
28262W        W41676   1.712   4.822   0.415  0.3022  0.2505 -0.1987
28263W        W41677   4.270  14.670  16.227 -0.0394 -0.4929 -0.1154
28264W        W41678  18.209  16.478   4.909  0.3524 -0.0750 -0.1773
28265W        W41679   2.203  12.085  14.027  0.2232 -0.0395 -0.0895
28266W        W41680  10.983  16.909  10.881 -0.0306  0.0665 -0.1397
28267W        W41681  11.662   9.300   0.199  0.0583  0.2752  0.2238
28268W        W41682   3.786  14.849   0.785  0.0733  0.2516 -0.0478
28269W        W41683  15.635  18.288  14.697 -0.2776 -0.1409  0.1323
28270W        W41684  17.355  10.145  11.297  0.3431 -0.2884  0.0825
28271W        W41685   9.225   3.867   0.045 -0.1480 -0.0966  0.1548
28272W        W41686   0.324   3.493   0.742 -0.5774  0.0159  0.1215
28273W        W41687   4.328   3.601   4.159 -0.0596  0.1974  0.3989
28274W        W41688   2.796  11.337  13.662  0.2139 -0.0371  0.1255
28275W        W41689   5.030  15.273   1.966  0.0995  0.3487 -0.2608
28276W        W41690   4.300  14.823  13.703  0.0534  0.1389  0.1936
28277W        W41691  14.535   9.460   4.483  0.7233  0.0463  0.1561
28278W        W41692   6.682  14.642  11.345 -0.0657 -0.0535  0.0590
28279W        W41693   1.008   3.486   0.501 -0.1562  0.0305  0.1075
28280W        W41694   9.726   7.341  10.813 -0.1416 -0.0876  0.0296
28281W        W41695  16.054  15.435  15.620 -0.1387  0.2464 -0.3960
28282W        W41696   3.514  16.802   4.883  0.0912 -0.2153 -0.1552
28283W        W41697  18.368   3.538  11.658  0.0173  0.0323 -0.2888
28284W        W41698   7.005   6.669   5.221  0.0438  0.1176  0.0831
28285W        W41699   4.821   7.324  10.411  0.0217 -0.1168  0.1249
28286W        W41700   6.435   8.130   1.518 -0.1814  0.0164 -0.1975
28287W        W41701   2.540   9.226   2.543 -0.0487 -0.0670  0.0784
28288W        W41702   5.439  10.260  14.193  0.3922  0.0255  0.3643
28289W        W41703   3.965  15.593   5.356  0.4593 -0.2828 -0.1453
28290W        W41704   2.765   8.083  12.947 -0.1994 -0.0868 -0.0317
28291W        W41705  16.499  15.899   3.796 -0.1762 -0.3501 -0.0757
28292W        W41706  13.683   0.181   3.180  0.0623 -0.1340 -0.3528
28293W        W41707   2.251   3.977  11.336 -0.2244 -0.2016 -0.0656
28294W        W41708  16.205  11.762   3.816  0.1987  0.0367 -0.2104
28295W        W41709   6.085   0.075  12.909 -0.1132  0.3061 -0.1073
28296W        W41710  17.947   9.424  12.779  0.4301  0.1254  0.1664
28297W        W41711   8.425   5.644  16.012 -0.2196  0.1238 -0.2478
28298W        W41712   4.633  18.145   4.846 -0.0003 -0.5386  0.0732
28299W        W41713   9.266   6.174   0.177  0.2833 -0.2609  0.0054
28300W        W41714  13.390  18.410  12.919 -0.1925  0.0523 -0.2608
28301W        W41715  17.511   6.014   2.928  0.5261 -0.1390  0.0798
28302W        W41716   1.430   7.329  13.906  0.3225 -0.0583 -0.2660
28303W        W41717   9.599   1.467  14.841 -0.0561  0.1204 -0.1186
28304W        W41718   1.681  18.352   2.255 -0.3251 -0.0175 -0.1120
28305W        W41719   8.913  12.427  14.911  0.1913  0.1431 -0.0366
28306W        W41720   9.164   3.190  15.686  0.0529  0.1087 -0.1912
28307W        W41721  13.631   0.058  13.551  0.0439  0.0179 -0.0076
28308W        W41722   2.001  14.208  15.895 -0.0701 -0.2073  0.2263
28309W        W41723   0.899   6.692  12.591  0.2163  0.1789  0.1335
28310W        W41724  10.102  16.921  11.865  0.0012  0.3170  0.0513
28311W        W41725   0.558   4.867   1.845 -0.3880  0.0274  0.0888
28312W        W41726  11.591   3.189   0.167 -0.1031  0.0493 -0.0138
28313W        W41727  15.772  15.636  13.712 -0.3195  0.0424  0.0226
28314W        W41728   2.729   3.253  14.025  0.0371  0.3318 -0.2670
28315W        W41729  11.003   3.039   1.694  0.1452  0.1815 -0.0797
28316W        W41730  17.156   4.493  12.010 -0.3246 -0.1465  0.1630
28317W        W41731  13.295  15.528  14.838 -0.1592  0.0719 -0.2586
28318W        W41732   8.063  18.076   3.350 -0.1164 -0.0312 -0.0789
28319W        W41733   0.341  12.889   5.520  0.4275  0.0344  0.3307
28320W        W41734  12.702   5.911   4.062 -0.2337 -0.2058  0.0333
28321W        W41735   4.171   7.784   3.951 -0.2519 -0.0641 -0.1094
28322W        W41736   8.598  17.143   1.258 -0.2236 -0.1169 -0.2371
28323W        W41737   1.541  15.542   2.904  0.0437 -0.0923 -0.0219
28324W        W41738   1.941   7.966   4.932 -0.2023 -0.1060  0.1143
28325W        W41739   4.469  16.712   0.274 -0.0181 -0.1426  0.1429
28326W        W41740  12.558   5.963   1.972 -0.3521 -0.0806 -0.2179
28327W        W41741  12.498  12.546  12.710 -0.1310  0.1945 -0.0899
28328W        W41742  11.050  17.198   3.339 -0.0719  0.1635 -0.2383
28329W        W41743  11.126  15.857   3.839  0.0151  0.1660  0.0767
28330W        W41744   4.884  15.553  15.950  0.0614  0.1258  0.1220
28331W        W41745   5.809   0.050  13.935 -0.0460 -0.2939 -0.4017
28332W        W41746  16.452   8.113  11.472  0.2056 -0.1317 -0.1377
28333W        W41747   0.190  14.044  10.504 -0.1895 -0.0219  0.1499
28334W        W41748   1.929   8.160   0.088  0.2699 -0.0965 -0.1542
28335W        W41749   0.548  10.246  14.271 -0.4568  0.1998  0.0663
28336W        W41750   8.446   2.179   4.750  0.1535 -0.1593 -0.0871
28337W        W41751   6.823  16.807   4.459 -0.1733 -0.1402  0.0995
28338W        W41752  15.112   9.236  12.994 -0.0852 -0.0883 -0.0267
28339W        W41753   1.898  17.225  12.684 -0.0556  0.2570 -0.4046
28340W        W41754   9.466   2.921  16.081  0.3002 -0.2573 -0.1493
28341W        W41755   4.166   2.813   3.746  0.1384  0.1452  0.1301
28342W        W41756   1.179   5.134   4.707  0.2722  0.0181 -0.1949
28343W        W41757   4.169   3.035  11.628  0.0608  0.0636  0.3048
28344W        W41758  10.516  11.955  13.184 -0.0862  0.0119  0.0228
28345W        W41759  12.621   3.097  12.886 -0.1709 -0.0823  0.1077
28346W        W41760   8.137   1.990   4.334  0.0967  0.0944 -0.1513
28347W        W41761  16.691   7.719   2.340 -0.2373  0.2460 -0.2668
28348W        W41762   7.369   1.875   9.927 -0.2505 -0.1733  0.1321
28349W        W41763   9.519   8.148   1.199 -0.1748  0.1224  0.0373
28350W        W41764  14.568   6.157   5.975  0.1093 -0.0050 -0.0178
28351W        W41765   0.057  11.096   4.867 -0.3345  0.1077 -0.0024
28352W        W41766   7.345   5.060   3.557  0.1600  0.0731  0.2259
28353W        W41767  18.030  16.884  12.788 -0.0705  0.3770 -0.0109
28354W        W41768   9.553  11.247  14.798  0.1141 -0.1438  0.0156
28355W        W41769   5.517  14.503  12.181 -0.2311 -0.2662  0.0114
28356W        W41770  15.528  13.657   9.815 -0.1860 -0.3985 -0.0939
28357W        W41771   8.715  13.526   0.839  0.2189  0.3599 -0.2502
28358W        W41772   2.508  12.177  10.726 -0.2566  0.3179 -0.1748
28359W        W41773  15.726  18.438   0.924  0.0021 -0.3648  0.0152
28360W        W41774   4.470   6.433  10.679 -0.2050  0.1794  0.1245
28361W        W41775   4.137   7.155   5.173 -0.0045 -0.0466 -0.1009
28362W        W41776   4.403   8.327   2.074 -0.0582  0.2244 -0.0766
28363W        W41777   5.646   3.371  14.753 -0.1256  0.0537 -0.1630
28364W        W41778   5.440  10.911   6.041  0.1607  0.1904 -0.0845
28365W        W41779   6.309  10.117  11.958  0.0527  0.1052  0.2922
28366W        W41780  17.467  12.048  13.426 -0.3177  0.1248 -0.2506
28367W        W41781  12.431  17.105   6.009  0.1749 -0.1294  0.2617
28368W        W41782  11.221  10.456  12.823  0.0685  0.0832 -0.4166
28369W        W41783  16.012   8.636   1.976  0.1217  0.0365 -0.1945
28370W        W41784   0.050   2.494   5.265 -0.1660 -0.3584  0.0767
28371W        W41785   5.768   6.400  11.419  0.0661 -0.3176  0.0354
28372W        W41786  14.450  10.728  10.035 -0.1636  0.0007 -0.1351
28373W        W41787  17.688   9.868  10.919 -0.1491 -0.0842 -0.2632
28374W        W41788  16.290   1.117   2.839  0.2112 -0.0747 -0.0831
28375W        W41789   3.714   5.748  10.684  0.2939 -0.0437 -0.1942
28376W        W41790  16.346  17.283   3.946  0.1004 -0.0888 -0.0104
28377W        W41791   0.368   9.021   1.042 -0.0137  0.0674 -0.1957
28378W        W41792  10.895  13.166  16.090 -0.2714  0.0316  0.0757
28379W        W41793  18.284   2.960   3.325  0.1451  0.0271 -0.0020
28380W        W41794  13.832  16.154  10.218  0.1688  0.0014  0.1641
28381W        W41795  11.772   5.691   1.476  0.2694 -0.3266  0.0180
28382W        W41796  15.982  12.509   2.282 -0.3460  0.1788  0.0225
28383W        W41797   9.893  11.835   0.216  0.2785  0.0337 -0.0401
28384W        W41798   2.929   9.940  13.253 -0.0163  0.0081  0.3547
28385W        W41799   2.675   4.443  11.964  0.2170  0.0349 -0.3565
28386W        W41800   1.991   2.021   4.622  0.2525  0.2178 -0.1762
28387W        W41801  11.340   5.407  13.860  0.0083 -0.4550  0.1735
28388W        W41802   4.140   9.371  11.270 -0.1884 -0.0989  0.1995
28389W        W41803  11.427  16.572   0.425  0.0417  0.1567  0.3018
28390W        W41804  15.725  17.398   3.067 -0.0196 -0.0272  0.1048
28391W        W41805  18.309   6.769   4.402  0.2866 -0.1465  0.1780
28392W        W41806  17.950  14.565   2.149  0.1071  0.0001  0.3288
28393W        W41807   7.098  14.119  15.709  0.0459  0.3203  0.1668
28394W        W41808   9.621  17.066  10.305 -0.1608  0.0176  0.1515
28395W        W41809   1.196   2.509  11.341  0.0610 -0.0414  0.0590
28396W        W41810   9.194  13.586   2.892  0.0441 -0.1686  0.1858
28397W        W41811   9.587  10.017  15.553 -0.1633 -0.0150 -0.4195
28398W        W41812   7.121  12.981   3.795 -0.0834  0.3461 -0.0416
28399W        W41813  10.906  14.344  10.086  0.0825  0.1730  0.0502
28400W        W41814   3.122  10.392  13.068  0.1112  0.1142 -0.0004
28401W        W41815   3.931   9.913   5.977  0.0911 -0.2070 -0.2392
28402W        W41816  18.032   0.084  12.054 -0.0587 -0.1096  0.0446
28403W        W41817   4.320  12.587  16.231  0.1132 -0.0215  0.1579
28404W        W41818   6.283   4.049   5.392 -0.0986 -0.0169 -0.1132
28405W        W41819   9.865  14.883  10.192  0.0653 -0.3456 -0.0320
28406W        W41820   4.562  14.885   0.379  0.0790  0.0184  0.1810
28407W        W41821  18.328  18.170  11.362 -0.0742  0.2475  0.1232
28408W        W41822   4.265  12.044   0.069  0.2805  0.3087 -0.0841
28409W        W41823  10.634  11.410   2.776  0.2352  0.1220  0.2377
28410W        W41824  14.524   4.029   0.054 -0.1263  0.0568 -0.2214
28411W        W41825  11.262  10.217  13.775  0.1036  0.1126 -0.0517
28412W        W41826   5.039  11.262   0.690 -0.3885 -0.2539  0.0654
28413W        W41827   8.304   9.321   1.580  0.3474 -0.0914  0.1415
28414W        W41828  12.696   6.494  10.583  0.4003  0.0195 -0.0413
28415W        W41829   1.851   7.724   1.535 -0.0377 -0.1271 -0.1874
28416W        W41830  18.174  17.046   0.572 -0.3284  0.4184 -0.0032
28417W        W41831  14.666   9.075   0.837 -0.1084 -0.4398 -0.2597
28418W        W41832  11.644  13.626  13.207  0.1829 -0.0316 -0.0290
28419W        W41833   2.782   0.030  12.562 -0.4521  0.0866 -0.1518
28420W        W41834  15.322   4.119   3.076  0.1351  0.0117 -0.1030
28421W        W41835  18.171  16.416   2.371  0.4989 -0.1087  0.0915
28422W        W41836   5.973   9.594   0.269 -0.0958  0.0797 -0.2038
28423W        W41837  15.584   3.453   0.709 -0.2289 -0.1811  0.4373
28424W        W41838   0.776  13.870  10.754 -0.1033 -0.4321 -0.0682
28425W        W41839  11.088  14.465  13.255 -0.2417  0.0456 -0.3022
28426W        W41840  13.927   2.052  13.790 -0.0029 -0.0818  0.0086
28427W        W41841  15.443   2.042   5.102  0.1028  0.0980 -0.1392
28428W        W41842  15.542  16.543  12.736 -0.0959 -0.1833  0.1631
28429W        W41843  13.006   9.740   4.485 -0.0836  0.0998 -0.1455
28430W        W41844  14.539   0.666  10.658  0.0694 -0.1262  0.0014
28431W        W41845   2.797   1.608   0.165  0.1867 -0.2466 -0.1524
28432W        W41846   0.300  14.021  10.999 -0.2061  0.0007 -0.1696
28433W        W41847   7.398  16.790  13.581  0.2721  0.0675 -0.0822
28434W        W41848  15.208  17.266   3.962 -0.0722 -0.0217 -0.0464
28435W        W41849   4.250   0.715   2.746  0.1489  0.1838 -0.4348
28436W        W41850  13.716   3.929  11.610  0.0501  0.2208 -0.2379
28437W        W41851  16.536   2.609   1.621  0.1116 -0.0422  0.2963
28438W        W41852   2.144  16.680   3.223  0.0305  0.1384  0.1284
28439W        W41853  14.394   3.155   5.365  0.0021 -0.0038 -0.0447
28440W        W41854  17.914   9.405   0.725  0.1167 -0.0047 -0.0279
28441W        W41855   5.421   3.264   2.650  0.3989  0.1227  0.2438
28442W        W41856  17.276   7.642  16.225 -0.1617 -0.0817  0.4026
28443W        W41857  10.103  15.111  13.102 -0.1245 -0.1635  0.1343
28444W        W41858   5.463  13.019  15.487 -0.0613  0.1851  0.3292
28445W        W41859   6.103  17.201  14.324 -0.2424  0.1554  0.1428
28446W        W41860   2.941  13.802  15.995 -0.0476 -0.1344 -0.0153
28447W        W41861  15.581  10.585   5.193  0.0242 -0.1044 -0.1201
28448W        W41862   3.382   1.371   3.570  0.2255  0.1030 -0.0248
28449W        W41863   1.434  10.603  12.690 -0.0275  0.0520 -0.2161
28450W        W41864   5.047   0.717   1.395  0.0195  0.0975  0.0054
28451W        W41865  16.209  14.470   2.508 -0.2430 -0.1859 -0.0876
28452W        W41866  13.647   3.031  11.307 -0.2714 -0.0703 -0.1456
28453W        W41867   8.905   5.519   0.109 -0.2872 -0.1450 -0.3901
28454W        W41868   2.948   8.467   2.895 -0.0713 -0.2243  0.3759
28455W        W41869  16.602   8.094   2.684 -0.1293 -0.0588 -0.1076
28456W        W41870   0.682  15.716   5.425 -0.0360  0.0719 -0.0768
28457W        W41871   4.914   1.202   1.436 -0.1088 -0.0356 -0.0963
28458W        W41872  11.472   4.645  10.800  0.1885  0.0854 -0.2297
28459W        W41873  10.614  16.949  14.817  0.0967 -0.1605  0.0852
28460W        W41874   8.067   5.725   0.808 -0.0993  0.1174  0.1735
28461W        W41875   4.230  15.945  12.195  0.0273  0.1412  0.0674
28462W        W41876   8.166  13.588   9.795  0.0320  0.2177  0.2727
28463W        W41877   6.083   6.856   1.728  0.0846 -0.0117 -0.1596
28464W        W41878  12.947  10.011  12.831  0.2948 -0.2660 -0.0166
28465W        W41879  11.045  13.878   2.118 -0.0406  0.0962  0.1587
28466W        W41880   0.671  16.614   1.708 -0.2170 -0.0753  0.1554
28467W        W41881   1.870  15.741   3.249 -0.2681  0.1290  0.1676
28468W        W41882  18.413   0.386   3.223  0.0271  0.0270 -0.0106
28469W        W41883   8.163   2.034  12.540 -0.0697 -0.0256  0.2083
28470W        W41884   8.305  10.389  11.938 -0.2219 -0.0157  0.0894
28471W        W41885  10.633  15.656   4.065  0.2250  0.0583  0.1123
28472W        W41886  15.383  15.964  14.991 -0.2030 -0.4311  0.0981
28473W        W41887  14.506   2.969  14.649 -0.4896 -0.4754  0.1818
28474W        W41888  13.938  11.257   4.852 -0.0761  0.0112  0.3125
28475W        W41889   7.187   7.242   9.960 -0.1127  0.2411 -0.0298
28476W        W41890   2.160   9.166   2.063 -0.1281  0.0104 -0.2207
28477W        W41891  17.248   2.942  11.079  0.0156 -0.3317  0.0765
28478W        W41892  11.558   9.964  15.682 -0.4665  0.2753 -0.2406
28479W        W41893   5.828  11.620   5.507  0.1369 -0.1845  0.1621
28480W        W41894  15.852  11.188  13.862 -0.2284  0.1714  0.0936
28481W        W41895   6.327  14.156  14.832 -0.1571  0.5001  0.0129
28482W        W41896   0.585   0.625   5.802 -0.0966  0.1183  0.1808
28483W        W41897   3.855   0.410  11.676  0.2710  0.2873 -0.0727
28484W        W41898  14.230  17.459   3.632 -0.0430  0.2503  0.1180
28485W        W41899  12.821  14.450  13.106  0.2392  0.2911  0.0024
28486W        W41900  11.897   7.454   5.581  0.1620  0.3058  0.1239
28487W        W41901   7.842  12.272  11.410 -0.1768  0.0424 -0.2628
28488W        W41902  17.881  16.802  12.268 -0.0943  0.1468 -0.0937
28489W        W41903   0.529  14.304   4.566  0.0539  0.2848 -0.1432
28490W        W41904  13.359   4.624  13.921 -0.1032 -0.1647 -0.0279
28491W        W41905   6.190   4.088   0.243  0.1453  0.1752  0.0587
28492W        W41906   6.172  11.393   4.352 -0.0019  0.1725  0.0103
28493W        W41907  18.026   4.236  15.927  0.2705  0.1140  0.0586
28494W        W41908  16.590   3.365  10.837  0.0086 -0.1079 -0.1553
28495W        W41909   2.090   7.381   3.229  0.0527  0.0721  0.3290
28496W        W41910  13.051  14.677   1.330  0.1590  0.1386  0.0139
28497W        W41911   6.422   2.507   2.645  0.1222 -0.1077  0.0483
28498W        W41912   0.496   8.650  14.045 -0.0136 -0.0845  0.0029
28499W        W41913   0.536   2.281  11.673  0.0719  0.2996  0.3248
28500W        W41914   4.014   6.025  14.026  0.0320  0.0783  0.1575
28501W        W41915  10.358   7.964  13.185 -0.1652 -0.1132  0.1494
28502W        W41916   7.055  13.077  13.338  0.0800  0.1275 -0.0698
28503W        W41917   0.933   3.833   3.977  0.0105 -0.1249 -0.0149
28504W        W41918   3.068  14.762  12.991 -0.0715 -0.0205 -0.1900
28505W        W41919   1.123  13.107   0.444 -0.1187 -0.1814 -0.1187
28506W        W41920   6.726  15.018  12.673  0.0097 -0.0505  0.3503
28507W        W41921   4.552  12.624   1.733  0.1637 -0.3579  0.3277
28508W        W41922  10.370  10.256  13.193 -0.0883  0.2072 -0.3858
28509W        W41923   1.542  14.243   0.072 -0.2872 -0.1626 -0.1864
28510W        W41924  13.343  10.800   6.579  0.0509  0.2329 -0.1304
28511W        W41925   1.620  10.495   1.319  0.1453  0.2186  0.0838
28512W        W41926  15.790   2.568  16.115 -0.1036 -0.2062 -0.0485
28513W        W41927   8.258   1.514  13.837  0.4444 -0.1247  0.0185
28514W        W41928  16.941  17.997   1.104  0.0616 -0.0293  0.0741
28515W        W41929  17.154  17.315   2.176  0.0282 -0.2328 -0.1679
28516W        W41930  18.428  15.340  14.519  0.2201  0.1128 -0.2212
28517W        W41931   3.278  15.471   3.618 -0.2060  0.0928 -0.4592
28518W        W41932   8.648  13.294   5.090 -0.0405  0.1352  0.2277
28519W        W41933   3.738   0.057   3.404 -0.0157 -0.0092  0.2863
28520W        W41934   6.217   5.352   2.846 -0.1875 -0.1427 -0.1352
28521W        W41935   9.864   9.049   0.046 -0.0528  0.0566  0.2843
28522W        W41936   0.034   3.874  15.830  0.1316  0.3801 -0.1926
28523W        W41937  15.611  13.178   3.738  0.2053  0.1151 -0.2048
28524W        W41938  10.238   0.366  11.536  0.1268 -0.0796  0.2593
28525W        W41939  14.161   4.872   6.050 -0.0055 -0.1779 -0.3264
28526W        W41940  16.607   3.593   3.222  0.0136 -0.1084  0.2672
28527W        W41941  12.637  10.467   1.631 -0.2699  0.1785  0.2257
28528W        W41942   7.889   6.486   4.273  0.1507 -0.1708 -0.0245
28529W        W41943  16.466   3.992   4.741 -0.0827 -0.0646 -0.2648
28530W        W41944   2.601   0.288   0.132 -0.0455  0.1952 -0.2310
28531W        W41945   3.978   3.743   0.956  0.1648 -0.1116 -0.1790
28532W        W41946   9.680   4.817   2.151  0.1992  0.0041  0.0613
28533W        W41947   0.806   6.573  13.560 -0.0984 -0.0414 -0.0245
28534W        W41948  10.417   5.972  15.466  0.0001 -0.0091  0.3244
28535W        W41949   7.337  13.266   2.764 -0.0369  0.2792 -0.1311
28536W        W41950  10.849   9.384   0.051 -0.3614 -0.2171  0.1378
28537W        W41951   7.906   2.333  11.732 -0.1119 -0.0135 -0.1047
28538W        W41952  11.058  13.659   0.153 -0.0336 -0.1966  0.1317
28539W        W41953  16.827   5.223   2.976 -0.0271  0.0052  0.1465
28540W        W41954   6.680  15.914   1.363 -0.1975 -0.1146 -0.0135
28541W        W41955  11.082   4.884   2.889 -0.1855  0.0011 -0.1705
28542W        W41956  16.984   5.556   3.405 -0.2135 -0.1905  0.0753
28543W        W41957  14.349  12.970  13.309  0.0158  0.0962 -0.1621
28544W        W41958   6.801   3.631  15.299  0.2773 -0.1013 -0.2501
28545W        W41959  16.165   0.533   5.411 -0.0255  0.0039 -0.2592
28546W        W41960  14.685  17.886   0.203  0.0959 -0.0222  0.0598
28547W        W41961   5.856   6.151   0.998 -0.1010 -0.0128  0.3378
28548W        W41962  14.560  10.666   1.055 -0.0155  0.0569  0.1737
28549W        W41963  11.285   2.402   5.531 -0.0536 -0.0931  0.0883
28550W        W41964  18.374  15.487   6.400  0.0604  0.0884  0.1481
28551W        W41965   4.769  13.986   4.946 -0.0685 -0.4136  0.1676
28552W        W41966  14.732  14.775  10.341 -0.0826  0.4158 -0.3737
28553W        W41967   0.839   0.191   1.036 -0.0469 -0.1468 -0.0383
28554W        W41968  13.340   4.696  11.957 -0.0708 -0.1261 -0.0350
28555W        W41969  17.458   7.252   1.438  0.2074  0.0577 -0.0889
28556W        W41970   1.941  12.041  13.603  0.3095 -0.1799 -0.1185
28557W        W41971  15.250  13.385   4.871 -0.0399 -0.2738  0.3038
28558W        W41972   7.828  14.494   5.133  0.0929 -0.0042  0.0884
28559W        W41973   8.567   2.853  13.187 -0.0794  0.0865  0.1231
28560W        W41974   2.247   8.373  13.032 -0.2201  0.1832 -0.0750
28561W        W41975   5.692   5.725   4.307 -0.2446 -0.1754  0.0681
28562W        W41976   8.813  14.635  11.901  0.0578  0.2036  0.0732
28563W        W41977  12.961   2.992  16.085  0.2647  0.0405 -0.1435
28564W        W41978   9.555   7.603  14.108  0.1983  0.1087  0.1087
28565W        W41979   7.820  13.763  14.216 -0.0200  0.1709  0.2022
28566W        W41980  10.897  15.714  13.008  0.0679  0.0015  0.0654
28567W        W41981   2.518  17.459  11.411  0.1263 -0.1570  0.1884
28568W        W41982   6.061  13.604  14.202 -0.0467  0.3018  0.1800
28569W        W41983  12.073   3.043  12.077 -0.0996  0.2344 -0.0741
28570W        W41984  13.480   8.415   5.211  0.0881 -0.0336 -0.1137
28571W        W41985  16.004   6.405   3.257 -0.1126 -0.0677  0.1593
28572W        W41986   1.028   2.394  11.832 -0.0174 -0.0141 -0.2542
28573W        W41987   9.780   8.361   6.496 -0.3524 -0.0533 -0.0483
28574W        W41988   8.247  15.209   4.400 -0.3442  0.2025  0.3456
28575W        W41989   6.808   9.347  14.431 -0.0190 -0.1008  0.0938
28576W        W41990  15.277   2.892  15.996  0.1359 -0.2646 -0.0058
28577W        W41991   7.605   2.946  16.189  0.1300 -0.2532  0.1656
28578W        W41992  13.402  14.557   5.007 -0.1322 -0.0713 -0.2238
28579W        W41993   0.333  10.079   4.272  0.0211  0.3355  0.2315
28580W        W41994  11.808   0.491  11.508  0.2208 -0.1818  0.2563
28581W        W41995   4.011   3.881  12.883 -0.0103 -0.2090 -0.2887
28582W        W41996   6.945  13.150  12.807  0.1554 -0.2543  0.3664
28583W        W41997  10.866  18.346  14.181  0.2723 -0.3592  0.2817
28584W        W41998   9.865   5.856   2.040  0.0755 -0.0348  0.2235
28585W        W41999  17.025   3.210  13.612  0.3644  0.1972 -0.0072
28586W        W42000   9.414   7.150  11.111 -0.2284 -0.1202  0.4248
28587W        W42001  11.091   8.995   4.385  0.0660  0.1516  0.1161
28588W        W42002   4.147   1.709   0.816  0.6108 -0.1949  0.3954
28589W        W42003   9.859   0.731  12.343  0.1290  0.0661 -0.0409
28590W        W42004   1.872   8.473  14.931  0.4264 -0.2526 -0.3373
28591W        W42005   5.606   8.683   0.590 -0.0579 -0.1093 -0.1335
28592W        W42006   8.307   8.564   2.966 -0.1578  0.2321  0.1186
28593W        W42007   2.860   0.652   2.284  0.0326 -0.3190  0.0027
28594W        W42008   7.515  16.693  12.238 -0.0793 -0.0365 -0.3942
28595W        W42009  14.856  12.780  15.340 -0.1972  0.0375  0.0429
28596W        W42010   6.218  17.083   5.608 -0.2718 -0.1314 -0.2308
28597W        W42011   7.523   7.012  14.300  0.3005  0.1592 -0.0260
28598W        W42012   3.599  15.361  12.971  0.0426  0.2307  0.1567
28599W        W42013   4.762  18.203   1.746 -0.2417  0.3313 -0.0157
28600W        W42014   7.104   6.576   2.398 -0.1142  0.3203  0.3371
28601W        W42015  14.537   4.548   1.701 -0.1271  0.0324  0.3264
28602W        W42016   1.501  16.010   3.401 -0.0580  0.1274 -0.1146
28603W        W42017   0.113  17.381  12.728  0.0785  0.2736  0.2106
28604W        W42018   7.911   8.516  14.855 -0.1844  0.0243 -0.0100
28605W        W42019   5.070  11.760  15.252  0.1452  0.2999  0.2701
28606W        W42020  11.951   2.430   9.573  0.1741  0.0161 -0.3040
28607W        W42021   6.162   4.115  15.245  0.2463 -0.0312  0.1784
28608W        W42022  13.912   2.798   3.911 -0.1215  0.2238 -0.0547
28609W        W42023   2.921  13.996   4.560 -0.4217  0.0040  0.1626
28610W        W42024   5.574   1.632  15.426 -0.1149  0.1075 -0.1612
28611W        W42025  10.367  10.026  11.712 -0.0724  0.2125 -0.0642
28612W        W42026  12.462   7.044   3.239 -0.2808 -0.1459 -0.1030
28613W        W42027   2.289  15.615  11.671 -0.1283  0.0668 -0.0426
28614W        W42028  13.164  15.586  10.735  0.3505 -0.0888 -0.0198
28615W        W42029  10.757   4.726   3.274 -0.2644  0.2042 -0.1740
28616W        W42030  16.912   9.488   4.064 -0.0967 -0.0438  0.1552
28617W        W42031   2.247   7.509   0.669 -0.1078 -0.0240  0.2562
28618W        W42032  14.177  16.411   1.273 -0.0024  0.0505 -0.0653
28619W        W42033   6.188   9.246  12.882 -0.3241  0.0316  0.1860
28620W        W42034  16.550   1.802  15.711 -0.0303 -0.0076  0.3130
28621W        W42035  17.458  18.070   1.439  0.0783  0.0084  0.1613
28622W        W42036  17.011   9.802   5.028 -0.0907 -0.1316  0.2876
28623W        W42037  17.721   2.947  12.229 -0.0210 -0.0596 -0.3297
28624W        W42038   3.295   7.547   5.460  0.0452  0.0177  0.1134
28625W        W42039  16.954   8.409   1.496 -0.2446  0.3220 -0.3070
28626W        W42040  18.001   4.892   3.468  0.0340 -0.0650 -0.0966
28627W        W42041   5.739   1.666  12.519 -0.0930  0.3732 -0.0839
28628W        W42042   2.223  14.125  14.946  0.1077  0.2742 -0.3011
28629W        W42043  16.710   7.479   6.080 -0.1357  0.0698 -0.1263
28630W        W42044  17.083   6.762   2.535  0.2442 -0.0817 -0.0643
28631W        W42045   6.390  15.796  10.734 -0.0507 -0.0543  0.1164
28632W        W42046   4.721   3.889   2.858 -0.0086 -0.0451  0.0407
28633W        W42047   2.183  13.744  10.451 -0.0544  0.1873 -0.2221
28634W        W42048   1.249   0.900  13.906  0.2146 -0.1343  0.0477
28635W        W42049  17.791   1.505  14.301 -0.4427  0.1689  0.0232
28636W        W42050  14.335   0.238   2.652  0.1569 -0.0976  0.1443
28637W        W42051  15.347   3.913  12.611  0.2014 -0.0351  0.1469
28638W        W42052   7.188  11.554   2.542 -0.3279  0.1059  0.0511
28639W        W42053  14.521  13.831  15.417  0.1810  0.3093  0.2523
28640W        W42054  10.830   6.205   5.123  0.2905  0.2640 -0.1247
28641W        W42055   3.058   0.677  10.396  0.2755 -0.1394 -0.0266
28642W        W42056   9.544  10.459  15.322 -0.0251  0.0009 -0.0562
28643W        W42057   8.404  10.236   2.832  0.5478 -0.0231  0.1959
28644W        W42058  17.394   8.143  10.542 -0.1045 -0.2747  0.2704
28645W        W42059   9.151  17.835  11.846  0.2615 -0.1140 -0.0094
28646W        W42060  10.226  17.466  10.980 -0.1826  0.1288 -0.0741
28647W        W42061  14.670   9.551  14.088  0.1256  0.1453  0.1124
28648W        W42062   9.406  13.443  13.247  0.0069 -0.0838 -0.1265
28649W        W42063  16.084   9.135   6.775 -0.0888  0.1681 -0.0570
28650W        W42064   1.271   2.295   5.004 -0.2130 -0.0295 -0.1797
28651W        W42065   4.568   1.078  13.479 -0.0149  0.1550 -0.3881
28652W        W42066   8.746   1.640   5.244  0.0763 -0.0866  0.1160
28653W        W42067  15.563  17.734   5.490  0.0838 -0.2790 -0.0964
28654W        W42068   8.345   7.557   3.858  0.2946 -0.0036  0.3027
28655W        W42069   3.485  10.548   4.155  0.0588  0.1799  0.0672
28656W        W42070   8.948  11.458   4.004 -0.2703 -0.0774 -0.0002
28657W        W42071  15.149   6.872  13.196  0.2540 -0.1074  0.0364
28658W        W42072  13.887   5.593  11.834  0.4491 -0.1121  0.0945
28659W        W42073   2.229   2.496   2.450  0.3002 -0.1574 -0.1136
28660W        W42074   7.997   0.745   4.292 -0.0686 -0.1556 -0.1197
28661W        W42075  11.618  16.606  12.196 -0.3611  0.1131 -0.4271
28662W        W42076   5.887  17.184  15.385 -0.2352 -0.1443  0.2261
28663W        W42077  15.686  13.401  15.147 -0.3544  0.0463 -0.3585
28664W        W42078   3.707  13.525   0.790  0.0444  0.1200  0.1486
28665W        W42079  15.541  11.629   2.126 -0.2497 -0.2625 -0.1694
28666W        W42080   8.172  11.929  14.689 -0.0688 -0.2020 -0.3340
28667W        W42081  14.532   7.691   0.814  0.0171  0.2949  0.1861
28668W        W42082   1.143   4.355  14.701  0.1157 -0.1561  0.1392
28669W        W42083   0.552  10.553   4.291  0.0220 -0.2933 -0.1683
28670W        W42084   9.754   6.493  11.717  0.2962  0.1606 -0.0504
28671W        W42085  11.621   1.394   5.583 -0.0831  0.1617 -0.1048
28672W        W42086   8.600   5.134  14.247 -0.0472  0.2834 -0.1405
28673W        W42087   2.743  13.716   0.520  0.0700  0.3894 -0.0458
28674W        W42088  14.829   5.043   1.890  0.1192 -0.1696 -0.1311
28675W        W42089   3.533   0.178   4.805  0.0871 -0.1254 -0.2024
28676W        W42090  16.088  10.504   2.577 -0.1545 -0.0894 -0.0368
28677W        W42091   1.664  13.449   5.369 -0.1151  0.1370 -0.0871
28678W        W42092  16.331   5.979   5.386  0.0583 -0.1824 -0.1037
28679W        W42093   8.417  11.479   0.430  0.0027  0.1720  0.0425
28680W        W42094  12.746   1.253  11.243 -0.3375  0.4030 -0.3400
28681W        W42095   2.662  14.145   0.799  0.0483  0.2801 -0.0901
28682W        W42096   1.413  11.581   4.564  0.1078 -0.0584  0.0218
28683W        W42097   3.925  16.264  12.433  0.0031  0.0939  0.2460
28684W        W42098  10.912  13.901  15.575  0.0972 -0.0871 -0.3131
28685W        W42099   1.648   7.380  14.954 -0.0223 -0.0458  0.0612
28686W        W42100  13.675  10.319   2.521 -0.2795 -0.0958 -0.2838
28687W        W42101  15.079   7.262   1.005  0.2749 -0.0459 -0.3092
28688W        W42102  16.956   3.119   5.047 -0.1164  0.1779  0.0454
28689W        W42103   9.211   2.395  10.986  0.1000  0.0885  0.2411
28690W        W42104  15.784  14.405   0.715 -0.1292 -0.2021  0.0531
28691W        W42105   2.016   9.800   1.055 -0.1645  0.1725  0.0057
28692W        W42106   0.064   7.932  11.355 -0.3349 -0.0283 -0.0090
28693W        W42107   3.576  14.608   3.098  0.0599  0.0498  0.2199
28694W        W42108  14.139   5.903   1.573  0.4561  0.1430 -0.0074
28695W        W42109  15.311  13.083  13.443  0.1077  0.1671  0.2025
28696W        W42110  10.052   2.120  14.716  0.1708 -0.0416 -0.3406
28697W        W42111   2.515   7.020   3.083  0.4520 -0.2641 -0.3074
28698W        W42112  17.791   1.023   4.269  0.1362 -0.0646  0.4315
28699W        W42113  16.466  13.254   5.295  0.0119  0.3315  0.0395
28700W        W42114  13.833  17.542   0.539 -0.2911 -0.3611  0.0701
28701W        W42115  16.335  16.350  11.257 -0.3592 -0.1167  0.0895
28702W        W42116  13.260  13.759  10.698  0.1373 -0.2139 -0.0522
28703W        W42117   4.979   9.864   0.649 -0.0197  0.1282  0.1197
28704W        W42118   2.055  12.588  12.898  0.2384  0.1410  0.3558
28705W        W42119   7.844   7.302   2.381 -0.3376  0.1723  0.2360
28706W        W42120   1.665  15.228  13.399  0.0067  0.1161 -0.0982
28707W        W42121  14.665  10.750   5.150 -0.1161  0.1222 -0.0904
28708W        W42122  11.997   4.691  10.847  0.0528 -0.1965  0.0665
28709W        W42123  11.953   9.441  14.175 -0.0917  0.0005  0.2598
28710W        W42124   5.517  14.349   3.606 -0.4589 -0.0351 -0.3346
28711W        W42125  13.692  16.802  11.064 -0.0918 -0.0606  0.1071
28712W        W42126   7.557  14.009  14.510  0.1102  0.1415  0.0237
28713W        W42127   7.759   9.012   3.727  0.0306  0.2088  0.0914
28714W        W42128   5.935   7.780  12.280  0.0191 -0.1579  0.1494
28715W        W42129  15.855  16.938  12.818  0.3330  0.0772  0.1391
28716W        W42130  15.889  17.788   2.285 -0.1493 -0.2935  0.0113
28717W        W42131   4.884   3.487  14.768  0.1770 -0.0708 -0.2795
28718W        W42132  10.414   3.302  14.209 -0.1063 -0.0319  0.0783
28719W        W42133   0.194  10.148   0.036 -0.1772 -0.1085 -0.1489
28720W        W42134  14.023  14.387  13.525 -0.0989 -0.0761 -0.1314
28721W        W42135   4.056   0.794   2.048  0.0588 -0.1044  0.2403
28722W        W42136  15.159  17.051   0.109  0.5450 -0.2361  0.1165
28723W        W42137  10.875  12.532  13.868  0.4199 -0.3591  0.0443
28724W        W42138   1.695  10.520  14.237  0.1570  0.0213  0.1564
28725W        W42139   9.613   1.971   1.053 -0.2101  0.0484  0.0122
28726W        W42140  13.452   4.568   4.163 -0.0764 -0.3374 -0.1003
28727W        W42141   0.939  10.367   3.509 -0.0613 -0.0394  0.3543
28728W        W42142   7.215   0.288   9.626  0.1293 -0.3683  0.1016
28729W        W42143  13.155   3.347   3.976 -0.0410 -0.0231 -0.3284
28730W        W42144  18.442  14.627  16.144 -0.3341 -0.1560 -0.2279
28731W        W42145   0.281   0.347  14.154 -0.0972 -0.2255  0.2128
28732W        W42146   5.976   3.895  14.801 -0.1154  0.0636  0.3085
28733W        W42147   1.972   3.302   1.991 -0.1574  0.3732 -0.2321
28734W        W42148   6.222   4.989   1.524 -0.1864 -0.1446  0.0971
28735W        W42149   3.755   8.106   3.216  0.0210  0.0727 -0.3820
28736W        W42150   0.548   0.281  12.204  0.0275 -0.1349 -0.0129
28737W        W42151   3.634  12.538  15.969 -0.2130 -0.2028 -0.1765
28738W        W42152  11.604  17.988   1.887 -0.1475  0.3161 -0.1808
28739W        W42153  13.251   4.729  15.303  0.4497  0.5012 -0.0948
28740W        W42154   2.690  13.038  15.569 -0.0412  0.0606 -0.2317
28741W        W42155   6.088  12.978   3.063 -0.3444 -0.0225  0.4312
28742W        W42156  17.734  13.300  16.271 -0.0747  0.2198 -0.1171
28743W        W42157   0.909  14.396  15.986  0.1351  0.2440  0.0777
28744W        W42158   0.332   9.309  12.588 -0.1266 -0.0801  0.0282
28745W        W42159  17.791   6.919   2.568 -0.2310  0.6056 -0.4172
28746W        W42160  13.971  13.519   0.066 -0.1390 -0.1687 -0.1333
28747W        W42161  13.817  16.766   1.642 -0.1210  0.1920 -0.0672
28748W        W42162  12.759   7.869  11.452  0.0098 -0.0546  0.0276
28749W        W42163   0.459   8.160  11.608  0.2429  0.0894  0.0129
28750W        W42164   2.120   6.196  10.341 -0.4056 -0.1401 -0.0034
28751W        W42165   6.170  10.266   2.552  0.0874  0.0697 -0.0427
28752W        W42166   0.313   8.772   0.489 -0.0752  0.3292 -0.0090
28753W        W42167  15.645  11.245  12.756 -0.1950 -0.0668 -0.0128
28754W        W42168  10.151   6.600   4.387  0.0446  0.0864  0.2162
28755W        W42169  10.011  17.079  14.139 -0.2555  0.1136 -0.1014
28756W        W42170   5.990   0.830  11.519  0.1336  0.0621  0.0904
28757W        W42171   8.227  15.047   1.682 -0.2172  0.1979  0.0034
28758W        W42172   7.550  15.641   1.101 -0.0053  0.1144 -0.4414
28759W        W42173  13.860   7.949   2.693 -0.4259  0.2118 -0.0056
28760W        W42174   2.341  13.344   1.644 -0.0692 -0.1314  0.1881
28761W        W42175  17.525  12.280   4.539  0.0527  0.2455 -0.1745
28762W        W42176  14.175  13.338   4.315 -0.5900 -0.1567 -0.1185
28763W        W42177  16.107   3.802   2.008  0.0355  0.3158  0.3940
28764W        W42178  15.017  10.644  14.310  0.3160  0.0198 -0.0193
28765W        W42179  13.152   6.407   3.150  0.2649  0.0461 -0.2009
28766W        W42180  17.368   7.195  15.724 -0.4853 -0.1047  0.5411
28767W        W42181   6.255  13.660  14.738 -0.0360  0.2157 -0.3125
28768W        W42182   3.985   8.274  13.517 -0.1393  0.1303  0.0611
28769W        W42183  16.845  15.072   1.430 -0.1663 -0.0873  0.1109
28770W        W42184  13.751  17.850   2.373 -0.1877  0.2675 -0.0609
28771W        W42185  10.885  10.621   5.742 -0.0175  0.0575  0.1707
28772W        W42186  14.694   4.463   2.648 -0.2611 -0.0289  0.1209
28773W        W42187   3.743  17.432   0.577 -0.1325 -0.5562  0.0132
28774W        W42188   1.028  10.297   1.941 -0.1478  0.2066 -0.3154
28775W        W42189  15.607  16.050   3.486 -0.3585 -0.0211 -0.0470
28776W        W42190   3.364   6.833  13.363 -0.0392  0.2835  0.0306
28777W        W42191   7.177   0.687   0.875 -0.1270 -0.2067  0.1322
28778W        W42192   6.896  11.952  15.398  0.1379  0.2506  0.0681
28779W        W42193   6.102   1.543  12.106  0.2060  0.2039  0.1834
28780W        W42194   7.707   8.272  15.631 -0.0032  0.1822 -0.0706
28781W        W42195   3.868   2.591  13.044 -0.0715 -0.0301  0.0842
28782W        W42196   3.121  17.540  10.805  0.2081 -0.0662 -0.0548
28783W        W42197   0.953   9.963   3.049  0.0782  0.0338  0.1324
28784W        W42198  16.198   3.915   3.325 -0.0130 -0.0391 -0.0685
28785W        W42199  14.203   4.748  15.114 -0.0115 -0.0683  0.1223
28786W        W42200  10.670  18.047  13.309  0.0709 -0.1448 -0.2853
28787W        W42201   2.094   4.783   3.162 -0.2188  0.1407 -0.2485
28788W        W42202  15.948   3.023   2.201 -0.1355  0.0398  0.0221
28789W        W42203   2.552   7.757  12.273  0.2124  0.4790  0.0648
28790W        W42204   8.087   6.429   2.454  0.3454  0.0136 -0.3664
28791W        W42205  15.744  16.510   5.126  0.0828  0.2593 -0.1865
28792W        W42206  17.660  13.209  10.918  0.0814  0.0529  0.0585
28793W        W42207   5.171   8.725   3.545 -0.0544 -0.3582  0.4851
28794W        W42208   7.609  12.552   4.978  0.2204 -0.0811  0.3586
28795W        W42209   1.547  15.175   0.611 -0.2064  0.1731  0.1613
28796W        W42210  17.808   8.466   3.110 -0.0038  0.0702 -0.1256
28797W        W42211   9.889  15.375  13.513  0.0725  0.1059  0.0902
28798W        W42212  15.205   7.520   4.633  0.1478 -0.2071  0.0984
28799W        W42213  11.826  11.203   1.535 -0.1249 -0.0298 -0.1823
28800W        W42214   5.229   8.461  10.378  0.3119  0.1399  0.1973
28801W        W42215   3.552   8.792  12.020  0.1035 -0.1037 -0.2807
28802W        W42216  10.224   1.368   6.358 -0.0882 -0.0112  0.0873
28803W        W42217   5.353   9.766  11.896  0.1894  0.0185 -0.2892
28804W        W42218  12.627   7.540  15.807 -0.1122  0.3076 -0.3680
28805W        W42219   6.865   8.088  10.841 -0.0146  0.2709 -0.0468
28806W        W42220   1.409   0.347  13.693  0.0237  0.0727 -0.3496
28807W        W42221  11.584  16.049  11.781  0.5098  0.2867 -0.1165
28808W        W42222  17.540  14.859   1.430  0.1344  0.3412 -0.1017
28809W        W42223   5.218   3.461  11.893 -0.0080  0.3245  0.1950
28810W        W42224   1.552  12.314  12.273  0.0366 -0.1033  0.1509
28811W        W42225  14.638   5.550  10.747 -0.1738  0.2307 -0.1763
28812W        W42226  16.377  12.883   2.465  0.3010  0.2664  0.1301
28813W        W42227   7.121  15.301   3.081  0.1072 -0.0631  0.2432
28814W        W42228  17.414   8.614  11.399  0.0690  0.1380  0.1045
28815W        W42229  15.850   5.184  10.543 -0.0076 -0.2398  0.2218
28816W        W42230  16.417  10.337  13.907  0.1192 -0.1609 -0.2691
28817W        W42231   5.593  13.377  14.086  0.2513  0.0632 -0.0457
28818W        W42232  15.635  18.267   4.082  0.2481  0.0302 -0.1595
28819W        W42233   1.547  17.876  13.820  0.1066  0.1476  0.5351
28820W        W42234  14.558   8.175  12.119  0.0416  0.3483 -0.2544
28821W        W42235   5.258   1.632  13.556 -0.2448  0.1822  0.2962
28822W        W42236  10.367   5.015  11.117  0.2816 -0.1381 -0.1988
28823W        W42237  12.239   4.188  11.903 -0.4310 -0.1803  0.2957
28824W        W42238   6.213   5.796  10.533  0.1958  0.1154  0.4271
28825W        W42239  12.880  17.706   0.320 -0.3690 -0.2301  0.0108
28826W        W42240  15.581   1.235  15.031 -0.3718 -0.1159 -0.2395
28827W        W42241   1.427   9.428   3.982  0.1094  0.1446  0.0795
28828W        W42242   6.492   4.926  15.453 -0.1518 -0.1068 -0.0781
28829W        W42243   5.302   4.897   1.823  0.1646 -0.0577  0.1057
28830W        W42244   0.642   1.481   1.959  0.0671 -0.0858  0.0725
28831W        W42245  13.926   4.318  15.258 -0.3056 -0.0409  0.2060
28832W        W42246   7.835  16.636  13.225 -0.0175 -0.1099 -0.0861
28833W        W42247  11.947   4.326   2.469  0.1134  0.1748 -0.1819
28834W        W42248  17.789   1.428  11.485 -0.2384  0.0583  0.0225
28835W        W42249  11.944  15.855  15.189 -0.3460  0.1273  0.4706
28836W        W42250   7.721  13.627  13.717 -0.3976  0.3043  0.0230
28837W        W42251  13.088  18.434   1.892 -0.0645 -0.0052  0.2608
28838W        W42252  10.863  15.577  12.072  0.0535  0.2822 -0.0654
28839W        W42253   1.825   9.644  15.636  0.0009  0.0052  0.0796
28840W        W42254   4.334  17.759  12.229 -0.1071 -0.0702 -0.2344
28841W        W42255  13.563  11.449  11.205  0.1530  0.1680 -0.2384
28842W        W42256   1.351   9.764  12.486  0.0056 -0.1978 -0.1760
28843W        W42257   8.717  14.544  15.632 -0.1365  0.0776 -0.2499
28844W        W42258  11.026   8.033   2.794 -0.2453  0.2110  0.1447
28845W        W42259  16.352   3.807  11.190 -0.1222  0.3774 -0.0338
28846W        W42260   1.624  15.812  14.878 -0.0448 -0.0478 -0.1074
28847W        W42261   0.418  15.922  16.151 -0.0228 -0.0321  0.0792
28848W        W42262   5.192  14.158  16.079 -0.0860 -0.3176  0.2515
28849W        W42263   7.460  10.616   0.273 -0.1271 -0.3755 -0.0536
28850W        W42264   7.627  16.656   4.741  0.0045 -0.4797 -0.1721
28851W        W42265  12.814   9.117  12.027  0.0766  0.2075 -0.0309
28852W        W42266  16.773   2.538  11.609 -0.3175 -0.1963  0.1055
28853W        W42267  11.318   8.624  10.334 -0.1655  0.1443  0.0046
28854W        W42268   0.877   3.630   2.587 -0.1120 -0.1355 -0.2790
28855W        W42269  17.078   1.602  10.774 -0.2545  0.1868 -0.0747
28856W        W42270  16.939  15.121   4.956  0.6864  0.0100 -0.0765
28857W        W42271   6.058   3.952  10.772  0.1815  0.4239 -0.0264
28858W        W42272   7.712  14.858   4.794  0.3596 -0.1680  0.0476
28859W        W42273  11.643  11.051   0.275  0.0646 -0.2001 -0.2916
28860W        W42274   6.403   3.928  15.658  0.1124  0.0165 -0.0255
28861W        W42275   2.978  16.575  12.341  0.2758  0.5359  0.2544
28862W        W42276   1.927  16.005  15.206 -0.1631  0.1181  0.1901
28863W        W42277  13.010  11.679   3.653  0.0457  0.2555 -0.0565
28864W        W42278   9.946   3.367  11.289 -0.3170  0.2424 -0.2420
28865W        W42279   4.298   2.732  12.857 -0.3921  0.2027 -0.2163
28866W        W42280  10.562  14.328  13.337  0.1175  0.2723 -0.4299
28867W        W42281  14.179  16.298  12.407  0.1869 -0.0149 -0.1945
28868W        W42282   4.957  16.326   3.428  0.1768 -0.0778 -0.1226
28869W        W42283   7.737  15.149   4.399  0.0166  0.2381  0.1726
28870W        W42284  14.543   6.851   2.845  0.0595 -0.0084 -0.0035
28871W        W42285   4.895   1.404   4.275 -0.4633  0.0741 -0.3174
28872W        W42286  17.474   7.861  15.339  0.1997 -0.1411  0.2873
28873W        W42287  10.876  12.243   3.826  0.2933 -0.2732 -0.0173
28874W        W42288   4.639  16.237   0.244 -0.0160 -0.1830  0.0381
28875W        W42289  17.095   5.004  14.542 -0.0052  0.0571  0.0547
28876W        W42290  13.866   1.499  12.459 -0.0170 -0.2328 -0.2937
28877W        W42291   9.802   1.653  10.454  0.3220 -0.2101 -0.1082
28878W        W42292  10.723  11.828  15.995  0.2214 -0.4269 -0.2123
28879W        W42293  11.276   1.496  16.009  0.0503 -0.1664 -0.1946
28880W        W42294  11.123  10.524   0.205 -0.1633  0.0461 -0.0277
28881W        W42295  16.190   8.880   0.411  0.0683  0.0898  0.2425
28882W        W42296   6.125   7.889  12.722 -0.1154  0.2132 -0.4013
28883W        W42297   0.602   7.356   4.096 -0.2098  0.0920 -0.0590
28884W        W42298  11.035  14.719  15.144 -0.1176 -0.0651  0.0012
28885W        W42299   8.336   5.815   4.057 -0.0076 -0.2306  0.2776
28886W        W42300   1.327   0.752   3.517 -0.0025  0.0468  0.1256
28887W        W42301   4.364  16.427  10.050  0.0344 -0.1498  0.0783
28888W        W42302   9.369   9.061  14.185  0.2257 -0.2715 -0.0874
28889W        W42303   3.415  12.118  13.976  0.0719 -0.0552 -0.0236
28890W        W42304  16.254   5.380  12.549 -0.1000 -0.1868  0.2439
28891W        W42305   8.938  18.272  14.172  0.3089  0.0204 -0.3196
28892W        W42306  14.925   1.937  16.040  0.0403 -0.0095 -0.1750
28893W        W42307  17.786   2.713  13.062  0.0828 -0.0170 -0.2421
28894W        W42308  16.976  14.549   2.123 -0.0156 -0.1348  0.2979
28895W        W42309  10.745   7.924  11.765  0.0865 -0.0196  0.2113
28896W        W42310  12.008   2.027  14.783 -0.0645 -0.2545 -0.0068
28897W        W42311   6.164  15.170  11.617 -0.1899  0.0230  0.0536
28898W        W42312  11.338   6.844   4.477  0.1747  0.0348  0.1485
28899W        W42313  18.414  17.187  10.925 -0.0445  0.0618  0.1646
28900W        W42314  12.539   6.327   4.453 -0.1009 -0.1008  0.2002
28901W        W42315   1.072   8.627  16.164 -0.1929  0.3715 -0.0695
28902W        W42316   1.836   9.813  10.717 -0.0971 -0.0600  0.1390
28903W        W42317  17.008   4.746  10.895 -0.1822  0.2065 -0.2752
28904W        W42318  12.482   9.487   4.682 -0.1234  0.0409 -0.3601
28905W        W42319   2.333   6.108  11.620  0.0856 -0.0107 -0.0365
28906W        W42320   3.664  14.500   4.065 -0.2428 -0.0565  0.7608
28907W        W42321   5.383   8.471  14.440  0.0164  0.1144  0.0446
28908W        W42322  17.927  18.437  14.540 -0.1085 -0.2422 -0.0249
28909W        W42323  11.324   9.486  12.892 -0.0961  0.2504  0.4212
28910W        W42324  17.883  16.138  12.220  0.1905 -0.3035 -0.0421
28911W        W42325   4.304  14.189  12.581 -0.1966  0.0433 -0.0035
28912W        W42326   0.029  15.075   1.362  0.0853  0.1780 -0.2814
28913W        W42327  16.186  18.325  10.830  0.3077 -0.0582  0.0348
28914W        W42328   7.162   1.435   0.351  0.0387 -0.0858 -0.0139
28915W        W42329   3.836  12.905  11.919 -0.0161 -0.1643  0.1297
28916W        W42330  12.317   1.184   6.087 -0.2118 -0.2172 -0.0748
28917W        W42331  18.235  16.049   1.511  0.4029 -0.0969  0.1604
28918W        W42332   4.073  16.920  11.815  0.0200  0.3041 -0.2385
28919W        W42333   7.101   6.661   3.736 -0.1654  0.2161  0.0855
28920W        W42334   2.623   3.357  16.202 -0.4417  0.0896 -0.0875
28921W        W42335   8.311  17.393  12.735 -0.2435  0.0567  0.2158
28922W        W42336   1.460   8.829  10.773 -0.0539 -0.1656 -0.1946
28923W        W42337   7.235  10.805   2.813 -0.0234 -0.0782  0.2332
28924W        W42338  13.042   8.448   5.407 -0.1974 -0.1604  0.2055
28925W        W42339  12.584  13.075  15.553  0.0418  0.1810 -0.0094
28926W        W42340   8.887  17.317  15.732 -0.3441  0.1267 -0.1804
28927W        W42341   3.360   3.040  11.426  0.2155 -0.1010  0.1914
28928W        W42342   4.478   6.225  13.146  0.1613  0.0017 -0.2000
28929W        W42343  14.911  15.082  12.779  0.2133 -0.1527 -0.0303
28930W        W42344   9.488   0.381  12.641  0.0888  0.1958  0.0254
28931W        W42345   6.814   1.243  15.747  0.0953  0.0191 -0.0611
28932W        W42346   7.278  15.261  10.810 -0.0745 -0.2353 -0.1784
28933W        W42347  10.556   3.400   5.204  0.1525  0.1739  0.1922
28934W        W42348  11.525   0.537   2.304  0.2887  0.0782 -0.1166
28935W        W42349  13.775   0.030  12.617  0.1291 -0.3318 -0.2051
28936W        W42350   5.825  17.248  12.496  0.0830 -0.0454 -0.0974
28937W        W42351   2.343   9.037   5.263 -0.2076  0.0160 -0.0456
28938W        W42352   3.463  16.072  12.312 -0.2317 -0.1233 -0.0281
28939W        W42353  14.744  17.209  11.009  0.4168  0.1071 -0.0473
28940W        W42354  14.758   7.899  15.128 -0.3741 -0.2487  0.0287
28941W        W42355  15.955   2.096   5.122  0.1059  0.1020  0.0632
28942W        W42356  13.880  15.084  14.530 -0.2501 -0.2112 -0.1254
28943W        W42357   5.672   5.257   4.250  0.0050 -0.0225  0.2547
28944W        W42358   4.951  14.227   5.384  0.2738 -0.1474 -0.1109
28945W        W42359  12.244   6.891   1.904  0.0118  0.0575 -0.1532
28946W        W42360   6.155  13.110   1.257  0.1354  0.2036  0.2782
28947W        W42361   5.182  13.659   0.415  0.1979 -0.0121  0.0888
28948W        W42362  12.874   2.323   4.813  0.3401 -0.0964 -0.0648
28949W        W42363   9.431   5.878   5.215 -0.0738  0.1503  0.0247
28950W        W42364   4.448  17.363  14.892  0.2014  0.2338  0.0776
28951W        W42365   3.530  16.137  13.631 -0.1515  0.2495  0.3329
28952W        W42366   6.921  16.376  14.792 -0.0181 -0.1010 -0.0039
28953W        W42367  17.363  15.076  13.220 -0.0232  0.1837  0.1816
28954W        W42368   7.636   4.504  12.750 -0.2840  0.2684  0.0529
28955W        W42369  17.294  13.760  12.146 -0.0210  0.1264 -0.1655
28956W        W42370  11.499  12.609   0.337  0.1264 -0.3572 -0.1396
28957W        W42371  15.096   4.692  14.118 -0.1816  0.3490 -0.1278
28958W        W42372  10.535  12.328   0.451  0.0174  0.0148  0.0098
28959W        W42373   3.505   6.576  10.632  0.1327  0.0346  0.3881
28960W        W42374  14.934  12.059   4.566 -0.1071  0.1695 -0.1192
28961W        W42375   8.721  15.078  12.305  0.1841  0.0782 -0.1370
28962W        W42376   1.991   8.270   1.580  0.1647 -0.3269  0.0900
28963W        W42377   4.958   2.995   3.697 -0.0253  0.0666 -0.2653
28964W        W42378   0.245   7.132   2.250  0.2707 -0.1362 -0.1839
28965W        W42379  11.818   3.096  14.152 -0.0385 -0.1483  0.0082
28966W        W42380   1.941  10.851   0.811 -0.2344 -0.1537 -0.0208
28967W        W42381   0.217  12.398   0.028  0.1684 -0.0154  0.1379
28968W        W42382   2.122   7.139  14.603  0.0582  0.1023 -0.0028
28969W        W42383   2.098   3.463  11.189  0.6326 -0.2409 -0.0971
28970W        W42384  11.817  10.742  13.347 -0.3952 -0.1801 -0.2193
28971W        W42385   4.097  13.604   1.486 -0.2710  0.2061  0.1219
28972W        W42386  12.351  16.177  12.705  0.0312 -0.2606 -0.0862
28973W        W42387  12.649  10.248  12.517 -0.0160  0.2496  0.0637
28974W        W42388   9.369  10.171  11.625  0.0119 -0.4298 -0.2279
28975W        W42389   2.928  17.437   2.646  0.0584  0.0273 -0.2407
28976W        W42390   0.127   3.462  12.342 -0.1993  0.1833  0.1946
28977W        W42391   5.122  14.646   4.255  0.1674  0.6669 -0.3150
28978W        W42392   7.581   2.979  13.126 -0.0916  0.1594 -0.2358
28979W        W42393   3.610   5.066   1.569  0.1737 -0.0101  0.0008
28980W        W42394  18.246   7.358   5.896  0.1389 -0.3581 -0.3922
28981W        W42395  17.267   6.252  14.142 -0.2535 -0.2805 -0.3063
28982W        W42396   2.737  12.992   4.256  0.1700  0.0957  0.0830
28983W        W42397   3.313   2.754  15.000  0.2088 -0.1363 -0.6149
28984W        W42398   8.316   0.416  11.632  0.0127  0.1407 -0.1317
28985W        W42399  17.492   7.197   0.071  0.0260  0.0650 -0.0214
28986W        W42400  15.324   4.490  10.979  0.1351  0.0082  0.1016
28987W        W42401   4.012  13.860  12.157  0.1144 -0.5096 -0.0002
28988W        W42402   2.257  12.724  14.712  0.2607  0.0663 -0.0823
28989W        W42403   6.217   6.268  10.480  0.0941  0.0756 -0.1105
28990W        W42404  12.006  12.965   1.290  0.0871  0.1910  0.1191
28991W        W42405  16.040   1.568  11.562 -0.2164 -0.0240  0.1758
28992W        W42406   0.307   0.167  13.366 -0.1831 -0.0957  0.0501
28993W        W42407   4.518   0.676  12.181  0.1437 -0.1019  0.0892
28994W        W42408  10.310  10.116   0.201 -0.2803 -0.0733  0.1047
28995W        W42409  16.925   8.523  14.756 -0.0668 -0.1463 -0.0180
28996W        W42410  16.795   3.346   1.618  0.0579  0.2248 -0.2532
28997W        W42411  11.593   8.486  13.972  0.0414 -0.1872 -0.0395
28998W        W42412  13.733   9.023   4.420 -0.0523 -0.2443  0.1427
28999W        W42413   5.661  15.753   0.958 -0.1766 -0.3408  0.0347
29000W        W42414   2.860  17.962   5.596 -0.1294 -0.1145 -0.1291
29001W        W42415  16.161  15.933   0.368 -0.0464 -0.1646  0.1480
29002W        W42416   3.856   9.838   5.467 -0.0739 -0.0388 -0.0604
29003W        W42417   8.833  12.504   4.191 -0.0873  0.1308  0.2536
29004W        W42418  13.215   2.800   4.823  0.1456 -0.1553  0.1032
29005W        W42419   4.718   9.273   1.677 -0.0897 -0.0506 -0.1936
29006W        W42420  10.108   3.340  15.618 -0.1420  0.1878 -0.0275
29007W        W42421  12.365   3.083   6.106  0.2121 -0.1239 -0.4120
29008W        W42422   4.213   8.313   0.960  0.5255 -0.2030  0.1268
29009W        W42423   1.784   4.703   4.170 -0.0730  0.0686  0.1332
29010W        W42424  14.567  14.486  14.903  0.0545  0.1476 -0.0107
29011W        W42425   0.690   9.672   4.367  0.2345 -0.1694 -0.2784
29012W        W42426   0.426  14.936  11.896  0.0178  0.1682 -0.0255
29013W        W42427   8.417   9.056   4.402  0.1257  0.0230 -0.0922
29014W        W42428  17.164   1.652  10.254  0.0377 -0.1973  0.0604
29015W        W42429   8.955  15.163   4.815 -0.3251  0.0900  0.0342
29016W        W42430   1.986   5.925  11.278 -0.0926  0.0731  0.0687
29017W        W42431   2.016  14.566  15.119  0.0436  0.0597  0.1820
29018W        W42432   0.175  11.880  16.016  0.0700  0.0608 -0.0627
29019W        W42433  12.055  15.373  14.943 -0.2893  0.0374  0.0798
29020W        W42434  15.390   5.103  14.099  0.2765 -0.1131 -0.2191
29021W        W42435   1.265   7.069  10.954  0.0643 -0.1220 -0.2713
29022W        W42436  14.450   9.565  13.561  0.1333 -0.3265  0.2363
29023W        W42437   9.199  12.601  14.518 -0.0393 -0.2714  0.2111
29024W        W42438   6.095   3.324   0.343  0.0957  0.1000 -0.0025
29025W        W42439  10.432  11.576  10.842  0.0777 -0.1373  0.0383
29026W        W42440   6.126  14.571   2.473  0.0193  0.1257 -0.0214
29027W        W42441   9.511  17.827  11.374 -0.1441  0.0840 -0.4733
29028W        W42442   7.251  11.700  15.685  0.0890  0.1033 -0.0458
29029W        W42443  17.753   4.581   5.900  0.0389  0.3388  0.1182
29030W        W42444  17.119   9.503  10.208 -0.4249  0.1803  0.1685
29031W        W42445  10.749   3.334  14.590  0.2120  0.1557 -0.0119
29032W        W42446   2.153   0.784  16.081 -0.2701 -0.2585 -0.0288
29033W        W42447   9.904  16.607   5.402 -0.0505 -0.0986 -0.0792
29034W        W42448   3.805  13.619   0.229 -0.0786 -0.2028  0.1633
29035W        W42449  18.351   4.212   6.412 -0.0731 -0.1515  0.0547
29036W        W42450   6.847   0.597  10.265 -0.0259  0.1659 -0.4452
29037W        W42451   5.648   5.082  13.323  0.1442  0.0937 -0.0827
29038W        W42452   4.168  10.875  13.587  0.0086 -0.1780  0.0552
29039W        W42453   4.736   0.466  13.835  0.2325  0.2403  0.0776
29040W        W42454  11.361   2.840   0.514  0.0077 -0.0996  0.0775
29041W        W42455   3.947   2.668   1.142  0.0882 -0.0864  0.0456
29042W        W42456   4.876   7.742  14.458  0.0541  0.3505 -0.0328
29043W        W42457   1.612  13.368  12.636 -0.0580 -0.2656  0.0666
29044W        W42458   1.659   5.401   1.131  0.0392 -0.2235 -0.1153
29045W        W42459   1.616  12.135   3.777 -0.0840  0.1146 -0.2669
29046W        W42460  18.366   0.099  15.506 -0.1710 -0.1317  0.0660
29047W        W42461  11.381   4.850  13.626  0.4299 -0.1303  0.1976
29048W        W42462   7.781   8.373  12.544  0.1078 -0.0395  0.2550
29049W        W42463  18.159   1.244  14.070 -0.0027 -0.0031 -0.0303
29050W        W42464   2.708   7.801  10.916 -0.1500  0.0322  0.0035
29051W        W42465   6.686  11.070   0.935  0.1510 -0.2162 -0.1212
29052W        W42466   0.727  15.295   3.331  0.1513  0.0518 -0.2267
29053W        W42467  11.534  17.659  10.495 -0.0574 -0.0435 -0.2302
29054W        W42468   2.295  12.493  11.606  0.1174  0.0523  0.0941
29055W        W42469  15.122  10.121  11.809  0.1439  0.2602  0.1273
29056W        W42470  13.073   9.098   5.971 -0.0505 -0.0514  0.1389
29057W        W42471   7.389   5.455  12.559  0.0585 -0.1562  0.4258
29058W        W42472   7.394   6.245   5.526 -0.0354 -0.3013 -0.0486
29059W        W42473  10.799   4.424   2.853  0.1085  0.0174  0.0931
29060W        W42474   5.009  10.667  12.312  0.1262  0.1975 -0.2159
29061W        W42475  16.083  13.939   0.663  0.0866 -0.2047 -0.0211
29062W        W42476   3.692  10.495  11.389 -0.1143 -0.0700 -0.0740
29063W        W42477   8.958   5.284   3.444 -0.2220 -0.2294 -0.0380
29064W        W42478   4.017   8.031   5.503 -0.1703 -0.2331  0.0493
29065W        W42479   1.354  12.635  14.171  0.0739 -0.0751 -0.2392
29066W        W42480  16.998  16.527   1.017  0.1610  0.2310  0.2748
29067W        W42481  16.882  11.576  11.710 -0.1783  0.0596  0.0310
29068W        W42482  14.168   7.086   2.462  0.0792  0.1516 -0.2986
29069W        W42483   1.170   1.397  14.034 -0.0633 -0.1067 -0.2040
29070W        W42484   4.609   7.578  13.235  0.0284  0.1157  0.1401
29071W        W42485   8.423  12.860  11.140 -0.3818  0.2299 -0.0663
29072W        W42486   8.330  15.281  10.967 -0.1451 -0.0452 -0.2446
29073W        W42487   1.541   6.586   4.434 -0.0373 -0.0354  0.0050
29074W        W42488  15.297  13.837  14.071  0.3336  0.1042 -0.0827
29075W        W42489  18.311   5.971  13.173  0.0778 -0.0372 -0.1040
29076W        W42490   0.367  16.073   5.344 -0.0653  0.2379 -0.0310
29077W        W42491  13.622  15.356   3.111 -0.0720 -0.1519 -0.0061
29078W        W42492  16.718  15.604  10.836  0.0797 -0.1204 -0.3089
29079W        W42493   8.746  16.559  13.204 -0.0757  0.1278  0.3897
29080W        W42494  17.948  16.924  11.080  0.1635 -0.0838  0.4295
29081W        W42495  11.599   1.331  13.560 -0.0585 -0.0059 -0.2206
29082W        W42496   6.932  11.004   5.496  0.1368  0.2521  0.0191
29083W        W42497   0.259   5.599   1.256 -0.0377 -0.2142 -0.0074
29084W        W42498  11.412  16.116   1.840 -0.0335 -0.0806  0.1809
29085W        W42499   1.032  10.063  15.899  0.0504 -0.0843  0.1656
29086W        W42500   4.525  15.757  10.128 -0.0118  0.2751 -0.1268
29087W        W42501   8.102  17.609  13.510  0.1706 -0.1858 -0.1331
29088W        W42502   8.745  11.987   4.032 -0.0062  0.2947  0.1555
29089W        W42503  13.328   5.690  10.495 -0.0378  0.0974 -0.2351
29090W        W42504   6.508   1.229  11.071  0.1348 -0.0958  0.0386
29091W        W42505  10.652   3.135   5.944  0.0238  0.1291 -0.2922
29092W        W42506   5.658  17.907   0.544  0.3643  0.2204  0.2049
29093W        W42507   0.282   7.442  12.687  0.0959 -0.1612  0.1808
29094W        W42508  18.177   2.329   4.706  0.0385  0.1188  0.0858
29095W        W42509   5.055  17.116   0.987  0.0309 -0.4221  0.6030
29096W        W42510   2.484  13.824  15.322 -0.0715  0.3287  0.1395
29097W        W42511  11.546  14.045   2.354  0.2091 -0.2607 -0.0738
29098W        W42512   6.068  14.429  12.136 -0.1210  0.1816  0.2305
29099W        W42513  11.830   0.174  13.939  0.3537  0.2427 -0.3599
29100W        W42514   2.355  14.258  15.512  0.2693 -0.2122 -0.1646
29101W        W42515   0.270  17.449   3.300  0.1110  0.0779 -0.1252
29102W        W42516   1.951   3.052   3.213 -0.0994  0.0923  0.0967
29103W        W42517   6.543   1.340   1.616 -0.1684  0.0477  0.0470
29104W        W42518  11.647   6.530   3.642 -0.0477  0.0853 -0.3233
29105W        W42519   7.447   3.105  14.045  0.0747 -0.1005 -0.0188
29106W        W42520  17.080   7.986  12.973  0.1012 -0.2268  0.1076
29107W        W42521   7.811  15.730   2.248  0.1012 -0.1228 -0.0361
29108W        W42522   7.896  15.979   1.175 -0.3086 -0.2062 -0.0104
29109W        W42523   6.668  18.011   0.570 -0.2617  0.1315 -0.0458
29110W        W42524   7.185  12.828   1.959 -0.0218 -0.0533  0.0663
29111W        W42525   7.359  16.650   0.787 -0.1042  0.0487  0.0991
29112W        W42526  17.899  14.343  15.356  0.1382 -0.1775 -0.3118
29113W        W42527  10.010  11.553  11.454  0.0446  0.1814  0.1585
29114W        W42528   7.319   2.834   4.517 -0.0948 -0.0203 -0.0438
29115W        W42529  10.608  13.623  10.864 -0.0744 -0.0384  0.0197
29116W        W42530   5.293   1.576   5.422  0.1474 -0.0039  0.1650
29117W        W42531  18.337   4.748  13.778 -0.2347  0.0374 -0.1628
29118W        W42532  13.758   7.071   0.681 -0.3201  0.0162  0.0277
29119W        W42533   1.418  11.941   9.868  0.1583 -0.1300  0.3172
29120W        W42534  14.030  13.724  15.376 -0.2720 -0.0339  0.0885
29121W        W42535  10.981  10.512   2.827 -0.2230 -0.0200 -0.3443
29122W        W42536  14.626  11.981   4.132 -0.1008 -0.3212  0.1017
29123W        W42537  18.004  16.070  15.550 -0.3738  0.2967  0.0864
29124W        W42538   0.334   1.935   6.046  0.1563 -0.1402  0.0641
29125W        W42539  14.960  11.603  13.358  0.0382  0.1769 -0.2522
29126W        W42540   7.209   9.823  14.534  0.2458 -0.0689  0.0341
29127W        W42541   2.037   1.701   1.268  0.1415 -0.1207 -0.1149
29128W        W42542  13.918   4.968  10.943 -0.0444 -0.0377  0.0646
29129W        W42543   3.114   9.900  12.800  0.0254  0.2673  0.0400
29130W        W42544  13.583  17.596   2.894 -0.0370  0.2573 -0.0691
29131W        W42545  13.745   9.246   2.095  0.1922  0.2750  0.2779
29132W        W42546   5.607   6.138  14.888 -0.2033  0.0950  0.4431
29133W        W42547   2.810  10.755   4.148 -0.2423  0.1126 -0.3001
29134W        W42548  17.837   7.395   1.002 -0.1023 -0.0708  0.0493
29135W        W42549  11.296   0.860  13.726 -0.0601 -0.0204  0.4334
29136W        W42550  13.316   0.470   2.967  0.0625  0.0379  0.0408
29137W        W42551  17.379   0.857   4.068  0.2043  0.1058  0.3684
29138W        W42552   4.659   0.242  13.083  0.1429  0.1382  0.1634
29139W        W42553   3.590  14.378   0.837  0.1499 -0.1329 -0.2392
29140W        W42554   5.560  12.519   3.834  0.2203 -0.0307 -0.0696
29141W        W42555   0.225   5.073   0.800 -0.2895  0.1676 -0.1089
29142W        W42556   2.601  11.315   4.960 -0.0031  0.1844  0.0981
29143W        W42557  15.646   5.767  12.890  0.0276  0.1569 -0.0975
29144W        W42558   3.224   5.685  16.057 -0.1263  0.1141  0.0958
29145W        W42559   4.479   3.150   2.383  0.0619 -0.0937 -0.3661
29146W        W42560  13.130   1.438   4.604  0.1012  0.6953 -0.1136
29147W        W42561  16.271  16.382  15.809  0.3397 -0.0122 -0.1733
29148W        W42562  15.592   4.159   0.526  0.0793  0.0422 -0.0764
29149W        W42563   5.540   4.268  14.384  0.2586  0.3187 -0.0376
29150W        W42564  16.949   7.556  13.374 -0.4490 -0.2042 -0.3474
29151W        W42565  17.914  14.555  12.382 -0.0901 -0.1380  0.0597
29152W        W42566   8.077   6.801   1.491 -0.0513  0.0543 -0.2875
29153W        W42567   9.149   8.721  11.957 -0.1591 -0.2447  0.1087
29154W        W42568   8.958  12.838   5.417 -0.1223 -0.2320  0.1043
29155W        W42569   0.576  15.141   5.190  0.0949  0.1257 -0.1569
29156W        W42570  16.871  11.100   5.293  0.0547  0.0417  0.1908
29157W        W42571  14.635   7.488   3.876 -0.1251 -0.1760  0.5168
29158W        W42572  13.543  14.918  13.586  0.1075 -0.1341 -0.1410
29159W        W42573  15.135  12.703  12.645  0.0295  0.1991  0.1229
29160W        W42574   8.774   9.960   2.021  0.3163  0.0550 -0.0987
29161W        W42575   8.753   1.125  10.193 -0.1432  0.1226  0.0641
29162W        W42576   3.467  11.226   5.335 -0.4192 -0.2316 -0.0743
29163W        W42577  11.925   1.819  15.372 -0.0818 -0.0064  0.2122
29164W        W42578  16.018   3.845   5.972  0.0966 -0.2417  0.1956
29165W        W42579   8.008  17.949  11.753 -0.5220  0.0175  0.0555
29166W        W42580   4.451  14.575   4.624 -0.0328 -0.2656 -0.1441
29167W        W42581  14.543   1.216  13.110 -0.1120  0.3010  0.3090
29168W        W42582   8.624  17.973  11.339 -0.1573 -0.0604  0.1742
29169W        W42583   7.829   1.008   1.957 -0.0688  0.3070 -0.1272
29170W        W42584  16.327   3.409   4.769  0.2140  0.0065 -0.1454
29171W        W42585   1.105  11.758   3.000  0.0575  0.0498 -0.0503
29172W        W42586   5.636   3.243   1.208  0.1640 -0.3851  0.1163
29173W        W42587  13.811  16.190  10.732 -0.2439 -0.0938 -0.0123
29174W        W42588  14.284  10.041  13.658  0.1432 -0.2309 -0.1725
29175W        W42589  17.116  10.347  13.165  0.2117  0.0042  0.0682
29176W        W42590  13.280  16.115   1.128 -0.0507 -0.1340 -0.1987
29177W        W42591   8.037   2.885   0.233  0.0031 -0.3282  0.0698
29178W        W42592   7.687  15.081  12.980 -0.1554  0.3016  0.1172
29179W        W42593   6.925   3.878  14.470 -0.1062 -0.0482 -0.1169
29180W        W42594  11.527   8.853   0.601 -0.0253 -0.4401  0.3631
29181W        W42595   2.551   2.842  12.445  0.2265  0.1750  0.1429
29182W        W42596  14.899   1.266  13.976 -0.1717  0.0152 -0.1472
29183W        W42597  11.471   8.361  11.061  0.6447 -0.0858  0.2883
29184W        W42598  12.233   1.915   3.797 -0.2186  0.6477 -0.0231
29185W        W42599   5.412  14.546   4.837  0.2282  0.0167 -0.2641
29186W        W42600   8.998  15.448  11.070 -0.1024  0.1803 -0.1982
29187W        W42601   1.788  16.139  10.987  0.2296  0.0631  0.2126
29188W        W42602  16.322   4.596   6.442 -0.2023  0.0644  0.0775
29189W        W42603   2.630   9.472  12.254 -0.1652  0.0723 -0.1331
29190W        W42604   5.266  17.564   0.589 -0.2601 -0.1091  0.0166
29191W        W42605   3.213  16.953  15.632 -0.2282  0.2986 -0.2327
29192W        W42606   6.248  15.568   3.033  0.2153  0.3498  0.3489
29193W        W42607   8.057   0.234   5.080  0.1778  0.0520  0.1192
29194W        W42608   6.497  12.901  13.120 -0.1937 -0.1678 -0.4157
29195W        W42609  13.905   7.144   5.902 -0.1779  0.2305 -0.0416
29196W        W42610  17.962  16.931   4.860 -0.1874 -0.0545  0.0006
29197W        W42611   3.777   7.447  13.923 -0.2594  0.1688  0.1014
29198W        W42612   3.224  17.836   5.920  0.0281  0.2106 -0.3439
29199W        W42613  12.001  14.763  11.811  0.0302  0.0188  0.0315
29200W        W42614  10.362  14.268   1.005 -0.1215 -0.0646  0.0143
29201W        W42615  16.665  11.395   5.668  0.0235 -0.2218  0.1317
29202W        W42616  13.430   1.787   1.460 -0.2079 -0.0539 -0.0983
29203W        W42617   5.135   6.696   0.746 -0.1582  0.1266 -0.0245
29204W        W42618  10.757   4.829   0.569  0.1903  0.1975  0.0448
29205W        W42619  16.688  10.979  14.879  0.2732  0.0282  0.1647
29206W        W42620   8.345   8.947  15.623  0.3295 -0.0957 -0.2088
29207W        W42621   6.286   2.881   0.669 -0.1179  0.1378 -0.2031
29208W        W42622  10.737   6.177  10.630 -0.1542  0.1390  0.0647
29209W        W42623   9.840   0.198  12.386 -0.3206 -0.0501 -0.1734
29210W        W42624  14.608  10.433   2.793 -0.0190 -0.2476 -0.1592
29211W        W42625   5.427   8.571   1.633  0.3645 -0.1090  0.0615
29212W        W42626   4.489  11.819   2.525 -0.0483 -0.3275 -0.1283
29213W        W42627   9.935  17.710  12.960  0.0050  0.1661  0.1486
29214W        W42628  15.690  16.017   2.602 -0.3206 -0.0590 -0.0628
29215W        W42629  10.233   8.271   3.327  0.0017  0.1164  0.0376
29216W        W42630  12.907  12.455   1.983  0.1124  0.0092 -0.2736
29217W        W42631   5.629   4.132   4.963  0.1568 -0.2154 -0.1679
29218W        W42632   4.215   6.864  12.470  0.1136  0.2716 -0.0218
29219W        W42633   5.033   9.613   2.202 -0.0653 -0.0125 -0.0282
29220W        W42634   9.719  10.050  15.102 -0.0197  0.0908 -0.0329
29221W        W42635  13.811   4.757  13.764  0.0131  0.2314  0.3166
29222W        W42636   3.775   1.420  11.193  0.0698  0.1348 -0.1707
29223W        W42637  11.434  12.419   5.413  0.1604  0.1233 -0.2772
29224W        W42638   3.133   2.293   0.269 -0.0005  0.0417 -0.0763
29225W        W42639   2.742   6.610   3.229  0.1318  0.1991  0.1464
29226W        W42640  12.585  15.034  11.891  0.2159  0.0452  0.2775
29227W        W42641   4.659   8.812   1.508  0.3458  0.0573 -0.0028
29228W        W42642  14.846  13.783   4.938  0.1092  0.0020 -0.0168
29229W        W42643  17.080  17.200  11.916  0.0595 -0.1748 -0.3695
29230W        W42644  16.783  11.928   5.037 -0.5857  0.0901  0.0008
29231W        W42645   9.665   0.782  10.402 -0.0316 -0.0743 -0.1467
29232W        W42646   3.016   1.385  11.332  0.1296  0.2692  0.3057
29233W        W42647   8.524  13.113   5.589 -0.1544  0.3420  0.0559
29234W        W42648   1.202  14.232  14.270 -0.3248  0.2123 -0.3130
29235W        W42649  10.715   9.601  14.101 -0.2291  0.3187  0.0885
29236W        W42650  11.634  11.272  15.930  0.0966 -0.4536  0.0572
29237W        W42651   9.958  16.757   1.125  0.1308 -0.2937  0.1286
29238W        W42652   2.455  13.238   0.236 -0.1080 -0.1441  0.0970
29239W        W42653   3.498  16.970   1.444  0.1115  0.4515 -0.2230
29240W        W42654   2.078  16.575  13.657  0.0205 -0.3026  0.0431
29241W        W42655  12.404  16.866  13.901  0.1223 -0.2233 -0.0565
29242W        W42656   0.163  14.569   3.310 -0.1771  0.0029 -0.1327
29243W        W42657  10.215  11.206  13.238 -0.1622 -0.1942  0.1659
29244W        W42658   5.609   0.561   6.188  0.0484 -0.1320  0.0058
29245W        W42659   5.000  14.027  15.052  0.0744 -0.3923 -0.3127
29246W        W42660  14.793   7.273   0.581 -0.2723 -0.0889  0.3397
29247W        W42661   8.057  12.163   2.638  0.1097 -0.2039 -0.2381
29248W        W42662  17.882   2.805   5.388 -0.2223  0.0997  0.1080
29249W        W42663   3.623   3.589  13.156 -0.1101  0.2168 -0.1549
29250W        W42664  14.658  16.427  10.981  0.0740 -0.1211 -0.1323
29251W        W42665  17.688  17.238  12.712  0.2386 -0.0430 -0.2114
29252W        W42666   1.715   6.307  11.393 -0.0267  0.1013 -0.0244
29253W        W42667  14.478   4.702   2.238 -0.0980  0.1619  0.1955
29254W        W42668  15.570   2.596   5.626 -0.0081  0.1802 -0.2024
29255W        W42669   5.200  18.156  13.682 -0.0282 -0.1457 -0.2090
29256W        W42670   6.662  11.265  11.857  0.1434  0.3359 -0.3156
29257W        W42671  15.315   3.650  14.995 -0.2182 -0.1248  0.0415
29258W        W42672  10.829  17.973  10.854  0.0783  0.0801 -0.1039
29259W        W42673  14.885   9.390  10.287 -0.0264  0.1395  0.2192
29260W        W42674   3.594  12.978  13.564 -0.1847  0.0652  0.0692
29261W        W42675   9.549   6.859  13.712  0.3159  0.0952 -0.1670
29262W        W42676   7.335  16.680  16.094 -0.0114 -0.1106 -0.2335
29263W        W42677  11.017  17.335   3.855 -0.0641  0.0612 -0.1435
29264W        W42678  13.563  14.855   0.548 -0.2577 -0.0552 -0.0520
29265W        W42679   8.381   9.957   1.235 -0.2423 -0.0785 -0.0152
29266W        W42680  11.096  13.263   3.916 -0.0229  0.1308 -0.0431
29267W        W42681   3.653   3.766   4.737 -0.1582  0.1859  0.0981
29268W        W42682  12.130  14.882  14.958  0.2708  0.0130  0.4167
29269W        W42683  17.680   6.402   1.130  0.0234 -0.2670 -0.4117
29270W        W42684  17.135  18.130  11.154  0.1025  0.4191  0.0980
29271W        W42685   6.758   8.478   5.331 -0.1408 -0.2142  0.2370
29272W        W42686  12.198  16.249  13.741 -0.1114 -0.0514 -0.0464
29273W        W42687  12.030  13.214  11.553 -0.0703 -0.1655 -0.2784
29274W        W42688   9.506   1.042  11.005 -0.2386  0.0682  0.2887
29275W        W42689  13.608   7.642   3.936 -0.0367 -0.4664  0.0641
29276W        W42690   9.400  14.640  12.649 -0.0114  0.0400 -0.0327
29277W        W42691   7.743  12.188  14.781  0.3423 -0.0669 -0.2605
29278W        W42692   5.002  10.690  13.326 -0.2367 -0.1134  0.0544
29279W        W42693  18.067  16.687   5.362  0.0869  0.0245  0.1699
29280W        W42694  12.366   0.751  10.283 -0.1777 -0.0428  0.0793
29281W        W42695   9.352  18.334  13.092 -0.1643  0.0141  0.0048
29282W        W42696   3.293  12.569   2.683  0.2034  0.2222 -0.3019
29283W        W42697  15.341  10.797   4.122 -0.0950 -0.2620 -0.3549
29284W        W42698   1.555  15.408   3.487  0.0116 -0.0169 -0.1105
29285W        W42699  13.085  15.116   6.158  0.0197  0.3844  0.2260
29286W        W42700  14.591  13.131   4.075 -0.4102  0.1812  0.1761
29287W        W42701  16.995   6.353   5.320 -0.1153  0.1053  0.0818
29288W        W42702  14.735   3.413  14.413 -0.3555  0.3655  0.1045
29289W        W42703  14.328  14.997  10.173  0.1286  0.2273  0.0314
29290W        W42704   9.016  13.451  12.060 -0.3535 -0.0804 -0.1704
29291W        W42705   9.332  18.178  13.602 -0.0332  0.3147 -0.2034
29292W        W42706   9.538   8.276  13.559 -0.0544  0.1067  0.0751
29293W        W42707  15.047  15.369   1.411 -0.0290 -0.2198 -0.0453
29294W        W42708  13.529   1.649   3.412 -0.0438 -0.1105 -0.0183
29295W        W42709   7.279   5.134  15.185 -0.2804 -0.3332 -0.1518
29296W        W42710   5.707   5.907   1.445  0.2181 -0.1732 -0.0694
29297W        W42711   2.680  10.535   5.322  0.0922 -0.0267 -0.1659
29298W        W42712   4.191   6.424  11.122 -0.3939 -0.2358 -0.0591
29299W        W42713  14.680  16.771   5.049 -0.0155 -0.2496 -0.1016
29300W        W42714   2.634  12.863   5.175 -0.1303 -0.0919 -0.2481
29301W        W42715   7.313   5.457   2.127 -0.0327 -0.1619 -0.0239
29302W        W42716   7.216   8.981  12.654  0.0634 -0.0631  0.1251
29303W        W42717   6.211   6.740   2.485 -0.0612 -0.0911  0.1533
29304W        W42718   0.323   3.183  14.723 -0.1913 -0.1301 -0.1773
29305W        W42719   8.103   3.666  12.699 -0.3409 -0.2590 -0.0946
29306W        W42720   0.049  17.343   1.417  0.1392  0.0399 -0.2156
29307W        W42721  10.655   6.555  12.075  0.2573  0.2016  0.0285
29308W        W42722   8.615   3.167   4.935  0.0257 -0.3873  0.0199
29309W        W42723   1.219   3.472   4.104  0.0558 -0.2832 -0.0471
29310W        W42724   2.575  12.337   5.141  0.2072 -0.1350  0.1686
29311W        W42725   4.170   4.843  13.294  0.3062 -0.1386 -0.1304
29312W        W42726  16.031  12.889  13.440 -0.0633  0.1738  0.0849
29313W        W42727  12.703   8.707   0.971  0.2754  0.2525 -0.0976
29314W        W42728  17.921   8.014  12.740  0.1122  0.2254 -0.0989
29315W        W42729  17.377  18.312   3.644 -0.2942 -0.0082  0.1895
29316W        W42730  14.128   9.280   6.060 -0.1228 -0.3089 -0.6085
29317W        W42731   2.382   7.241   4.596  0.2659  0.1216  0.0619
29318W        W42732   3.957  16.073  13.396  0.1433 -0.1954 -0.0294
29319W        W42733  12.991  14.654  12.630 -0.0394  0.0955 -0.1346
29320W        W42734   8.649   9.664   2.509 -0.2689  0.1141 -0.1058
29321W        W42735  16.129   9.663  13.319  0.0016 -0.2428 -0.1508
29322W        W42736  12.681   4.596  15.441 -0.5326  0.0084  0.0861
29323W        W42737  11.089   2.990  12.380 -0.1328  0.0590  0.0229
29324W        W42738  16.766  11.827  16.164  0.1533 -0.2374  0.3459
29325W        W42739  14.495  16.908  13.495 -0.1310 -0.1508  0.2464
29326W        W42740  18.113  11.847  15.801 -0.0365 -0.1717 -0.4932
29327W        W42741   9.636  12.463  14.307  0.1321  0.0979  0.4135
29328W        W42742  16.029  17.707   2.757 -0.5385 -0.3813  0.0589
29329W        W42743  17.713   7.848  16.148  0.0652  0.0173 -0.1480
29330W        W42744  15.841   2.914   5.836 -0.1478  0.1269  0.0427
29331W        W42745  14.025   8.565  14.798 -0.0161  0.0419  0.0645
29332W        W42746   0.409  11.310  11.290  0.0331  0.0902  0.1169
29333W        W42747   5.747   6.662  15.644 -0.1022  0.1438 -0.0457
29334W        W42748   4.412   7.903  10.493  0.1194 -0.3285  0.0276
29335W        W42749   7.174   1.445   2.496 -0.1206 -0.0842  0.0228
29336W        W42750  12.558  14.741  16.098 -0.1244  0.0849  0.3977
29337W        W42751  16.724  10.615   3.074 -0.1228 -0.1351  0.2965
29338W        W42752   6.471  12.055   4.224 -0.0410  0.0988  0.1798
29339W        W42753  16.525  16.817   5.568 -0.0152 -0.0518 -0.3383
29340W        W42754   6.443   5.979  11.470  0.0134  0.0462  0.1326
29341W        W42755   0.514  14.952   0.999 -0.0864  0.1367 -0.0241
29342W        W42756   4.621   2.980   3.292  0.1358 -0.1627  0.0242
29343W        W42757  17.555   1.323  12.715 -0.1635  0.0446 -0.0501
29344W        W42758  13.168   9.606   3.888 -0.0618 -0.1872 -0.0001
29345W        W42759   5.299   5.808   2.234 -0.1355 -0.0569  0.2437
29346W        W42760   3.217  13.299   5.616 -0.0322 -0.0445  0.0831
29347W        W42761   3.832   0.803  11.998  0.0813 -0.0257 -0.0616
29348W        W42762   1.555   7.200   2.895  0.0151  0.1509  0.2778
29349W        W42763   3.283   0.084  13.381  0.0655  0.3508 -0.1538
29350W        W42764   8.975  11.441  15.897 -0.1113 -0.0826 -0.2549
29351W        W42765   5.664   6.307   5.321 -0.1508 -0.1181 -0.2922
29352W        W42766   3.975  17.198   1.474  0.1347 -0.1798  0.1165
29353W        W42767  11.714  11.734  11.460 -0.1669  0.0929 -0.0186
29354W        W42768   2.941   7.359  11.231 -0.2494  0.1362 -0.1507
29355W        W42769  11.686  13.691   6.155  0.1088  0.1926 -0.0326
29356W        W42770   1.725   4.735  15.486  0.0894  0.3600 -0.1012
29357W        W42771   9.040   2.108  12.834  0.3192  0.1726 -0.2281
29358W        W42772  11.519   8.054  12.445  0.0277 -0.0779  0.0388
29359W        W42773  18.412  11.147  15.306  0.1633  0.1026  0.2318
29360W        W42774   7.568   7.000  11.193 -0.0476  0.2083  0.0320
29361W        W42775  17.799   3.157   3.515  0.1107  0.0502  0.0066
29362W        W42776  16.469  14.157  15.185  0.1254 -0.0055 -0.0368
29363W        W42777   8.146   5.816  14.941 -0.0475  0.0611 -0.0983
29364W        W42778  12.762  14.263   1.291 -0.1690 -0.2924  0.2738
29365W        W42779  16.109  16.989   5.358 -0.0358  0.0297  0.2547
29366W        W42780   3.132  16.685   0.707 -0.4466  0.1934  0.0484
29367W        W42781   5.713   2.545  12.630 -0.0186 -0.3217  0.0514
29368W        W42782   7.548   8.471   0.663  0.0853 -0.2014 -0.0770
29369W        W42783  10.361   8.139  16.269 -0.1101  0.0892 -0.0290
29370W        W42784   1.777   1.117   5.823  0.3098 -0.1472  0.1837
29371W        W42785   0.677   0.845  14.531  0.0615  0.3307 -0.0267
29372W        W42786  13.272   2.717  15.764  0.0348 -0.0305 -0.0362
29373W        W42787   6.086   6.438   3.437 -0.0145 -0.1320 -0.0110
29374W        W42788  18.171  18.150   3.788  0.0245 -0.1478  0.0646
29375W        W42789  14.461  17.266  13.820  0.0988 -0.0938  0.2378
29376W        W42790   9.038  11.459  12.515 -0.0771 -0.1233  0.4587
29377W        W42791  17.859  16.448   3.182 -0.0280 -0.1580  0.1577
29378W        W42792   2.021  12.332   4.975  0.2952  0.0327 -0.1432
29379W        W42793   2.521  17.352  13.420  0.3183  0.1983 -0.0928
29380W        W42794   2.426   6.256  10.716  0.2273 -0.0767 -0.0438
29381W        W42795  14.877  15.994   4.078 -0.1412  0.1366  0.0240
29382W        W42796   1.507   2.913   0.114  0.1613 -0.1890  0.0165
29383W        W42797   5.414  14.700  14.209 -0.1165  0.1114 -0.1690
29384W        W42798   8.771   0.993   3.671 -0.0788  0.2601 -0.0325
29385W        W42799  10.775   7.568   0.033 -0.0720  0.0254  0.0590
29386W        W42800  16.001   5.361   0.070  0.0259  0.2815 -0.0624
29387W        W42801  16.506   4.826   4.515 -0.0057  0.1099  0.0234
29388W        W42802   1.966   2.316   4.177 -0.0979 -0.2865 -0.4035
29389W        W42803  17.844   6.395   6.007 -0.2890 -0.0529  0.3860
29390W        W42804   6.459  13.891   4.537 -0.4139 -0.1959 -0.1712
29391W        W42805  15.751  15.047   0.522  0.4107  0.0956  0.1985
29392W        W42806  14.929  14.753   0.573  0.0320  0.0530 -0.1369
29393W        W42807   0.646  12.272   4.302 -0.0847  0.0049  0.3133
29394W        W42808  14.119   3.664  12.707  0.0518  0.1631  0.7423
29395W        W42809  10.347   0.271   2.142 -0.1218 -0.3426 -0.0734
29396W        W42810   8.177  15.652   1.521 -0.0493  0.2130 -0.2081
29397W        W42811   6.094   6.225   2.462 -0.4737 -0.0239 -0.0067
29398W        W42812  11.781  17.530  13.826  0.2294 -0.2633  0.2478
29399W        W42813   2.193  11.289  15.430  0.1401 -0.1577 -0.3941
29400W        W42814  13.607   3.870   1.741 -0.0249 -0.0279  0.3656
29401W        W42815   3.268   8.073  12.982  0.2837 -0.0741 -0.0615
29402W        W42816   6.991   0.794  14.975 -0.2502 -0.1157 -0.0313
29403W        W42817   7.841   5.103  10.232  0.0003 -0.1249 -0.1826
29404W        W42818  15.506  13.987  11.107  0.1680  0.2285  0.2500
29405W        W42819   3.837   0.991   2.529 -0.0800  0.1559  0.0378
29406W        W42820   4.272   5.831   9.654  0.1318 -0.1277  0.0494
29407W        W42821   4.271   7.413  11.227 -0.1896 -0.1229 -0.1414
29408W        W42822   1.529   3.729  10.645 -0.1479  0.0862  0.2944
29409W        W42823  11.836   0.828  13.591  0.1068  0.2264 -0.0578
29410W        W42824  17.342   8.591   2.250 -0.0584 -0.0534 -0.0949
29411W        W42825  14.478   3.948  13.691 -0.2585  0.1952  0.1883
29412W        W42826  10.991  15.806  12.500  0.1393 -0.2317 -0.1533
29413W        W42827   4.664   5.456  15.163 -0.1440  0.1723 -0.1819
29414W        W42828   1.025  10.132   0.143 -0.2182  0.1092  0.0120
29415W        W42829   0.327  11.608   5.551 -0.1662  0.1074  0.2748
29416W        W42830  12.236  10.419  15.131  0.0912  0.2277  0.2584
29417W        W42831  16.748  14.648   1.663 -0.0815  0.0415  0.0797
29418W        W42832  13.556  10.949   5.232  0.0181  0.0726  0.0076
29419W        W42833   7.629   5.246   5.594  0.0093  0.4190  0.0845
29420W        W42834   2.015   0.628  14.317  0.0735 -0.1483  0.2290
29421W        W42835   8.116   9.794   2.649 -0.0389  0.1085 -0.0915
29422W        W42836  17.634   3.121   0.037 -0.0307  0.0511 -0.0576
29423W        W42837   1.511   0.743  15.901  0.0109 -0.1488 -0.2419
29424W        W42838  12.053  10.529   3.928  0.2760  0.0231  0.1367
29425W        W42839  15.707  10.487   5.852  0.0628  0.1851  0.0309
29426W        W42840  15.944   2.700   0.311  0.2256 -0.0787  0.1606
29427W        W42841   7.740   3.845  13.059 -0.2336  0.0683 -0.0237
29428W        W42842  11.766   3.214   4.119  0.0047  0.0902 -0.0897
29429W        W42843   3.543  12.713   0.231  0.1559 -0.2576 -0.3098
29430W        W42844   4.346   0.097   0.828 -0.0489  0.0764  0.2198
29431W        W42845   3.987   3.693  16.010 -0.0602 -0.0139 -0.0426
29432W        W42846  12.044  13.241  13.875  0.1316 -0.2093 -0.2179
29433W        W42847   8.086   7.769   6.081  0.1334 -0.0037  0.0970
29434W        W42848   4.079  16.085  15.969  0.0766  0.3533 -0.2053
29435W        W42849   8.545   0.429  11.200  0.4641  0.1306  0.1280
29436W        W42850  15.538  16.829   2.142  0.0858  0.0970 -0.2712
29437W        W42851   8.695   6.055  13.623 -0.0904 -0.2099 -0.0134
29438W        W42852  11.761   9.174   2.891 -0.0123 -0.1320  0.0880
29439W        W42853  15.607   6.727   4.326 -0.2828  0.3041  0.2130
29440W        W42854   3.194  16.517  15.488  0.2749  0.1777  0.0844
29441W        W42855   9.372  17.815   4.961  0.2281  0.0444  0.0125
29442W        W42856   2.073  13.598  15.080 -0.2177  0.0770 -0.0961
29443W        W42857  15.181   2.117  11.701 -0.2086  0.1395 -0.4323
29444W        W42858  10.904  11.571   3.186 -0.3054  0.3141  0.0570
29445W        W42859   5.025   1.292  15.835 -0.0211  0.2233 -0.0644
29446W        W42860  16.351   5.813   1.163  0.0856  0.0626  0.1173
29447W        W42861   3.696   1.506  15.603 -0.1666  0.0146 -0.4563
29448W        W42862   9.404  17.769   0.393  0.0098  0.0051  0.0499
29449W        W42863   0.311   0.760   3.464  0.0429  0.1748  0.2934
29450W        W42864  10.493  11.512   5.329  0.1779 -0.0498 -0.0658
29451W        W42865  13.811   3.987  10.824 -0.1189  0.0777 -0.3432
29452W        W42866   2.719   7.993  14.829 -0.0007 -0.0201  0.0418
29453W        W42867   0.215  16.369   1.554 -0.1886 -0.0697  0.1942
29454W        W42868  10.069  15.216   2.479 -0.1472  0.1473 -0.1495
29455W        W42869  10.905  15.887  15.546  0.0809 -0.0669 -0.2494
29456W        W42870   2.499  13.875  10.131  0.0103  0.0864 -0.1157
29457W        W42871  15.366   6.102  10.648  0.1765 -0.1007  0.3298
29458W        W42872   9.471  10.232   1.184  0.3458 -0.2538  0.1378
29459W        W42873  10.667   1.934   2.817  0.0380  0.1216 -0.0326
29460W        W42874   0.528  17.318   1.257  0.2424 -0.0027 -0.1260
29461W        W42875   4.356   9.127  15.023  0.0115 -0.2062 -0.0766
29462W        W42876  16.865   0.699   0.685 -0.0602  0.0659  0.0742
29463W        W42877   0.929   8.734   4.598  0.4535  0.0083  0.2674
29464W        W42878  10.633   7.651   2.644  0.2810  0.1530  0.2824
29465W        W42879  15.915  17.534  15.258  0.1956 -0.0703 -0.2177
29466W        W42880  10.169   2.386   1.427 -0.0424  0.0923  0.0421
29467W        W42881   0.604  13.960  15.184 -0.0166  0.1451 -0.0350
29468W        W42882   9.795  11.271   3.549  0.3424  0.1228 -0.1248
29469W        W42883   7.232   7.756   0.022  0.1081 -0.0197 -0.1731
29470W        W42884   7.252   8.367  12.691  0.0581 -0.0602 -0.0171
29471W        W42885   0.381   8.072   3.730 -0.2510 -0.1048  0.0939
29472W        W42886   1.657   0.768   4.945 -0.0917  0.3081 -0.2729
29473W        W42887   4.474   7.960   5.128 -0.2314 -0.0808  0.1441
29474W        W42888   0.316   7.898   6.906  0.1097  0.2787 -0.0855
29475W        W42889   8.507  10.574  12.829  0.0159  0.0105  0.0891
29476W        W42890  15.286   2.896   5.343 -0.1886 -0.1254 -0.0815
29477W        W42891   1.990   6.912   1.264  0.0996 -0.0986 -0.2819
29478W        W42892  17.291   2.728   5.238  0.1376 -0.4974 -0.1959
29479W        W42893   0.885   2.813   5.698 -0.0373  0.0043 -0.0361
29480W        W42894   9.760   3.394  13.878 -0.0424  0.0356 -0.0509
29481W        W42895  13.437  10.275  11.948  0.0062 -0.1197 -0.1028
29482W        W42896   7.589   8.459  16.082  0.0291  0.1099  0.4418
29483W        W42897  16.375   9.433   2.763  0.0774 -0.0376 -0.0198
29484W        W42898   1.698  17.837   2.410 -0.1566  0.1608  0.0186
29485W        W42899   3.247  15.853  10.127  0.3438  0.2713 -0.1581
29486W        W42900   5.721  15.305   5.378  0.1801  0.1359  0.1893
29487W        W42901  11.464  12.713  12.771 -0.0448  0.2620  0.1165
29488W        W42902  11.434  16.974   3.030  0.0723 -0.0874  0.0168
29489W        W42903   6.370   2.956   1.479  0.1761  0.3190 -0.0271
29490W        W42904  16.070  14.905   3.054 -0.4963  0.0431  0.3243
29491W        W42905  11.563  11.040   4.440 -0.3690  0.0505  0.3208
29492W        W42906   7.778  10.838  16.060  0.0771  0.1813 -0.0359
29493W        W42907   4.948   5.721   4.640 -0.1077 -0.0099  0.1336
29494W        W42908  11.423  15.300   2.005 -0.5596 -0.0541  0.3016
29495W        W42909   5.212  14.997  13.829 -0.1430 -0.0366 -0.2190
29496W        W42910   2.386   0.188  10.739  0.1282 -0.0046 -0.0826
29497W        W42911   7.732   8.531  13.376  0.2181 -0.3118 -0.0600
29498W        W42912   6.979  12.741   4.866  0.2320  0.0820  0.0283
29499W        W42913  15.872  10.363   1.448  0.1593 -0.0373 -0.1844
29500W        W42914   6.950  13.296   3.226  0.3245  0.0607 -0.0925
29501W        W42915   0.214  15.256  12.288  0.0330  0.2462 -0.0145
29502W        W42916  15.580  12.157  13.237  0.2070 -0.0391 -0.1717
29503W        W42917  17.704   5.081   5.535  0.1205  0.0125 -0.0722
29504W        W42918   5.182   8.457   2.825  0.0231 -0.1365  0.4065
29505W        W42919   6.302   8.104   0.618  0.0839 -0.0414  0.2866
29506W        W42920   5.742   6.681  15.145 -0.1062 -0.2733  0.2249
29507W        W42921  15.527  10.295  14.442 -0.3630  0.0295 -0.2101
29508W        W42922   8.218  17.649  11.425  0.0073  0.1866 -0.1127
29509W        W42923  14.032  12.201  13.906  0.0418 -0.1101  0.2719
29510W        W42924   5.909   7.077  16.029 -0.1839 -0.3101 -0.1512
29511W        W42925  16.535   1.171   2.088  0.0149  0.0410 -0.0770
29512W        W42926  17.942  12.451   4.780  0.0074 -0.0123  0.1624
29513W        W42927  15.991   1.747  12.041 -0.0849  0.0320 -0.2552
29514W        W42928  17.009   8.048   3.250  0.0408  0.0247 -0.2594
29515W        W42929  16.658   5.816   5.870  0.0563 -0.1273  0.0579
29516W        W42930   2.020   1.013   0.300 -0.2148 -0.1551 -0.0739
29517W        W42931   0.964   0.319   1.832 -0.2858  0.0024 -0.0294
29518W        W42932  10.623  12.068   5.246  0.1444 -0.0460  0.1827
29519W        W42933   9.498  11.729  11.138  0.1437  0.0738 -0.1104
29520W        W42934  14.031  11.486  10.846  0.2732 -0.2948  0.2690
29521W        W42935  12.038   5.181   2.203  0.1637  0.0633 -0.0123
29522W        W42936   8.654   4.385  16.092 -0.2908 -0.4187  0.1386
29523W        W42937   1.559   5.267  14.750 -0.1610 -0.2594 -0.1481
29524W        W42938   1.097   8.329   1.233  0.0418  0.2013 -0.3120
29525W        W42939  10.848   0.245   2.224  0.4473 -0.1637  0.0088
29526W        W42940  11.442   1.786  13.358 -0.0854  0.0137 -0.1327
29527W        W42941   2.268  10.845   3.493 -0.1421 -0.1613  0.2992
29528W        W42942   3.562   5.909   0.527  0.1596 -0.3450 -0.1786
29529W        W42943   7.329   7.819   1.348 -0.2857  0.1413  0.0592
29530W        W42944  16.333  17.497   5.293 -0.2734 -0.2487  0.1427
29531W        W42945   7.071  12.056  14.927 -0.0840 -0.0580 -0.2034
29532W        W42946   8.605  18.143  13.799 -0.1283 -0.1612  0.2168
29533W        W42947   9.268  14.086  13.116  0.0657 -0.1713 -0.2276
29534W        W42948   6.051  10.765  11.184 -0.1825 -0.1147  0.0660
29535W        W42949   5.447  14.656  15.515  0.2089 -0.1695 -0.2481
29536W        W42950  17.767  16.621  13.153 -0.1648  0.2247 -0.1338
29537W        W42951  16.128   9.819  10.904  0.2376 -0.3181  0.1758
29538W        W42952  13.777  13.987   1.088 -0.0108 -0.2704  0.0417
29539W        W42953  15.265  18.345   2.720 -0.0677 -0.1718  0.1970
29540W        W42954   9.912  16.203  10.365 -0.1543 -0.2469  0.0452
29541W        W42955   1.134   9.780   1.649  0.3043  0.0486 -0.1498
29542W        W42956   1.146  18.219   1.307 -0.2529  0.1649 -0.1039
29543W        W42957  13.934   9.998   1.081  0.1623  0.2177 -0.1403
29544W        W42958   0.563  10.317  11.833 -0.0802  0.1331 -0.0851
29545W        W42959   6.094   5.570  11.670 -0.0159  0.1448  0.1864
29546W        W42960  18.430   0.859   5.109 -0.0392 -0.1550  0.2359
29547W        W42961  14.866   4.360   3.101 -0.0857  0.2946  0.0482
29548W        W42962   7.212  17.871  15.546 -0.0408  0.2735 -0.4437
29549W        W42963  15.736   4.086   1.711 -0.2216 -0.3565  0.0811
29550W        W42964   2.246   8.385   0.794 -0.0004 -0.1619  0.1604
29551W        W42965   4.862  12.137   0.040  0.1143  0.0703  0.1510
29552W        W42966   4.765   4.023  12.690 -0.0660  0.2354  0.0010
29553W        W42967  16.131  18.138   5.842  0.0378 -0.0150  0.0417
29554W        W42968   3.107   1.516  14.075 -0.1320 -0.0926 -0.0566
29555W        W42969  15.312   6.725  14.533  0.3268 -0.4509  0.0303
29556W        W42970   6.988   6.990  14.604 -0.0980  0.0322 -0.0329
29557W        W42971   4.951   3.169  14.323 -0.4310 -0.2115  0.0932
29558W        W42972  16.481  11.993  14.995 -0.0879 -0.0278 -0.0687
29559W        W42973  11.949   3.672  14.942  0.2701 -0.0842  0.1023
29560W        W42974  15.638   2.393  14.335  0.2013 -0.0805  0.4606
29561W        W42975  10.338   9.360  11.805  0.2639 -0.1186  0.1324
29562W        W42976   0.961  15.297  15.131  0.1976  0.1113 -0.2164
29563W        W42977   6.751  16.043  16.154 -0.0559  0.3450 -0.2289
29564W        W42978  15.988   4.995  15.092 -0.1547 -0.3393 -0.0453
29565W        W42979  10.884  16.226  13.187  0.0745 -0.1533 -0.0587
29566W        W42980  10.750  10.165   5.894  0.0107  0.3590 -0.1354
29567W        W42981   5.112   0.667  14.157 -0.0138 -0.1148  0.2175
29568W        W42982  13.970  17.915   0.883  0.2863  0.2671 -0.0936
29569W        W42983  12.123  18.086   3.634 -0.0137 -0.3874 -0.0455
29570W        W42984   5.683  11.399   4.674 -0.1238  0.0505  0.0675
29571W        W42985  12.008   3.592   3.336 -0.1034  0.1242 -0.0371
29572W        W42986   4.190   4.992   2.118  0.0473  0.1068  0.0032
29573W        W42987  10.747  17.051  11.328 -0.1293  0.3260 -0.2808
29574W        W42988   7.585  15.388   0.172  0.2205  0.3858  0.1541
29575W        W42989   1.666  16.089   0.499  0.4422 -0.1473  0.1028
29576W        W42990  11.459  17.345  14.818 -0.2145  0.3076  0.0936
29577W        W42991  16.677   5.940   1.537 -0.0398 -0.0524 -0.1552
29578W        W42992   3.634   8.213   5.230  0.0040  0.0842 -0.0386
29579W        W42993  13.655   2.750  16.092 -0.4466 -0.0367 -0.0573
29580W        W42994  16.089  10.935  12.490 -0.0416  0.0908  0.0628
29581W        W42995   6.790   2.030   0.405 -0.0360 -0.0734 -0.0735
29582W        W42996  18.138  17.478  12.396 -0.0165 -0.0723 -0.0466
29583W        W42997  11.428   9.588   4.684 -0.2164 -0.2765 -0.1930
29584W        W42998   0.787  12.546  14.812 -0.4040 -0.1574 -0.0232
29585W        W42999   5.336   3.343  13.743  0.0870  0.1789  0.0658
29586W        W43000  18.411  14.256   2.198 -0.1561 -0.0891 -0.0361
29587W        W43001  17.969   9.946  12.663 -0.2390 -0.0376  0.4634
29588W        W43002  16.282  17.890  14.637  0.2200 -0.1577  0.1922
29589W        W43003   7.945  12.834   3.834  0.0201 -0.0167 -0.0401
29590W        W43004   8.081  11.683  14.025  0.0547  0.3166  0.1824
29591W        W43005   9.668   9.744   1.468 -0.3259 -0.2124  0.0799
29592W        W43006   4.391   1.168   1.649 -0.1046 -0.3218  0.1051
29593W        W43007  17.299   4.486   3.657 -0.1473 -0.1439 -0.0928
29594W        W43008   2.518   5.285  11.322 -0.0200  0.0045  0.1085
29595W        W43009   3.099   4.437  15.216 -0.0181  0.2478  0.1016
29596W        W43010  17.692  18.397  11.036 -0.6388  0.1238  0.2077
29597W        W43011   8.678  13.524   3.225  0.0518  0.1492 -0.0613
29598W        W43012  14.882   2.621   3.795  0.0093 -0.2273  0.1244
29599W        W43013  13.971   2.026  13.281  0.1753 -0.0075 -0.0966
29600W        W43014   0.555   5.205   4.116 -0.0538  0.0302 -0.0454
29601W        W43015   4.901   6.492   1.136 -0.0553 -0.3566 -0.0473
29602W        W43016   1.052  17.421  14.384 -0.3198  0.0020  0.4029
29603W        W43017   2.441  11.878   4.938  0.1846 -0.0822 -0.1394
29604W        W43018   6.944   2.427   0.641 -0.3208 -0.0494  0.1585
29605W        W43019   0.952  13.496  11.861  0.0897 -0.2217 -0.2335
29606W        W43020   9.046   2.558  12.499  0.2190 -0.2030 -0.1058
29607W        W43021   6.925  13.430  14.115  0.1109 -0.0956  0.0447
29608W        W43022  16.812  14.856   4.038 -0.2735  0.1071 -0.1262
29609W        W43023  14.589   8.676  11.905  0.0681 -0.0092  0.1648
29610W        W43024  10.879   1.859   1.951 -0.1563  0.0895  0.2614
29611W        W43025   5.091   5.645  11.783 -0.1385  0.0123  0.1440
29612W        W43026   7.828   1.543  11.297  0.1497  0.1796  0.3828
29613W        W43027   3.720   1.117   3.971 -0.3308 -0.0113 -0.2066
29614W        W43028   8.012   9.567  15.265  0.0101 -0.1456 -0.2242
29615W        W43029   3.775  12.458   2.892  0.0803  0.1095 -0.2296
29616W        W43030   8.964   9.398   3.287  0.0838  0.0796 -0.3864
29617W        W43031  12.867   1.993  12.932  0.5383 -0.3928 -0.1882
29618W        W43032   9.564   0.254   5.359 -0.5366  0.1055  0.1414
29619W        W43033   6.872   0.733  16.047  0.2002  0.2523  0.3165
29620W        W43034  17.666  11.597  10.454  0.0951  0.0547 -0.1936
29621W        W43035  17.273   5.068   2.841 -0.2367 -0.2071  0.1125
29622W        W43036   8.813  12.955  10.279 -0.4478 -0.0384  0.0424
29623W        W43037  13.278  12.503   6.560  0.1289 -0.1803  0.0836
29624W        W43038  12.755   7.781  13.563  0.0151 -0.0058 -0.1716
29625W        W43039  14.875  18.120  15.006 -0.0092 -0.1344  0.1673
29626W        W43040   1.948  12.921   3.182  0.1584 -0.2037  0.0284
29627W        W43041   2.678   8.145   4.258  0.2383  0.0155 -0.1330
29628W        W43042   5.423   2.915   1.680  0.0394  0.3589  0.0546
29629W        W43043   2.638   7.001  16.268  0.0132 -0.1378 -0.4775
29630W        W43044   8.633   0.353   3.190 -0.0750 -0.0344 -0.3447
29631W        W43045   9.302   6.473  10.762  0.0203 -0.0153 -0.0324
29632W        W43046  14.931   8.451  15.928 -0.2258  0.2091  0.1057
29633W        W43047   6.349  12.918  15.675  0.4047 -0.2277  0.1899
29634W        W43048  17.068   5.941  15.061  0.4075  0.2378  0.0458
29635W        W43049   3.965   5.302  15.530 -0.0786  0.1025 -0.1048
29636W        W43050  17.236   6.416   0.933 -0.1072 -0.0313  0.1216
29637W        W43051  13.594   5.045  12.239  0.1192 -0.0581 -0.1892
29638W        W43052   8.051   7.692   0.076  0.0826  0.0993  0.2040
29639W        W43053   0.579   6.134  11.596 -0.1010  0.0557 -0.0871
29640W        W43054   4.806  13.379  12.337  0.0568 -0.1370 -0.0897
29641W        W43055  13.935   7.163   0.204 -0.2224  0.4116 -0.4555
29642W        W43056   7.529  17.455   4.341  0.0844 -0.1550 -0.2700
29643W        W43057   7.945   4.327  13.255  0.3203 -0.1771 -0.4044
29644W        W43058   1.201   3.479   6.222  0.0747  0.0437 -0.0982
29645W        W43059   5.973   9.200  14.594 -0.1465 -0.3168  0.0322
29646W        W43060   6.013   0.519   1.421  0.2613  0.2444  0.0164
29647W        W43061   7.425   8.929   5.659 -0.0890  0.1178 -0.1381
29648W        W43062   2.163   5.944   4.696  0.0499  0.0646  0.3459
29649W        W43063  10.955  13.129  15.584 -0.0087  0.4440  0.0812
29650W        W43064   7.447  12.060   4.812 -0.3481 -0.2292 -0.1009
29651W        W43065   0.258  14.829  15.398  0.0359 -0.0743  0.0262
29652W        W43066  12.232   0.058   3.279 -0.0446 -0.2098 -0.0984
29653W        W43067   8.621  13.687  12.426  0.5080 -0.2178  0.3091
29654W        W43068   9.627   9.481   0.657  0.0119  0.1526 -0.2872
29655W        W43069  16.382   0.394   3.321 -0.1530 -0.0196  0.3928
29656W        W43070  10.813  11.891  10.951 -0.2238  0.3234  0.0156
29657W        W43071   8.333   3.512  15.870 -0.1340  0.2824  0.0604
29658W        W43072   5.509   4.217  14.872  0.1115 -0.2923 -0.2625
29659W        W43073  11.556   0.666  14.101  0.1758 -0.2289 -0.0941
29660W        W43074   7.776   5.736   3.124 -0.2324 -0.3266 -0.1768
29661W        W43075   4.559  17.465  16.219  0.0300 -0.0100 -0.2000
29662W        W43076   0.584  16.918   0.830 -0.0010  0.1755  0.4217
29663W        W43077   7.194  16.509  10.421 -0.0367  0.3021 -0.1967
29664W        W43078   6.126   0.222   0.343  0.0372 -0.0946 -0.3712
29665W        W43079  16.657  11.714   3.686  0.0628  0.1586  0.0426
29666W        W43080  15.681  12.683  14.620  0.0195  0.0365  0.1317
29667W        W43081   7.305   9.724  13.151 -0.1535  0.0285 -0.2861
29668W        W43082  12.765   8.291  12.532 -0.1083  0.1547  0.1818
29669W        W43083   8.090  18.300   4.766  0.0679 -0.0178  0.0544
29670W        W43084  10.032   1.701  14.490 -0.1350  0.0713 -0.2296
29671W        W43085   8.197  17.149  11.740 -0.1033 -0.1067 -0.1586
29672W        W43086   4.729  12.116   5.024  0.2633  0.0386 -0.0231
29673W        W43087  12.605  16.217  14.806  0.3120  0.2077  0.0112
29674W        W43088  14.000   9.137   1.146  0.1798  0.1488 -0.0972
29675W        W43089  11.573  17.020   9.803 -0.0098  0.0093 -0.0935
29676W        W43090   2.650  10.815   5.722 -0.2025  0.1867 -0.1094
29677W        W43091   9.950  15.981  12.915 -0.0716  0.1294  0.1232
29678W        W43092  13.980  16.128   0.815  0.0881  0.0121 -0.2208
29679W        W43093  14.501   4.769  13.026  0.0072 -0.0447  0.1067
29680W        W43094  16.106  16.831  11.006  0.1157  0.2095  0.0963
29681W        W43095   1.228   2.493  15.471  0.0312 -0.0398  0.0824
29682W        W43096  12.329  11.004  11.492 -0.1559 -0.2582  0.0626
29683W        W43097  17.838  18.186   3.444 -0.3697 -0.2434  0.0502
29684W        W43098   6.597   6.286   3.225 -0.0535 -0.1449  0.0954
29685W        W43099  10.318  15.436   0.601 -0.0267 -0.0410 -0.0879
29686W        W43100   5.507   8.955   2.120  0.0027 -0.2763  0.2809
29687W        W43101  14.335   2.476  10.213  0.2635 -0.1564  0.2885
29688W        W43102   4.218  16.673  15.628  0.0647 -0.0925  0.2005
29689W        W43103   4.350   4.400   1.978  0.1859 -0.0120 -0.1309
29690W        W43104  11.875   5.930  14.692  0.1561 -0.0509 -0.0574
29691W        W43105   3.537   2.831   4.855 -0.0419  0.1294 -0.1606
29692W        W43106   8.196   2.449  14.459 -0.0099 -0.5590 -0.1632
29693W        W43107   5.553   5.664   0.766 -0.0062  0.2372 -0.1289
29694W        W43108  11.652   5.877   4.668 -0.1987  0.3635  0.0227
29695W        W43109   7.579   8.200   4.623 -0.0627 -0.1147  0.2016
29696W        W43110  13.396  13.250  14.019 -0.0835  0.3396  0.1161
29697W        W43111  16.482  16.694   2.515  0.0992 -0.3335 -0.2175
29698W        W43112   0.447  16.996  16.268 -0.2709  0.1508 -0.1758
29699W        W43113   5.940  11.093  15.395  0.0929 -0.1784 -0.2311
29700W        W43114  14.241  17.656  12.409 -0.1170 -0.1267 -0.1485
29701W        W43115  15.919  17.750  12.887 -0.2974  0.2281 -0.6817
29702W        W43116   6.726  15.183   4.120  0.3000 -0.1363  0.1796
29703W        W43117  13.414  10.924   2.284 -0.2237  0.1775 -0.0659
29704W        W43118   9.903  14.842   0.197  0.2158  0.0844 -0.2036
29705W        W43119   2.872  12.966   4.709  0.1203  0.1602  0.0121
29706W        W43120  13.205  13.039  13.203 -0.0069 -0.3598 -0.2085
29707W        W43121   0.908   3.123   4.374 -0.0451 -0.1935  0.1711
29708W        W43122   3.424  14.957   3.425 -0.1999 -0.0031 -0.1461
29709W        W43123   4.066   9.802   3.167 -0.2605 -0.1069  0.0148
29710W        W43124  10.085   7.729  11.002  0.0390  0.0491 -0.2886
29711W        W43125   4.278  13.746   0.382  0.0417 -0.3733  0.2962
29712W        W43126  11.105  14.358   0.428 -0.0478  0.0558  0.1160
29713W        W43127   4.950  15.027   3.564  0.1597  0.2249 -0.1899
29714W        W43128   0.778  13.430  15.258  0.1628  0.0125  0.0956
29715W        W43129   1.210   3.986  10.342  0.0154  0.2198  0.1051
29716W        W43130   1.683  17.852  13.239 -0.2265 -0.1792 -0.1524
29717W        W43131   0.630  17.467  13.107  0.0916  0.0950  0.3646
29718W        W43132   9.840  14.570  12.215 -0.0374 -0.2629  0.2488
29719W        W43133  11.673  11.621   3.933  0.0425  0.1956  0.2686
29720W        W43134   1.192   5.238   1.354 -0.2526  0.1969 -0.2244
29721W        W43135  13.130   7.405  12.518  0.0568  0.3540  0.0019
29722W        W43136  11.058   4.264  14.399 -0.2169  0.4104  0.1611
29723W        W43137   6.897   2.406   2.549 -0.1525  0.0711 -0.0398
29724W        W43138   7.886  12.709   4.554  0.0286 -0.2414 -0.0165
29725W        W43139   4.550   0.896   0.109 -0.4084  0.0648  0.1470
29726W        W43140   9.167  15.616   4.082  0.2062  0.0167 -0.2661
29727W        W43141   5.063   3.171   3.128  0.3452 -0.0277  0.0233
29728W        W43142   5.113  12.390   4.760  0.3150  0.2027  0.0415
29729W        W43143   8.134   4.290  11.420  0.0667 -0.2073 -0.2458
29730W        W43144  13.706   0.830  13.194  0.0271 -0.1161 -0.2745
29731W        W43145   3.985  10.329   3.291 -0.0264  0.0942 -0.0202
29732W        W43146  17.691  11.245  12.237 -0.1497 -0.0981  0.0702
29733W        W43147  14.750   1.863   2.858 -0.1541  0.0361 -0.0335
29734W        W43148   8.534   7.704   2.745 -0.1709  0.1758  0.0386
29735W        W43149  14.764  17.681  13.183 -0.1549  0.4318  0.1418
29736W        W43150   5.626  12.935  16.202 -0.0718  0.0092 -0.0611
29737W        W43151   6.767   8.387   4.007  0.2172 -0.0314 -0.0072
29738W        W43152   9.825  10.326   0.665  0.0197  0.0334 -0.2849
29739W        W43153  17.894  14.841  11.928  0.4142  0.1726 -0.0910
29740W        W43154   4.386  11.549  10.868 -0.2222 -0.0190 -0.0592
29741W        W43155   1.545   4.185   1.544  0.2470  0.0132 -0.2493
29742W        W43156  10.476  15.444   3.080  0.0851 -0.0607 -0.1000
29743W        W43157   9.305  10.676   1.004 -0.0020  0.0602  0.0153
29744W        W43158  16.291   2.037  11.772 -0.0092 -0.0835  0.3701
29745W        W43159  14.089   5.409   2.151 -0.3135  0.1443  0.2548
29746W        W43160   5.197   8.414  12.224 -0.1412  0.0034  0.2706
29747W        W43161   3.180  14.672  11.684 -0.1894  0.1026  0.1885
29748W        W43162   2.860  15.820  13.477  0.2357 -0.0705  0.0773
29749W        W43163  13.880  10.797   3.903 -0.0572 -0.0340 -0.0133
29750W        W43164  10.281   6.607  14.074  0.3387 -0.0234  0.2668
29751W        W43165   2.043  16.118   4.053 -0.0156 -0.7253  0.0538
29752W        W43166  17.340   1.418   4.267 -0.1568  0.1912  0.2633
29753W        W43167   2.557  16.181  11.345  0.0912  0.0884  0.4249
29754W        W43168   4.641  16.528  15.360 -0.4081  0.3484  0.4192
29755W        W43169  12.358   1.816   2.277  0.2640  0.1368  0.1435
29756W        W43170  10.874  13.275  12.333 -0.1961  0.1110  0.0006
29757W        W43171  16.150   7.591   4.098  0.2981  0.1909  0.1586
29758W        W43172  12.763   9.140   5.540 -0.2124  0.0629 -0.1682
29759W        W43173  17.006  14.787  12.028  0.0672 -0.1047  0.1506
29760W        W43174  13.356   6.458   1.509 -0.1463 -0.1733 -0.0771
29761W        W43175  14.601  11.819  11.631  0.1898  0.2924 -0.2042
29762W        W43176   0.656  10.895   3.345 -0.2009  0.0816 -0.2508
29763W        W43177  10.659  15.087   0.656  0.0449 -0.2815 -0.3615
29764W        W43178  15.355   8.450   2.894 -0.4131  0.1295 -0.1517
29765W        W43179  12.994  11.426  12.020  0.0493  0.3216  0.2002
29766W        W43180   3.758   9.913  14.767  0.0585 -0.1762  0.0655
29767W        W43181   7.600  18.126  16.026  0.0292 -0.2660  0.0069
29768W        W43182  15.644   3.573  15.427  0.0581  0.1621 -0.1774
29769W        W43183  18.446  15.142   0.177 -0.0276  0.0845 -0.1439
29770W        W43184  11.138  11.885  11.935  0.3114  0.0100 -0.2900
29771W        W43185   4.915   8.450  14.658  0.2129  0.4249  0.1633
29772W        W43186   7.384   5.734   5.487 -0.2575  0.1290  0.1510
29773W        W43187   9.619  16.188  14.413  0.1387 -0.0801  0.1632
29774W        W43188   5.772   8.209   0.644  0.2530  0.4253  0.2045
29775W        W43189  14.493  13.515   2.896  0.0321  0.1749 -0.0386
29776W        W43190   4.625  11.058  10.666 -0.0679  0.2509 -0.0622
29777W        W43191   8.686  11.403  10.566  0.3254  0.0641  0.2602
29778W        W43192   6.628   8.542  13.272 -0.1971 -0.0605  0.1679
29779W        W43193  10.498   4.977   4.074 -0.3239  0.1631  0.0834
29780W        W43194   8.589   5.400   4.262  0.0216 -0.0119 -0.3824
29781W        W43195   5.062  13.519  11.437 -0.2593  0.0198 -0.0307
29782W        W43196   9.229  12.245   4.875 -0.0820  0.3570  0.0585
29783W        W43197  17.890  13.593   0.411  0.2696  0.0953 -0.0455
29784W        W43198   6.631  10.385  12.241  0.1405 -0.1498 -0.1300
29785W        W43199  14.849   0.781   5.006  0.0096  0.1740 -0.2454
29786W        W43200  13.153  14.040   1.145  0.1679 -0.1135  0.3340
29787W        W43201  16.634  13.767   9.618  0.0214 -0.0053  0.0653
29788W        W43202   8.432   2.063   5.299 -0.1138 -0.1112 -0.0676
29789W        W43203  14.174   6.502   3.039 -0.1138 -0.1280  0.0362
29790W        W43204   3.857   6.244   2.655 -0.1859 -0.1774  0.1394
29791W        W43205   3.111  18.133  14.334 -0.0102  0.0790  0.0602
29792W        W43206   7.569   8.981   2.765  0.1793 -0.1335 -0.3011
29793W        W43207  11.444   9.046   2.470 -0.0692  0.2060 -0.3008
29794W        W43208  16.845   0.081   1.235  0.0080 -0.1521  0.2267
29795W        W43209   5.465  16.928   4.608  0.0986  0.1560 -0.1641
29796W        W43210  10.290   8.914  13.661  0.1486  0.0702  0.1752
29797W        W43211  14.900  15.790  14.778  0.0942 -0.0908  0.1997
29798W        W43212  15.267  15.146   1.052 -0.2006 -0.2824  0.0610
29799W        W43213   5.568  13.960  10.629 -0.2483  0.2076  0.0718
29800W        W43214  13.189   9.131   3.728  0.0608 -0.3019  0.3967
29801W        W43215   3.724   7.340   5.449 -0.2223  0.0572 -0.1674
29802W        W43216   4.723  15.981  13.468  0.0774 -0.2222  0.1523
29803W        W43217   4.648  14.902  11.888 -0.2347 -0.4426 -0.0271
29804W        W43218  11.665   2.758  10.663  0.1276 -0.0510 -0.0928
29805W        W43219   7.213   0.106  12.715 -0.1905 -0.1721 -0.0735
29806W        W43220   6.626   4.577   3.172 -0.0861 -0.0422 -0.0012
29807W        W43221   1.974  16.051   5.651 -0.0616  0.0048  0.1084
29808W        W43222  14.840  13.056  10.953  0.0877 -0.0668  0.0164
29809W        W43223  17.504  17.533  15.360 -0.1006  0.1289  0.1445
29810W        W43224   5.668  17.184  11.865 -0.2246  0.0454 -0.3673
29811W        W43225   3.795   6.642   2.921  0.2952 -0.2051 -0.1742
29812W        W43226  13.129  16.763   4.222  0.2168  0.0120 -0.1408
29813W        W43227   2.181   7.909   2.697  0.3751  0.1128  0.1815
29814W        W43228  12.223   3.376   0.779 -0.0106 -0.3009  0.3739
29815W        W43229   4.849   2.375   4.507 -0.2296  0.2249  0.0627
29816W        W43230  18.220   3.569  13.122  0.3351 -0.1347 -0.1007
29817W        W43231   4.736   1.723   6.597  0.1059 -0.0440  0.3281
29818W        W43232   0.901   0.367   3.976 -0.0865  0.2112  0.2301
29819W        W43233  16.560  10.246  12.110 -0.6069  0.0994  0.1115
29820W        W43234   0.590  14.338  12.126  0.0290 -0.1722 -0.3379
29821W        W43235  16.065  10.050  10.471 -0.0270  0.1284  0.2536
29822W        W43236   6.499   9.921  13.757 -0.0763  0.4827 -0.0424
29823W        W43237   5.005   8.568  11.263 -0.1001 -0.1402  0.2606
29824W        W43238   5.538  16.566  11.393 -0.1826  0.0146 -0.0944
29825W        W43239   4.852   2.287   2.089 -0.0496 -0.1491  0.0298
29826W        W43240   7.897   0.927  13.525 -0.1052  0.2855  0.1127
29827W        W43241   7.043  10.218  13.149 -0.4952 -0.2723  0.1872
29828W        W43242   8.118   2.249  10.399 -0.1240 -0.2305 -0.0947
29829W        W43243  13.559  15.850  15.188 -0.1605  0.0551  0.1159
29830W        W43244   8.455   2.249   1.621  0.0922  0.0981 -0.0904
29831W        W43245  11.791   4.046   5.532  0.2442  0.3430 -0.0514
29832W        W43246   4.663  13.631   3.359  0.4729  0.1822 -0.1519
29833W        W43247   5.413   5.630  12.708  0.1158  0.0909 -0.1088
29834W        W43248   3.116   0.926   3.534 -0.0371  0.1643 -0.1760
29835W        W43249   8.581   3.921  15.658  0.0594  0.0279  0.0189
29836W        W43250   0.619  10.809   1.868  0.0463  0.1709 -0.0501
29837W        W43251   1.675  16.577  10.657  0.4402 -0.2389 -0.0954
29838W        W43252   0.438   0.301   6.229 -0.1068 -0.1606 -0.0067
29839W        W43253  13.104   9.542  10.724  0.1343 -0.0530  0.0764
29840W        W43254  10.712   8.963  15.982 -0.0640  0.0887 -0.1429
29841W        W43255  17.487   4.582  11.550 -0.2100  0.2335 -0.0680
29842W        W43256   8.531  11.852   1.922 -0.1698 -0.1196 -0.0809
29843W        W43257  13.110   1.442   1.354 -0.3023  0.1782 -0.0466
29844W        W43258   4.995   9.144   1.288 -0.3279  0.1875 -0.1120
29845W        W43259  16.858   3.248   0.304  0.1629  0.0179  0.3977
29846W        W43260   7.207  17.249  10.415 -0.2479 -0.2154  0.1405
29847W        W43261  14.642  15.441  14.527 -0.0965 -0.1610 -0.1109
29848W        W43262  17.215   2.067  14.035  0.2524 -0.2318  0.2982
29849W        W43263  13.121   0.578   4.295  0.1021  0.0271  0.0136
29850W        W43264   7.388  11.340  10.374  0.0712  0.0050 -0.1339
29851W        W43265  13.594   0.110  15.023 -0.2924  0.1100  0.2348
29852W        W43266  11.963   5.612   3.479  0.0787 -0.0820 -0.0151
29853W        W43267  10.024  15.472  14.165 -0.2018 -0.0650  0.2046
29854W        W43268  13.293   8.996   2.051  0.3530 -0.1142 -0.1312
29855W        W43269  14.388  11.691  15.874  0.0179 -0.0745 -0.2170
29856W        W43270  12.168  17.322   4.948  0.0149 -0.1460  0.0052
29857W        W43271   4.276   7.292   3.823 -0.0636 -0.0314  0.0400
29858W        W43272   8.814   8.335   0.648  0.1196 -0.0034 -0.1166
29859W        W43273   4.184  12.070   3.750 -0.1797  0.1725 -0.2119
29860W        W43274   4.141  10.082   1.294  0.1049 -0.1400  0.1592
29861W        W43275  11.218   5.756  13.464 -0.0337 -0.2156 -0.1763
29862W        W43276   5.650   5.026  15.165 -0.4866  0.0115  0.1444
29863W        W43277   4.744   6.033  16.255 -0.1827  0.2845 -0.0644
29864W        W43278   5.955  14.505  14.131  0.2046 -0.0445  0.1364
29865W        W43279   4.398   6.607   4.500  0.3530 -0.0633  0.2494
29866W        W43280  12.173  14.367  12.612 -0.1290  0.3955 -0.0387
29867W        W43281  15.654   8.431   1.350  0.0314  0.0511  0.0202
29868W        W43282   8.640   2.761   1.330 -0.1338 -0.2397  0.0879
29869W        W43283   9.024   3.572   4.539 -0.1527  0.1728 -0.2022
29870W        W43284   6.436   1.728   1.932  0.0169  0.1173 -0.3461
29871W        W43285  13.511   6.505   4.146 -0.1533 -0.1899 -0.1658
29872W        W43286   1.534   5.316   0.570 -0.1031 -0.0822 -0.0284
29873W        W43287   3.414  14.617  13.607 -0.1148 -0.2653 -0.1155
29874W        W43288   0.335  13.397   4.230 -0.1224  0.1802  0.3033
29875W        W43289  18.410   2.142  15.694 -0.3987 -0.0221 -0.0268
29876W        W43290   0.997  18.070   3.630  0.0468 -0.2109 -0.1470
29877W        W43291  15.795   8.000   4.202  0.2625 -0.0386  0.1082
29878W        W43292   9.395  15.320   2.933 -0.2154 -0.0482  0.0063
29879W        W43293  12.648   7.216  13.920 -0.0318 -0.1018  0.0518
29880W        W43294  17.108   4.562   5.133  0.3404 -0.1794 -0.0470
29881W        W43295  18.159  12.457  10.601 -0.1382 -0.3109  0.1129
29882W        W43296   1.371  15.123  12.074 -0.1240 -0.0865  0.0584
29883W        W43297   8.151   1.947  14.423 -0.0917  0.0928 -0.0016
29884W        W43298  16.467   7.809  12.223  0.3011  0.0902  0.0051
29885W        W43299   6.647  13.725   3.519 -0.0572 -0.2120 -0.3069
29886W        W43300  11.217  18.341  15.473  0.0383 -0.0300  0.0801
29887W        W43301  10.829   3.324   2.159  0.1378 -0.0066  0.1840
29888W        W43302   4.449  13.051   4.527  0.0853 -0.3368  0.2613
29889W        W43303   8.314   4.542   3.056 -0.2458  0.0171  0.0624
29890W        W43304   7.004   3.906  12.385  0.0222  0.1620  0.2564
29891W        W43305  13.537   8.520  11.311 -0.0640  0.0374  0.1963
29892W        W43306   9.563   2.720  13.452 -0.1928  0.0806 -0.0757
29893W        W43307   2.595   7.043  14.411 -0.0809  0.0913 -0.0823
29894W        W43308  12.871   8.301   0.724  0.3691  0.1195 -0.3201
29895W        W43309   9.156  12.396   0.800 -0.1343 -0.1931 -0.0015
29896W        W43310   4.662  18.343  11.191  0.0691  0.1066 -0.0587
29897W        W43311   9.467  10.456   5.295 -0.0883 -0.1542 -0.3683
29898W        W43312   3.502   7.077   4.255  0.0352 -0.2025  0.0747
29899W        W43313   9.171   6.744   1.879  0.0031  0.0693  0.0261
29900W        W43314   2.800  13.591   5.428  0.0845  0.0945  0.1701
29901W        W43315   7.331  10.685   5.446  0.2625  0.0823  0.0115
29902W        W43316   3.469   1.929   2.830 -0.0402  0.1408  0.0397
29903W        W43317  12.133   1.882  14.231 -0.1590  0.0250  0.4428
29904W        W43318   9.581   6.382  14.643  0.3132 -0.2879  0.0894
29905W        W43319  11.895   6.344  11.024  0.0963  0.2974  0.1622
29906W        W43320   3.314   4.524   0.775 -0.0595 -0.2703 -0.0619
29907W        W43321  16.122  15.716   4.768 -0.0577  0.2088 -0.0039
29908W        W43322  15.404  16.335  11.581  0.1757 -0.1299  0.0148
29909W        W43323   9.408   6.991  15.420  0.0867  0.0713 -0.1016
29910W        W43324  10.840   8.861   0.234  0.0331  0.1309  0.2379
29911W        W43325   5.060  13.604  16.157 -0.1739  0.0427 -0.1465
29912W        W43326   2.268   7.536   5.553  0.1274  0.1009  0.1424
29913W        W43327   4.992   8.897  14.441 -0.2064 -0.5338  0.0927
29914W        W43328  14.016  12.013   1.810  0.1538 -0.1198  0.0311
29915W        W43329  11.953  12.832   0.443 -0.1364 -0.2018 -0.0720
29916W        W43330   6.232  11.671  15.930 -0.1928  0.1986 -0.0767
29917W        W43331  14.581   0.331   5.753 -0.1600 -0.2638  0.1360
29918W        W43332   2.025  16.331  14.120 -0.2223 -0.1499  0.0146
29919W        W43333  12.475  11.134   2.927 -0.1397 -0.1635  0.1488
29920W        W43334   0.353   8.474   2.649  0.5763  0.2266 -0.0269
29921W        W43335   5.835   9.767  11.427 -0.3157 -0.2812  0.1753
29922W        W43336  16.293   7.608  10.679  0.0172 -0.4844  0.1100
29923W        W43337   8.436   2.786   1.806  0.1898  0.1689 -0.1639
29924W        W43338   0.176   1.703   1.703  0.0726  0.1019  0.3230
29925W        W43339  17.443   2.197   5.131  0.1524 -0.2156  0.1638
29926W        W43340  17.113  13.495  12.701 -0.1966 -0.3116 -0.3391
29927W        W43341  11.994   5.560   6.077 -0.0825 -0.2384 -0.0277
29928W        W43342   7.563   9.361  13.596  0.0446  0.3478  0.2847
29929W        W43343  16.304   1.050  13.580  0.2132 -0.1828  0.1237
29930W        W43344  16.772  12.262  15.346  0.1688  0.3836  0.1441
29931W        W43345   0.933  17.097  10.662  0.1438  0.0320 -0.1778
29932W        W43346   4.602   8.819   0.052  0.2932  0.1712  0.0017
29933W        W43347   2.184  14.242   9.858  0.1870  0.0225 -0.0604
29934W        W43348   5.807  10.569  11.610  0.0774  0.2518  0.1509
29935W        W43349   0.327   3.349  11.427 -0.0900 -0.2598 -0.1308
29936W        W43350   4.321   6.996  13.106 -0.2442 -0.0840 -0.1151
29937W        W43351  15.189   5.100   0.015 -0.0799  0.2859  0.2337
29938W        W43352   5.565  12.978   4.689  0.2612 -0.1477  0.2069
29939W        W43353  17.722  11.776  16.175 -0.0177 -0.2029  0.0668
29940W        W43354   7.933  12.566  16.015  0.0183 -0.1306  0.1211
29941W        W43355  10.624   7.763   2.130  0.0389  0.0966 -0.0895
29942W        W43356  13.907  11.410  15.053  0.1957 -0.0510  0.3442
29943W        W43357  11.579  10.677   1.552  0.3173 -0.1919 -0.0401
29944W        W43358   7.478   8.682   3.471 -0.0717 -0.2659  0.3847
29945W        W43359   3.062   8.142   2.514 -0.0299 -0.2192 -0.1170
29946W        W43360  14.780   8.609   0.822  0.2611  0.0233  0.0581
29947W        W43361  11.321   1.635   5.887  0.1812 -0.1410  0.0183
29948W        W43362   6.501  13.016   4.125  0.1354 -0.3365  0.2313
29949W        W43363  17.269   9.568  12.106  0.0560  0.2259 -0.2689
29950W        W43364   6.936  12.661  13.049  0.0257  0.0896 -0.2442
29951W        W43365  13.047  17.378   1.696 -0.0216  0.3724 -0.0697
29952W        W43366  17.810  16.735  14.616 -0.0274 -0.2514  0.2932
29953W        W43367   7.310  14.886   3.442  0.1209  0.1166  0.3089
29954W        W43368  10.190  12.899  10.348  0.0654  0.3789 -0.3287
29955W        W43369   7.453   5.951   1.809  0.0409  0.1180  0.0053
29956W        W43370   6.877  10.568   5.162  0.2470 -0.1860  0.1120
29957W        W43371  10.417   1.244   0.138 -0.0283 -0.3804  0.3356
29958W        W43372   2.979  17.581   5.229 -0.0675 -0.0914 -0.3812
29959W        W43373   1.167  18.264   5.923 -0.0689  0.4202  0.2569
29960W        W43374  12.228   6.289  14.431  0.2625 -0.3109 -0.0726
29961W        W43375   6.747  15.478  15.920 -0.2115  0.1799  0.0165
29962W        W43376  14.066   6.808   1.087 -0.0466  0.0552 -0.1033
29963W        W43377  11.980  15.893   5.109 -0.2581 -0.0793  0.0671
29964W        W43378   9.476   9.771   0.183  0.1454  0.1711 -0.0212
29965W        W43379  15.309  12.812   9.973  0.1880  0.0534  0.0687
29966W        W43380  15.798   4.889  14.210 -0.0687  0.1336  0.1483
29967W        W43381   9.392  12.619   4.003 -0.0683 -0.1017  0.0263
29968W        W43382  16.339  13.916   1.821  0.1447  0.0388 -0.0798
29969W        W43383   1.190   7.129   1.837 -0.1938  0.1633  0.1915
29970W        W43384   4.853   5.400  13.119  0.0096 -0.0095  0.0488
29971W        W43385  14.424  17.023   5.456  0.1590  0.0128 -0.0951
29972W        W43386  14.828  18.044  14.485 -0.2506 -0.0213  0.1467
29973W        W43387  10.703   9.038   4.819 -0.0558  0.1619 -0.1241
29974W        W43388   2.862  16.011  10.940 -0.0794  0.0953  0.0153
29975W        W43389   9.856   2.846  11.041 -0.0858  0.2549  0.0856
29976W        W43390  10.239   2.001  11.800 -0.1272  0.2343 -0.0865
29977W        W43391  13.354  10.124   0.010 -0.2132  0.3376  0.0535
29978W        W43392  12.846  12.136  12.669 -0.0473 -0.1911 -0.1256
29979W        W43393   7.854  10.464  14.824  0.3101 -0.1584  0.3738
29980W        W43394  13.546   5.942   4.816  0.1872 -0.0259  0.2149
29981W        W43395   9.829  17.812  10.998 -0.2432 -0.1439 -0.1170
29982W        W43396  14.814   1.442  14.566  0.0843  0.3123 -0.1655
29983W        W43397   8.464   3.377   3.473 -0.0177  0.2506  0.0467
29984W        W43398   0.032  13.498  13.581  0.0083  0.2564 -0.0989
29985W        W43399   6.318   5.957  12.073  0.0419  0.0534  0.0895
29986W        W43400   8.606  15.098  13.210  0.0101 -0.0268  0.0191
29987W        W43401   3.476  15.594  12.148 -0.3745  0.2163  0.1722
29988W        W43402  16.269  10.535   1.754 -0.0908 -0.0083 -0.1105
29989W        W43403   2.792   7.238  12.462 -0.0995 -0.0291  0.3348
29990W        W43404   6.602   3.280   0.568  0.3415 -0.2487  0.3501
29991W        W43405   1.878   2.163   0.375  0.1808  0.1991  0.0192
29992W        W43406  13.060   1.048  12.907  0.3351 -0.0343  0.0122
29993W        W43407   9.572  17.258   0.114 -0.1844 -0.1087  0.0308
29994W        W43408   0.072   8.240  13.387 -0.2158  0.3295  0.1900
29995W        W43409   1.471  11.023  15.118  0.0178 -0.3632  0.1777
29996W        W43410  12.473  11.207   3.442 -0.2244 -0.1402  0.4010
29997W        W43411   6.473  11.375  12.488 -0.1363  0.0561  0.1378
29998W        W43412   7.838   2.203  14.097 -0.1205 -0.2638  0.1543
29999W        W43413   3.579  10.552   5.855 -0.1813 -0.0994  0.3896
30000W        W43414   2.832   1.563   2.293 -0.0220 -0.0342 -0.3488
30001W        W43415  16.602  17.101  13.897 -0.0978  0.2815  0.0711
30002W        W43416   9.225   7.528  14.871  0.0154  0.1846 -0.2475
30003W        W43417  17.735   9.614   0.235  0.1175 -0.0340  0.0996
30004W        W43418   0.850   2.132   3.936  0.0893  0.2076  0.2187
30005W        W43419   2.874  18.013  12.647  0.3103 -0.0594  0.3771
30006W        W43420   2.471  10.378  15.449  0.0018 -0.0158 -0.1700
30007W        W43421   5.584  17.258  10.713  0.0922  0.1032 -0.0226
30008W        W43422  14.544   9.064   3.822 -0.2022 -0.2328 -0.1094
30009W        W43423  17.719   5.002   1.931  0.1681  0.0454  0.0836
30010W        W43424  13.726   9.527   3.049 -0.1699  0.0792 -0.2152
30011W        W43425  11.608   3.288  11.184  0.0194 -0.0293  0.1803
30012W        W43426   2.921   4.610   1.058 -0.0245 -0.0238  0.1004
30013W        W43427   0.171   7.594   4.384  0.2559  0.0191  0.2639
30014W        W43428  18.281   0.873   2.044  0.0597  0.0524  0.0657
30015W        W43429  16.815   5.930  15.993 -0.1939  0.0128  0.0420
30016W        W43430  16.761   5.420  12.478  0.2084  0.1226 -0.2201
30017W        W43431   3.123  12.749  12.551  0.0224 -0.1168  0.1744
30018W        W43432   6.760  10.909   2.324  0.2346 -0.0684  0.0830
30019W        W43433  18.057  12.814  11.760 -0.1955 -0.0761  0.0620
30020W        W43434  14.359  13.116   5.767 -0.1208  0.1042 -0.1548
30021W        W43435  14.083  16.950  14.507 -0.0815 -0.1058 -0.2131
30022W        W43436  14.852  10.792   2.498  0.3621 -0.3734  0.1950
30023W        W43437  13.565   7.787   3.023  0.1563 -0.1043  0.2645
30024W        W43438   2.135   8.007   3.930  0.0228 -0.0233  0.0686
30025W        W43439  13.390   2.603  13.437  0.2516  0.2235 -0.2834
30026W        W43440  17.911   7.932  14.662 -0.3445 -0.2507  0.0841
30027W        W43441   1.717  11.010  15.558 -0.1718 -0.2116  0.0656
30028W        W43442  15.889  16.457  15.398  0.1453  0.1300 -0.3388
30029W        W43443  16.594  10.540   4.302  0.0159 -0.5650  0.1596
30030W        W43444   3.085  10.325  13.618  0.0083 -0.0670  0.0195
30031W        W43445   5.647   6.693  13.384  0.0595  0.2287  0.0880
30032W        W43446  16.288   1.273   3.523  0.2892 -0.1103  0.1418
30033W        W43447  10.736  14.133  10.970  0.1813  0.0268 -0.1666
30034W        W43448   4.200   7.692   2.881  0.0995 -0.0476 -0.0356
30035W        W43449   0.773   0.970  10.784 -0.0421  0.1777  0.2728
30036W        W43450  10.250  15.786   0.962  0.0956  0.2998 -0.2297
30037W        W43451   2.033  14.095  10.821 -0.0508 -0.1421  0.2834
30038W        W43452  14.879  10.567  12.037 -0.3362 -0.1017 -0.1337
30039W        W43453   7.928  15.954   3.240 -0.0031  0.0363  0.1852
30040W        W43454   8.609  10.800   3.681  0.3255 -0.2276 -0.4235
30041W        W43455  15.576   3.201   6.173  0.1267  0.0260  0.3123
30042W        W43456  10.600  16.914  10.263 -0.1039 -0.2929 -0.0934
30043W        W43457  14.558  11.427  14.086  0.0780 -0.1810 -0.2309
30044W        W43458  10.756   5.404   1.945  0.0105 -0.0582  0.0026
30045W        W43459   9.139   2.060   4.336  0.0747  0.1214  0.2213
30046W        W43460   9.010   4.353   0.653  0.0304 -0.1961  0.0743
30047W        W43461  11.745   8.586   1.814 -0.0365  0.2828 -0.3735
30048W        W43462   5.605   3.331   5.490 -0.0818  0.1830 -0.2948
30049W        W43463  18.034   1.543   5.615 -0.2403 -0.1536  0.1645
30050W        W43464  18.436   3.412   4.193 -0.2196  0.0300 -0.1280
30051W        W43465   4.229  11.981  11.284  0.2093  0.0496  0.2382
30052W        W43466  13.958   0.993   3.095 -0.1785 -0.2281  0.0972
30053W        W43467  15.650  13.237  13.778 -0.0297  0.1723 -0.1240
30054W        W43468   4.257  11.085  12.361  0.1203  0.0324 -0.0465
30055W        W43469  10.243   2.880   1.683  0.1132 -0.0942 -0.0650
30056W        W43470  16.982   9.587   2.063  0.0952  0.1062 -0.0475
30057W        W43471   1.715  13.769  10.606 -0.2542  0.2033 -0.1202
30058W        W43472   9.499   5.192  11.648  0.1679 -0.0808  0.3360
30059W        W43473  15.029   6.910  12.723  0.3625 -0.1411 -0.0859
30060W        W43474  10.311   9.358  12.978 -0.2093 -0.1542  0.0717
30061W        W43475  14.306   5.428  13.718 -0.1030  0.4225 -0.0826
30062W        W43476   3.826   2.742   3.231  0.0468  0.0496  0.0321
30063W        W43477  13.410   4.208  11.994 -0.0089  0.0977  0.2546
30064W        W43478   6.187   1.425  15.693  0.3568 -0.1949 -0.0731
30065W        W43479   9.845   2.566   1.769 -0.0145  0.2545  0.3868
30066W        W43480  13.033  12.925  15.532 -0.0623  0.1923 -0.2103
30067W        W43481   1.797   6.315  13.667  0.3835 -0.0452  0.1104
30068W        W43482   0.526   2.767  16.042  0.0852  0.2382  0.3779
30069W        W43483   3.419  11.736   5.039 -0.1646  0.0568 -0.1842
30070W        W43484   4.390   7.674  14.814 -0.1384  0.1403  0.0673
30071W        W43485   4.768  10.719  14.896 -0.2299  0.2230 -0.2882
30072W        W43486  12.519  15.377  12.797  0.1306 -0.1719 -0.0978
30073W        W43487  17.324  13.145   1.307 -0.1687  0.1272 -0.0587
30074W        W43488   6.278  11.906   3.398  0.3240 -0.1322 -0.0594
30075W        W43489   3.401  18.415  11.107 -0.2735  0.2634 -0.1800
30076W        W43490   1.609   7.068   4.145 -0.0985 -0.0514  0.2821
30077W        W43491   8.718   9.322  13.025  0.0904  0.4111  0.0078
30078W        W43492  15.867  10.690  15.355 -0.0561 -0.0125 -0.0727
30079W        W43493  14.154   9.160  14.107 -0.0825  0.0298  0.0603
30080W        W43494  15.130   6.038   0.237  0.0594 -0.2853 -0.2142
30081W        W43495   1.010  12.716  15.515 -0.0696 -0.1189  0.1074
30082W        W43496   2.390   5.719   2.182 -0.0594 -0.1641  0.0814
30083W        W43497  14.842   0.145  14.202 -0.4136  0.0733  0.1125
30084W        W43498   7.902  17.040  12.807  0.0185  0.3966  0.0289
30085W        W43499   8.529  17.867  13.346 -0.0523  0.0084  0.0082
30086W        W43500  15.352  14.360   0.317  0.1310  0.0037 -0.3915
30087W        W43501   0.761   9.990   4.002  0.1489  0.4179  0.0867
30088W        W43502   7.794  11.953  14.358  0.1022 -0.0291  0.3058
30089W        W43503  14.029   6.374  15.121  0.1333 -0.0517  0.1964
30090W        W43504  12.064  10.167   2.967  0.3028  0.0129  0.1079
30091W        W43505   8.551  16.253  11.686  0.0177 -0.0511 -0.1731
30092W        W43506  18.399  13.178  15.087  0.1181  0.0939 -0.1138
30093W        W43507  18.364   3.332  15.637 -0.0866  0.1225  0.0722
30094W        W43508   7.108  17.214  14.918  0.1997 -0.1502  0.1945
30095W        W43509   1.535   4.653   1.929  0.1641  0.2491 -0.1488
30096W        W43510   6.983   4.442   1.883  0.0378  0.0340 -0.0996
30097W        W43511   4.756   0.333  11.007 -0.2788  0.2375 -0.0697
30098W        W43512   9.585  17.176  13.864 -0.0429  0.3198  0.1524
30099W        W43513  11.976   5.641  15.205  0.0300  0.0538  0.0546
30100W        W43514  10.166   5.666   3.554  0.0297  0.2996 -0.2573
30101W        W43515  17.031   4.434  13.725  0.1909 -0.3603 -0.1402
30102W        W43516  17.694  17.469  15.831 -0.0981  0.0011 -0.2107
30103W        W43517   0.138   7.167   0.322 -0.2424  0.0454 -0.1612
30104W        W43518   2.773  10.678   1.114 -0.0780  0.1271  0.0876
30105W        W43519   4.680  13.078   3.580  0.1032 -0.1779  0.1057
30106W        W43520   2.764   9.115  12.821  0.0991  0.0377  0.0346
30107W        W43521  18.277  15.957   4.959  0.3180 -0.0730  0.3520
30108W        W43522   7.321  14.194  12.874  0.0449 -0.3673  0.1350
30109W        W43523  10.724  12.310  16.231  0.2679 -0.4014 -0.2098
30110W        W43524   1.942   9.994   3.622  0.3110  0.0410 -0.0353
30111W        W43525   1.438   2.134   3.410 -0.0375 -0.2010  0.1395
30112W        W43526   8.516  15.750  10.978  0.0016 -0.1467  0.2800
30113W        W43527  16.811   8.158  13.511  0.1026  0.1077 -0.3055
30114W        W43528  12.266   9.799   3.205  0.1456  0.2308 -0.1329
30115W        W43529   9.590   0.489  15.974  0.0397 -0.0261 -0.0156
30116W        W43530   4.230   0.412   4.233  0.0257 -0.2076  0.0169
30117W        W43531  17.923   7.835   3.936  0.2592  0.1370  0.0150
30118W        W43532  13.605  15.297   1.814  0.1067 -0.0972 -0.3796
30119W        W43533   9.939   6.806   3.493 -0.0259  0.1526  0.0916
30120W        W43534  17.673   0.287  12.352  0.2702  0.2330 -0.1464
30121W        W43535   9.728   0.935  11.896  0.0685 -0.1420  0.1252
30122W        W43536   8.680  16.491   5.515 -0.2664 -0.4278 -0.1793
30123W        W43537  13.183   2.338  13.875  0.3612 -0.1652  0.2260
30124W        W43538   8.431   9.456   3.470 -0.4420  0.2319 -0.1834
30125W        W43539   3.384   5.494   5.441  0.0066  0.0304  0.3195
30126W        W43540   3.754   0.503   4.327 -0.3291  0.3593  0.2462
30127W        W43541   4.756  10.871   4.505  0.1002 -0.0528 -0.0753
30128W        W43542   4.698  18.114  15.006 -0.0352  0.0088  0.0842
30129W        W43543  10.516  17.958  15.675  0.0839 -0.2582  0.0955
30130W        W43544   6.866   7.485   2.176 -0.0064 -0.1082  0.0388
30131W        W43545   5.616   6.694   3.439  0.0960 -0.0684 -0.1295
30132W        W43546   1.551  10.294   0.340 -0.0598  0.0292  0.0198
30133W        W43547  11.756  12.669  14.419 -0.2388  0.1825 -0.0494
30134W        W43548  17.973  12.280  11.808  0.0247 -0.1187  0.0003
30135W        W43549  17.800  10.090  13.549  0.0371  0.0077 -0.0218
30136W        W43550   1.249  17.421   2.942  0.1170 -0.0609 -0.1557
30137W        W43551  13.158  11.372   1.103 -0.1806  0.2452  0.1371
30138W        W43552  17.471   9.671  12.584 -0.1191 -0.1666 -0.1747
30139W        W43553   8.489  10.575  14.419 -0.0473 -0.1577 -0.2694
30140W        W43554  16.943  12.409  13.666 -0.1256  0.2490  0.0956
30141W        W43555   7.203   5.360   4.711  0.1150 -0.0020 -0.3942
30142W        W43556   1.595   8.964   2.161  0.2981 -0.0914  0.3053
30143W        W43557  13.615   4.966  14.371  0.0702 -0.1009  0.3367
30144W        W43558   9.938  17.488  11.420  0.0215 -0.2468 -0.1974
30145W        W43559  17.165  10.971   4.886 -0.0568 -0.1580  0.1738
30146W        W43560  17.953   7.087   6.282  0.1360  0.3197  0.2570
30147W        W43561   7.007   4.197   3.112 -0.1067  0.0812 -0.0933
30148W        W43562   3.581  10.948  10.580  0.0487  0.0817 -0.0791
30149W        W43563   6.107   0.499   5.080 -0.2939 -0.2961 -0.0054
30150W        W43564  16.951   2.006   6.107  0.1693  0.1899 -0.0815
30151W        W43565  13.238   9.016  12.366 -0.0005  0.1471  0.2304
30152W        W43566  12.295  12.259   9.699 -0.0311 -0.4166  0.0157
30153W        W43567   7.174   8.289   1.130 -0.0281 -0.0520  0.2526
30154W        W43568   9.803  16.670   3.370 -0.0416  0.0182  0.4035
30155W        W43569   5.738  11.522  12.345  0.0446 -0.1136 -0.1068
30156W        W43570  17.039  13.780  10.752  0.1769 -0.0191  0.0165
30157W        W43571   7.344   0.213   2.364  0.0150  0.0087  0.3694
30158W        W43572  12.413   6.510   0.342  0.0489  0.2439  0.0416
30159W        W43573   4.874  16.366  12.228  0.1655 -0.3218 -0.1314
30160W        W43574   4.411  12.331  13.714 -0.2419  0.0635 -0.0395
30161W        W43575  16.597  10.394   6.098 -0.3238  0.3587 -0.1639
30162W        W43576  16.625  12.864   0.927  0.1610 -0.0197 -0.1319
30163W        W43577  14.644  13.303  15.252  0.1272 -0.3016 -0.1201
30164W        W43578  11.419  13.941   0.496  0.1109  0.2638  0.1779
30165W        W43579  10.302   4.576  13.739 -0.0845  0.0453 -0.2294
30166W        W43580  15.247   8.180  14.384 -0.0724 -0.0730  0.3304
30167W        W43581  17.024  14.049  12.501 -0.1241  0.0627 -0.3842
30168W        W43582   5.256   1.311   2.197 -0.1563  0.0308 -0.0484
30169W        W43583  13.327  17.065  11.919  0.0313  0.3681 -0.0871
30170W        W43584  10.931   9.330  12.038 -0.1960 -0.0091  0.1105
30171W        W43585   4.923   1.389   2.688 -0.1745  0.1750 -0.0105
30172W        W43586   9.502  12.168   6.372  0.0550  0.0458  0.1396
30173W        W43587  12.123   8.568   5.060  0.0210  0.1546  0.0545
30174W        W43588   9.369   9.747   4.570 -0.1166  0.3961  0.0316
30175W        W43589   6.242  16.902   1.261  0.0580  0.0059 -0.3457
30176W        W43590  15.873  11.571   6.103  0.0046  0.1408 -0.4245
30177W        W43591   5.801  11.206  11.842 -0.2594  0.1787 -0.2760
30178W        W43592   3.548  13.224  16.247  0.0053  0.1648  0.1055
30179W        W43593  10.782   6.522  14.873 -0.3917 -0.2026 -0.1825
30180W        W43594  17.253  12.584  15.538 -0.2432  0.1866 -0.0938
30181W        W43595  17.550   8.661   3.966 -0.1062  0.0629  0.1132
30182W        W43596  10.895   3.571  14.127 -0.0400  0.0398  0.3284
30183W        W43597   3.546  15.817  16.105  0.0475  0.0365 -0.2682
30184W        W43598   4.867   6.068   2.336 -0.0159 -0.1276  0.0484
30185W        W43599  17.475  14.485   6.124  0.0294  0.1222  0.2108
30186W        W43600  12.024  14.177   3.318  0.0004 -0.2142 -0.0125
30187W        W43601  15.690   1.688   0.831 -0.0743 -0.2376 -0.1909
30188W        W43602   0.404  12.001  15.481  0.2504 -0.2146  0.1696
30189W        W43603  13.580   4.707   2.729 -0.1797  0.0607 -0.1999
30190W        W43604  17.812   1.408  10.911  0.1818  0.0351  0.1282
30191W        W43605   1.864   3.687  12.698  0.2754 -0.1469  0.2057
30192W        W43606  15.850  18.349   3.286  0.0489 -0.4169  0.0851
30193W        W43607   3.139  12.181   4.228  0.1402  0.1030 -0.0619
30194W        W43608  15.343   3.213   4.958 -0.2132 -0.0964 -0.2375
30195W        W43609  11.086  16.722   2.524  0.2947 -0.0282 -0.2717
30196W        W43610   1.032   6.365   0.060  0.3079  0.0618 -0.0208
30197W        W43611   2.834  13.497  12.008 -0.1968  0.1515 -0.0109
30198W        W43612   7.863   4.762  13.594  0.2514  0.3788  0.1287
30199W        W43613   1.966   2.767   4.473 -0.2956  0.1106 -0.1635
30200W        W43614  12.384  12.159  11.454 -0.3069 -0.1547 -0.2907
30201W        W43615   6.071  10.268   0.223 -0.3062 -0.1672 -0.1238
30202W        W43616   9.354   4.633  14.849  0.1419  0.0670  0.0092
30203W        W43617   6.234   2.025  15.700 -0.0069  0.0364  0.1563
30204W        W43618  14.030   4.735  11.450 -0.3429 -0.3091  0.0304
30205W        W43619  11.909   4.168  11.572 -0.0279  0.0511 -0.0652
30206W        W43620  10.199   4.632  14.250 -0.1353  0.1777  0.0724
30207W        W43621   1.490   4.979   0.901  0.1654  0.0532  0.1071
30208W        W43622  10.989   6.571   3.762  0.1131 -0.1749 -0.1480
30209W        W43623  13.204   9.659  12.551 -0.0064 -0.1859 -0.1189
30210W        W43624  12.688  17.823  10.034 -0.0473  0.2497  0.1801
30211W        W43625   9.683   4.533   1.714 -0.3138  0.1619  0.0397
30212W        W43626   0.681   9.201  15.366 -0.1141  0.0897  0.0550
30213W        W43627   8.553  11.840   3.420  0.1945  0.1645  0.1709
30214W        W43628   3.519   2.080  15.605  0.0368  0.2474  0.0899
30215W        W43629   1.231  15.882   3.902 -0.0316  0.0083 -0.0779
30216W        W43630   7.244   9.853  16.027  0.0714  0.2287 -0.3011
30217W        W43631   7.240  14.534  16.008 -0.4072 -0.1707  0.0453
30218W        W43632  13.646   8.730  10.856 -0.4241  0.2955  0.0775
30219W        W43633  14.752  15.664   2.290  0.2067 -0.2250 -0.0557
30220W        W43634  11.378  11.137  10.672 -0.1345 -0.2102 -0.0876
30221W        W43635   5.850  10.909   2.209 -0.0287  0.0059 -0.1387
30222W        W43636  15.472  10.984  13.164  0.1423 -0.1343  0.2704
30223W        W43637   0.725   9.922   0.742 -0.4702  0.1595 -0.1894
30224W        W43638   3.593   0.641   5.902  0.4271 -0.0180 -0.0478
30225W        W43639   4.257  17.602   4.894 -0.2572 -0.2267 -0.1244
30226W        W43640   2.136  11.672   0.763 -0.2762 -0.0959 -0.0311
30227W        W43641  11.374   1.561   5.003  0.1226 -0.2120  0.0302
30228W        W43642   0.429   8.334  12.956 -0.0208  0.2001 -0.1800
30229W        W43643   4.695   8.141  11.195  0.0244 -0.0767 -0.0342
30230W        W43644   6.572  13.422  13.052 -0.1038  0.1650 -0.0968
30231W        W43645  11.257  12.732  13.656  0.0348  0.0586  0.2553
30232W        W43646   0.645   4.148  12.019  0.0066 -0.5299 -0.2271
30233W        W43647   8.527  13.994   2.471  0.0831  0.0785  0.1640
30234W        W43648  11.261   0.413   4.327 -0.0216 -0.0528 -0.0454
30235W        W43649  14.634   7.165   6.531 -0.1359 -0.3246 -0.1666
30236W        W43650  14.823   5.163   0.484 -0.1708 -0.1640  0.1547
30237W        W43651  17.774   2.221   6.866  0.2632 -0.1586  0.0715
30238W        W43652   1.571   9.290   5.125 -0.0113 -0.0740 -0.0231
30239W        W43653   1.835  15.070   0.169 -0.0573 -0.0112 -0.2825
30240W        W43654  13.435  13.640   2.545  0.0644 -0.0686  0.3876
30241W        W43655  14.596   4.950  11.449  0.2644  0.2035 -0.0473
30242W        W43656   2.372   2.807  14.008 -0.1567 -0.2893 -0.4107
30243W        W43657  11.296   9.597   3.682 -0.3130 -0.0648  0.0891
30244W        W43658  14.297   1.905  11.156  0.1170  0.2540 -0.1412
30245W        W43659  14.092  12.691   3.284  0.1593 -0.0229 -0.1720
30246W        W43660   8.189   2.435   0.335 -0.0120 -0.2814 -0.0916
30247W        W43661   1.479  10.053  10.550  0.0558 -0.2585  0.1382
30248W        W43662   5.622  13.848   5.448  0.4271  0.0680  0.1628
30249W        W43663  10.288   0.746   3.336  0.2554  0.1822  0.3077
30250W        W43664  17.472   7.690  13.941 -0.1674  0.0786 -0.2003
30251W        W43665  11.262  16.603  13.013  0.1339  0.0113 -0.3275
30252W        W43666   3.500   7.410   4.977  0.2639  0.2033 -0.1752
30253W        W43667   8.363  16.583   9.442 -0.0112 -0.1389 -0.4576
30254W        W43668  12.483  15.106   5.464  0.1359 -0.2786  0.0564
30255W        W43669   7.264   1.443   3.352 -0.1242  0.3036  0.0111
30256W        W43670   0.192   5.362  13.621  0.3020  0.0915  0.1586
30257W        W43671  14.863  13.868   5.750  0.0396 -0.0697  0.0412
30258W        W43672  16.930  16.109  14.818  0.0244 -0.0736  0.0827
30259W        W43673  14.799  12.146  13.436 -0.2092  0.1454 -0.2355
30260W        W43674  15.749   0.044  10.161  0.3676 -0.0911 -0.2813
30261W        W43675  13.783   8.745  11.662  0.2626  0.0680 -0.3099
30262W        W43676  14.829   7.553   0.117 -0.2064 -0.2060  0.2049
30263W        W43677  10.182   6.423   5.253 -0.1258  0.0800  0.0118
30264W        W43678  17.877  14.384  10.911  0.0142  0.2983  0.2231
30265W        W43679  11.911  15.576   9.911 -0.1805 -0.1146  0.3736
30266W        W43680   4.726  18.149  10.120 -0.2343 -0.2218 -0.1082
30267W        W43681   4.197   1.020  11.249  0.0785  0.1843 -0.0673
30268W        W43682   0.192   0.679  14.580 -0.2565 -0.0690 -0.0966
30269W        W43683  10.196  16.856   6.189 -0.1791 -0.2150  0.2137
30270W        W43684  16.355   5.614   0.347  0.2402 -0.0181  0.1789
30271W        W43685   6.650  17.733   5.005 -0.1019  0.1480  0.3319
30272W        W43686   0.347   4.332  12.698 -0.0297  0.0125  0.1359
30273W        W43687  16.224  12.096  15.407 -0.0611  0.3344  0.1066
30274W        W43688   5.975  11.966  12.376 -0.1244  0.2268 -0.0145
30275W        W43689   6.092   5.557   1.639  0.1895  0.0688 -0.1691
30276W        W43690   0.636  15.160  15.478 -0.1168  0.3235 -0.3738
30277W        W43691  12.246  15.047  13.079  0.0701  0.2211 -0.1322
30278W        W43692  10.595  13.466  13.068  0.1727 -0.1095  0.2406
30279W        W43693   2.050  14.831   5.430  0.0175  0.0117 -0.0775
30280W        W43694  14.769   9.592  13.120 -0.2630  0.1862 -0.1369
30281W        W43695   0.803  16.011  13.757 -0.0070 -0.2984 -0.1128
30282W        W43696  14.616  11.481   3.980  0.0810 -0.0857 -0.2654
30283W        W43697  16.342   9.350   5.075 -0.2703  0.2571  0.0395
30284W        W43698   6.987   1.897  10.660 -0.0654 -0.6318  0.2676
30285W        W43699  16.954  15.512   1.273  0.1825 -0.0323  0.0447
30286W        W43700  13.237  14.266  12.265  0.2390 -0.2561  0.0928
30287W        W43701   3.098   2.319  15.016 -0.0086 -0.2490 -0.0455
30288W        W43702  16.867   2.544   6.191 -0.3159  0.1536 -0.0041
30289W        W43703  18.221   8.630   5.278 -0.1664  0.1801 -0.2216
30290W        W43704   6.101   8.343   1.100 -0.0336 -0.2769  0.3729
30291W        W43705  15.509  13.446   1.132 -0.0064  0.0012 -0.0392
30292W        W43706  14.661   2.823  13.786  0.2429 -0.1560  0.0085
30293W        W43707   6.600   1.240  11.954  0.1804  0.1361 -0.1597
30294W        W43708   0.172   0.927   3.970 -0.0028 -0.1057 -0.4716
30295W        W43709   6.524  17.897  15.109  0.2345  0.1794  0.1644
30296W        W43710  16.056   4.390   6.049  0.0812  0.2640  0.4556
30297W        W43711   2.954  14.427   1.186  0.1281  0.1182  0.2598
30298W        W43712   4.520   8.633   0.562  0.1962 -0.0177  0.1862
30299W        W43713  14.748  12.968   2.519  0.1366  0.0943 -0.0481
30300W        W43714   5.352  14.912   4.538 -0.2490 -0.0714  0.1309
30301W        W43715   8.188   1.800   2.301 -0.0353  0.3690  0.1607
30302W        W43716   2.632  16.880   0.583  0.0470  0.0016  0.0652
30303W        W43717  17.635  18.235   5.575  0.1263 -0.2562  0.1387
30304W        W43718   4.641  14.275  10.183 -0.4216  0.2129  0.1047
30305W        W43719   7.296  18.123  13.910  0.1148  0.1727  0.0672
30306W        W43720  13.510  17.492  15.539  0.0540  0.1078  0.0692
30307W        W43721   6.607  15.042  15.388 -0.3804  0.2339  0.2986
30308W        W43722   0.045   4.391  14.154 -0.0862 -0.0001 -0.1490
30309W        W43723   3.303   6.866   0.628  0.0723 -0.0194 -0.0849
30310W        W43724  16.245   6.485   5.133  0.2634 -0.1236  0.1864
30311W        W43725  14.098  12.631   5.830 -0.2155 -0.1644 -0.1739
30312W        W43726   3.683   4.101  13.664 -0.0530 -0.3871  0.2689
30313W        W43727  11.100   9.759   5.093  0.0377  0.1774 -0.2200
30314W        W43728   7.010  14.612  13.296 -0.3874 -0.1095  0.2414
30315W        W43729   5.405  18.224   4.296  0.0396 -0.1025  0.0572
30316W        W43730   2.909   2.415  11.499  0.0595  0.0570  0.0356
30317W        W43731   7.807  10.028  11.241  0.1031 -0.2236  0.0196
30318W        W43732  14.270   1.340   5.176  0.1020 -0.1745 -0.0291
30319W        W43733  10.490   8.450   5.529 -0.0961  0.2028 -0.1433
30320W        W43734   3.084   6.414  14.289  0.0305  0.1152 -0.1526
30321W        W43735  16.350  15.225  10.555 -0.0850  0.0306 -0.0477
30322W        W43736   4.658   0.754  12.980 -0.1662 -0.0600 -0.2308
30323W        W43737   1.053   0.814  11.495  0.1180  0.2919  0.0680
30324W        W43738  12.258  12.644   3.951 -0.0591 -0.1948 -0.2314
30325W        W43739  11.767  14.211   0.727  0.0083 -0.0357  0.0115
30326W        W43740  15.298  16.757  11.872  0.0081 -0.1367  0.0244
30327W        W43741   4.015  10.661  13.164 -0.0444  0.0753  0.0087
30328W        W43742  16.103   2.937   1.674  0.2943 -0.1738  0.1074
30329W        W43743   1.222   7.738   0.131 -0.4530  0.0485  0.1142
30330W        W43744  17.584   9.469  14.024 -0.0840 -0.0719  0.3006
30331W        W43745  13.585   9.063  11.329  0.2650 -0.2659  0.3181
30332W        W43746  12.225  13.236  12.319 -0.0744  0.3535 -0.0058
30333W        W43747  15.312   4.757   5.455 -0.2110 -0.1271 -0.4393
30334W        W43748  16.426  10.181   0.256 -0.2270  0.0376 -0.1116
30335W        W43749   3.048   7.144   2.252  0.2701 -0.0745 -0.0796
30336W        W43750  15.080  14.853   3.611 -0.0449 -0.2299 -0.0779
30337W        W43751   7.306  11.411   1.887 -0.2916  0.2430 -0.0064
30338W        W43752  12.973   6.890   3.099  0.1722  0.1192  0.1228
30339W        W43753   7.691  15.153   3.853  0.1696 -0.1814  0.1956
30340W        W43754  10.809  16.302   5.079 -0.2609  0.3504  0.1609
30341W        W43755  13.832  16.077   4.032  0.1356 -0.5574  0.0165
30342W        W43756  13.334  17.601  10.652 -0.3213 -0.1252 -0.0129
30343W        W43757   6.553  13.958   1.366 -0.0889 -0.3285  0.0788
30344W        W43758   4.098  10.335  12.776 -0.0313 -0.2785 -0.0751
30345W        W43759   4.887   3.510   3.624  0.1631 -0.3841 -0.1478
30346W        W43760   0.507  10.597  10.623  0.3426 -0.1461 -0.0432
30347W        W43761  12.433  14.582   4.559  0.1515 -0.1330 -0.0668
30348W        W43762   1.748  17.433   2.887  0.1256 -0.0414  0.0273
30349W        W43763  16.709   2.148  12.044 -0.0554 -0.1472 -0.1815
30350W        W43764  14.659   0.356   3.015  0.1186  0.3320  0.1465
30351W        W43765  15.942   6.323   5.640 -0.1503 -0.0175 -0.0719
30352W        W43766  14.523  16.547   0.830 -0.0230 -0.0341  0.2098
30353W        W43767  14.627  10.246  11.737 -0.0062 -0.5830  0.2287
30354W        W43768  14.992  11.615   1.514 -0.1070  0.1367 -0.2963
30355W        W43769   6.765  13.946  14.862  0.0831  0.3056 -0.0435
30356W        W43770  13.936  11.561  13.297  0.6376  0.0314 -0.0191
30357W        W43771  13.062  16.534   3.592 -0.1120  0.1597  0.1944
30358W        W43772  15.626  11.189   2.747 -0.0083 -0.0226 -0.0450
30359W        W43773   0.259   9.169  10.636 -0.3775 -0.2639  0.0349
30360W        W43774   9.697   1.053  15.976 -0.2898  0.1437 -0.2678
30361W        W43775   6.965   8.689   5.813 -0.4244  0.0124  0.2375
30362W        W43776   5.145  13.241   2.716  0.1772 -0.1702  0.0959
30363W        W43777   0.764  15.531   4.769 -0.0652 -0.1804 -0.0503
30364W        W43778  16.398   0.428  12.637 -0.2189 -0.1672  0.0725
30365W        W43779   6.674  13.306   2.732  0.4307  0.2433 -0.1190
30366W        W43780   3.857  14.081   6.384 -0.1320  0.0834  0.1178
30367W        W43781  18.000   5.009   0.784 -0.1123 -0.1803  0.0882
30368W        W43782  17.496   6.635   2.075  0.3631  0.0624  0.1240
30369W        W43783  17.147   6.399   0.089  0.2945 -0.2141  0.0437
30370W        W43784   9.628  11.681  10.128 -0.0188 -0.2551  0.1502
30371W        W43785   0.464  17.172  10.872 -0.2617 -0.1634  0.0486
30372W        W43786   7.112   9.271  11.241 -0.2040 -0.0476  0.1764
30373W        W43787  18.431  10.994  11.732 -0.1884  0.2529  0.0985
30374W        W43788   1.419   4.533   0.096  0.5005 -0.0759 -0.0720
30375W        W43789  13.613   8.626   2.227  0.3643 -0.3206 -0.2015
30376W        W43790  11.276   5.671   4.325  0.2574 -0.0160  0.1492
30377W        W43791   3.907   6.161  15.937 -0.2507 -0.1804  0.1465
30378W        W43792  10.199  12.937   4.604  0.0904  0.0703 -0.0252
30379W        W43793   4.298   0.180  13.474  0.2013  0.0328 -0.0569
30380W        W43794   0.547   6.775   2.246 -0.2051  0.4416  0.0373
30381W        W43795   3.982   8.388   2.861  0.0023 -0.2014 -0.1615
30382W        W43796   9.464  15.961  12.897 -0.0401  0.3103 -0.3832
30383W        W43797   2.498   1.435   2.756  0.4680  0.2467 -0.2182
30384W        W43798  17.746  18.247   4.124  0.1853  0.0070 -0.0065
30385W        W43799   2.049   4.662   4.601 -0.0244  0.5430  0.6136
30386W        W43800  13.101  12.728  14.939 -0.0881 -0.2174  0.0068
30387W        W43801  14.149   1.253   2.733  0.1715  0.0264  0.0594
30388W        W43802  13.591   2.441  14.330  0.1114  0.0894  0.1678
30389W        W43803  12.866  13.793   2.601  0.0897 -0.1965 -0.0954
30390W        W43804   4.602   4.373   4.165 -0.0381  0.3498 -0.2219
30391W        W43805  11.820   7.989  13.086 -0.2593 -0.2192 -0.2137
30392W        W43806   6.091  10.207  11.496 -0.0399 -0.0575 -0.0231
30393W        W43807  11.463  13.893  15.539 -0.3089 -0.0722  0.1473
30394W        W43808  14.132  14.454   1.201  0.0292 -0.0468  0.0562
30395W        W43809   2.187   3.766  13.753 -0.1713 -0.2065 -0.2283
30396W        W43810   3.908  15.384  11.228  0.0905  0.0132  0.3393
30397W        W43811   1.816  15.600  10.796  0.0035 -0.0168  0.1577
30398W        W43812  16.449   2.238   2.046 -0.1239 -0.1407 -0.2574
30399W        W43813   5.341   9.865   0.266 -0.2250 -0.2089  0.1658
30400W        W43814  17.789   3.255  15.797 -0.1719 -0.4276  0.0286
30401W        W43815  10.838   0.572  15.682  0.1449  0.2569  0.2193
30402W        W43816   7.750   1.884  11.884  0.1882  0.2364  0.0135
30403W        W43817  14.851  12.236  14.533  0.1837  0.1994 -0.1039
30404W        W43818   5.083  14.250  11.360  0.3122 -0.0813 -0.0723
30405W        W43819  10.216   5.808   1.561 -0.1697 -0.0736  0.0427
30406W        W43820   7.793   0.405   1.711  0.1517 -0.1078 -0.0539
30407W        W43821   9.213   5.120  15.098 -0.1873 -0.0633  0.2912
30408W        W43822   8.242  15.239   3.776  0.0059  0.1298  0.0759
30409W        W43823  13.817   3.429   9.958 -0.1823  0.2069 -0.0947
30410W        W43824   8.090  17.022   3.067  0.0576  0.1140 -0.0949
30411W        W43825   2.687   4.779  14.426 -0.0062  0.2302 -0.0985
30412W        W43826  14.785  17.704   4.213  0.0186 -0.1596  0.2558
30413W        W43827   6.248  15.067   0.847 -0.1039  0.0337  0.1099
30414W        W43828   2.189   9.593  16.180  0.1386 -0.1039 -0.1254
30415W        W43829   4.767  15.604   3.999 -0.0296 -0.0074  0.0857
30416W        W43830   0.957   6.174   1.600  0.1301  0.2448  0.0727
30417W        W43831  16.057   1.444  14.307 -0.0522  0.0829 -0.0789
30418W        W43832   9.402   9.439   4.162 -0.0419 -0.1432 -0.1282
30419W        W43833   8.093   3.543   3.777  0.0187 -0.2875  0.0659
30420W        W43834   8.259  14.984  12.005  0.1696  0.2125  0.0940
30421W        W43835   4.108   8.242   5.006 -0.1509 -0.0278 -0.0832
30422W        W43836  15.712   3.967  15.000 -0.3662  0.2242 -0.3011
30423W        W43837  13.973   0.723   3.491 -0.1207 -0.4083  0.1032
30424W        W43838  14.786   1.675   0.497 -0.2052 -0.0582  0.2636
30425W        W43839   0.235   1.526  13.303  0.0101 -0.2880 -0.2079
30426W        W43840  16.521   1.515  13.528  0.2017  0.0013  0.2802
30427W        W43841  12.086   7.204   3.533 -0.0805  0.0523  0.1402
30428W        W43842  14.653  18.192   5.105 -0.1278 -0.0160 -0.2153
30429W        W43843   0.244  18.339  10.998  0.3459  0.1532  0.0306
30430W        W43844   6.242  14.297  11.627 -0.2031 -0.1141  0.1562
30431W        W43845   5.205  15.115   2.375  0.0014 -0.0195  0.0373
30432W        W43846   1.865  15.581  16.042  0.0462  0.2052 -0.0005
30433W        W43847  17.091  15.916   5.501 -0.0323  0.2043  0.1001
30434W        W43848   0.714   8.530  12.495 -0.0096  0.4606  0.1225
30435W        W43849  14.107   3.221   5.784 -0.0072  0.1586 -0.3663
30436W        W43850  14.319  15.523   1.775 -0.1210 -0.0952  0.2561
30437W        W43851   0.494  10.834   2.865 -0.0725 -0.0196  0.3015
30438W        W43852   1.600  13.254   3.633 -0.1887 -0.1398  0.0946
30439W        W43853  15.337  18.231  15.197  0.3247 -0.0865 -0.1415
30440W        W43854  10.896  12.223  14.279  0.1485 -0.3036  0.1296
30441W        W43855  16.135  13.432   3.373 -0.2116  0.0311 -0.0791
30442W        W43856   9.377  14.292   4.001  0.1473 -0.0098  0.3737
30443W        W43857   5.756  11.982   0.440  0.1564 -0.1469 -0.0401
30444W        W43858  15.085   6.626   1.932 -0.1225 -0.1337  0.2271
30445W        W43859  13.169  14.212  11.707  0.0805 -0.1729 -0.1829
30446W        W43860  13.715  10.349   3.516  0.0811 -0.1149 -0.1472
30447W        W43861  14.440   0.451  14.988  0.0658  0.0600 -0.0985
30448W        W43862   4.099   5.981  12.850  0.0173 -0.1684 -0.1199
30449W        W43863  17.462   6.836  11.883  0.1085 -0.0252  0.2201
30450W        W43864  16.113   6.548   0.223  0.1825  0.2557 -0.2207
30451W        W43865  16.619  18.195   2.564 -0.0209  0.0530 -0.1527
30452W        W43866   2.112   2.551  11.044 -0.1072 -0.1747  0.2484
30453W        W43867  14.943   0.226  15.133 -0.1336  0.3590  0.2133
30454W        W43868   6.374   5.743  13.621  0.3008 -0.1138 -0.2798
30455W        W43869  16.936  11.441   2.016 -0.1243 -0.2523  0.0152
30456W        W43870  11.603  12.472  10.909 -0.3943  0.4351 -0.1727
30457W        W43871   7.447  11.241  12.216  0.0755  0.1088 -0.2746
30458W        W43872   8.505  17.192  15.299  0.1143 -0.2975 -0.0815
30459W        W43873  15.113   0.663  12.236 -0.0812 -0.1567 -0.1632
30460W        W43874  17.929  15.315  14.382 -0.0947  0.0844  0.0375
30461W        W43875  10.753   3.766  13.565  0.1216 -0.0607 -0.1509
30462W        W43876  11.172   3.717  13.122 -0.1503  0.0017  0.0668
30463W        W43877   1.082   7.624  13.675 -0.2230 -0.0809  0.1006
30464W        W43878   3.231   8.899   2.909  0.0103 -0.0780 -0.0287
30465W        W43879   1.398   7.674  14.674  0.1704 -0.1557  0.0667
30466W        W43880  13.514  12.604   3.117  0.1262 -0.0941  0.0499
30467W        W43881  14.608   3.838  13.177  0.0810  0.2121 -0.3367
30468W        W43882   0.759   6.598   0.523 -0.0004  0.3730 -0.3353
30469W        W43883  13.615  15.152  12.114 -0.2056  0.0894  0.3831
30470W        W43884   4.236   2.257  12.670 -0.2356 -0.2686  0.2617
30471W        W43885   0.201  17.756   1.187 -0.3094  0.0081  0.1014
30472W        W43886   5.267   9.490  15.944 -0.2903  0.2324  0.2347
30473W        W43887   8.284   4.509   4.109  0.0811  0.1451 -0.2197
30474W        W43888  11.245   8.101  13.872 -0.0742 -0.0114 -0.1542
30475W        W43889  12.421  11.431  11.866 -0.0511  0.0897  0.0402
30476W        W43890  10.561   8.033   3.625  0.0631 -0.0263 -0.1065
30477W        W43891   4.791   6.855   3.815  0.0284 -0.0426 -0.1062
30478W        W43892  14.436  12.548   0.755 -0.2166 -0.4672  0.1643
30479W        W43893  10.133   1.149   3.769 -0.1636  0.0925 -0.2884
30480W        W43894  17.196   4.405  10.514 -0.1781 -0.3003  0.0074
30481W        W43895   3.309  13.180   2.816 -0.3031 -0.0017  0.0860
30482W        W43896   3.667  16.105   0.351 -0.0492 -0.2848  0.0640
30483W        W43897  13.704  10.382   5.786 -0.0534 -0.2928  0.1751
30484W        W43898   9.737  17.876   4.635 -0.0986 -0.0905 -0.2583
30485W        W43899   5.660   2.150  13.543 -0.2327 -0.0348 -0.4743
30486W        W43900  10.744   3.092  11.349 -0.3282 -0.0049  0.3911
30487W        W43901  16.216  15.695  10.794 -0.0099 -0.0165 -0.0594
30488W        W43902   6.452   9.213   2.445  0.0095  0.0794  0.2501
30489W        W43903   5.878  12.202   2.603  0.0113 -0.1210  0.0151
30490W        W43904  10.341  12.039  15.359  0.2008  0.0818 -0.0198
30491W        W43905  13.287  16.999   2.870 -0.0412  0.3967  0.0066
30492W        W43906   3.983   6.413   3.868 -0.1782  0.0819  0.1843
30493W        W43907  14.687  12.209   2.195 -0.1971 -0.0535  0.0011
30494W        W43908   9.508  11.596  16.084 -0.0517  0.2778 -0.0939
30495W        W43909  13.267  17.907  14.165 -0.3427  0.1039 -0.1289
30496W        W43910  10.888   1.486   0.056  0.0053  0.1909 -0.2409
30497W        W43911   1.259  14.666  13.916  0.0898  0.0759  0.1941
30498W        W43912  11.410   9.621   1.222 -0.1111 -0.0236 -0.1428
30499W        W43913   0.693   9.860  11.655  0.1302 -0.0214 -0.0124
30500W        W43914   2.290  14.321  11.216  0.0230  0.1318 -0.1710
30501W        W43915   8.799   1.876   1.531 -0.3521 -0.0930  0.1534
30502W        W43916   8.663  11.923  10.474 -0.2951  0.1279 -0.1346
30503W        W43917  15.452   4.500   3.804 -0.0750  0.0448 -0.3734
30504W        W43918   3.722   2.875  10.995 -0.1006 -0.3445 -0.0105
30505W        W43919  16.377  12.194  14.465 -0.2417  0.0204  0.1933
30506W        W43920  16.129   9.000   6.259  0.2308 -0.0501  0.0218
30507W        W43921  11.439   4.087  11.867 -0.2109  0.2275  0.2213
30508W        W43922  14.231  10.278   2.315  0.1432  0.2125  0.2788
30509W        W43923   6.982   5.170  12.638 -0.0279  0.1975  0.0573
30510W        W43924   7.113   2.061   0.961  0.1809 -0.0082 -0.2308
30511W        W43925  11.340  16.198  13.944  0.3986 -0.0107  0.3001
30512W        W43926   3.126  17.111  15.146 -0.3641  0.1707 -0.0308
30513W        W43927  12.519  13.467   0.066  0.0839  0.1995 -0.2821
30514W        W43928  15.327  13.100  11.263 -0.3499 -0.2319  0.2511
30515W        W43929  17.317  11.653  11.455 -0.3159 -0.1695  0.2025
30516W        W43930   9.311  17.528  14.144  0.1543 -0.0663  0.1922
30517W        W43931   6.008  15.206  11.124 -0.1680 -0.0146 -0.0327
30518W        W43932  17.525   2.341   1.289  0.2334  0.4209  0.1458
30519W        W43933  18.181   7.054   0.884 -0.0331 -0.0485 -0.0057
30520W        W43934  16.676  15.101   0.027  0.2834  0.3236 -0.0296
30521W        W43935   5.093  16.547  10.692  0.2413  0.0871  0.1436
30522W        W43936   2.699   8.339   3.336 -0.1514 -0.0501 -0.0813
30523W        W43937   2.063   1.381   0.821 -0.1928  0.2158  0.0537
30524W        W43938  15.983  16.872  15.751  0.1317  0.0562 -0.3437
30525W        W43939   6.893  14.257   1.071  0.1582  0.1901 -0.1297
30526W        W43940  17.740   5.354  13.029 -0.3031  0.1066 -0.0276
30527W        W43941   5.122  16.721  15.704 -0.0522  0.0735 -0.0287
30528W        W43942   0.794  10.340   1.046 -0.2883  0.0198 -0.1335
30529W        W43943  10.215  15.685  13.744 -0.0137 -0.0449 -0.1582
30530W        W43944   3.013  13.461   0.913  0.3549  0.4319  0.2531
30531W        W43945   1.575  15.134  16.026 -0.1629 -0.0402 -0.2368
30532W        W43946   4.145  17.437  13.591  0.0503  0.0337  0.0936
30533W        W43947  17.850   6.346   5.180 -0.0867 -0.0266 -0.1933
30534W        W43948   6.948   8.610  13.833 -0.1578  0.1546 -0.1018
30535W        W43949  15.735   8.978   0.619 -0.1146  0.2101  0.1957
30536W        W43950   5.795  13.471   3.926 -0.0196 -0.0948  0.0452
30537W        W43951  14.489   0.991   2.298  0.0401 -0.1342  0.0423
30538W        W43952  11.432  17.854  12.907  0.2012 -0.3343 -0.0471
30539W        W43953  18.343   1.658  15.425 -0.2612  0.1129  0.1251
30540W        W43954  15.574  11.340   1.675  0.0598  0.0521 -0.1236
30541W        W43955  13.245   4.640  14.747  0.3887 -0.0015 -0.0218
30542W        W43956   8.341   1.312   2.099 -0.2864  0.0579 -0.1211
30543W        W43957  17.147   0.144  12.130  0.1088 -0.1037  0.0903
30544W        W43958  13.141  17.823   0.885  0.1039 -0.0211  0.1803
30545W        W43959  12.447   9.275  12.332 -0.3145  0.2211  0.2829
30546W        W43960  17.822  16.234  16.008  0.0949 -0.1504 -0.1570
30547W        W43961   9.720   6.493   0.212 -0.1035  0.0800 -0.0845
30548W        W43962  13.946   3.249  10.531  0.1391 -0.0588  0.0654
30549W        W43963   8.079   1.606   5.448  0.0632  0.0647 -0.1351
30550W        W43964  14.353  16.237  10.638  0.1529 -0.0178  0.3223
30551W        W43965  12.842  13.936  16.196 -0.0389 -0.4770 -0.3211
30552W        W43966   3.170   7.866   5.065 -0.3877 -0.1291 -0.2266
30553W        W43967  18.153   6.027   0.518  0.0177 -0.0094  0.1875
30554W        W43968  16.309   4.066  12.915 -0.0879 -0.0512  0.0400
30555W        W43969  11.027   0.262  15.265 -0.0495 -0.0701 -0.1973
30556W        W43970  15.486  14.876  12.160  0.1859  0.1138 -0.1577
30557W        W43971  11.662   8.533  13.178  0.1953  0.0336 -0.2576
30558W        W43972  11.715  10.796  14.466  0.1315  0.0083 -0.0407
30559W        W43973   2.761   0.795  12.981 -0.0608 -0.2124 -0.0591
30560W        W43974  14.620  13.269  11.327 -0.0535 -0.2564 -0.1881
30561W        W43975   6.306   6.400   0.984 -0.0568  0.2828  0.1130
30562W        W43976   5.956   0.921  13.670 -0.2520  0.1039  0.2020
30563W        W43977  16.322   5.249   3.738 -0.0781 -0.3713 -0.1204
30564W        W43978  14.912  16.795   0.492  0.1898  0.0194  0.1725
30565W        W43979   3.068   3.053  12.501 -0.1531  0.0322 -0.1943
30566W        W43980  11.606   1.962   3.730 -0.1523  0.0424  0.1617
30567W        W43981   0.631  12.439  15.365 -0.0967 -0.2694 -0.0972
30568W        W43982  14.322  12.199   5.122  0.0982 -0.1154 -0.0518
30569W        W43983   7.247   9.000   4.650  0.1887 -0.1821  0.0065
30570W        W43984   4.950   2.072  12.370 -0.2385 -0.0463 -0.3045
30571W        W43985   5.894   4.720  14.379 -0.2346 -0.0078 -0.1028
30572W        W43986  14.702   7.891  14.056  0.0292 -0.0178 -0.2054
30573W        W43987  14.144  15.953  12.066 -0.0412 -0.2273  0.3165
30574W        W43988   0.523  17.718   4.865  0.5381 -0.5602 -0.1270
30575W        W43989   1.545  13.368   0.167  0.0840 -0.0319  0.2588
30576W        W43990   6.449  14.206  13.404 -0.1407 -0.1035 -0.1397
30577W        W43991   9.698  12.116   4.405  0.0991  0.1505 -0.2014
30578W        W43992  11.313   7.238   1.465 -0.0458 -0.4060 -0.0833
30579W        W43993   0.563  10.242   2.075  0.1874  0.0617 -0.1411
30580W        W43994  16.800  13.843  15.070  0.1699 -0.1119 -0.1252
30581W        W43995  16.266  17.045  14.408 -0.2070 -0.1538 -0.1757
30582W        W43996  15.743  17.520  10.836 -0.2866 -0.0457  0.0035
30583W        W43997  12.124   9.457   0.167 -0.0680 -0.2780 -0.0560
30584W        W43998  11.441   4.574   4.344 -0.0208  0.2040  0.2483
30585W        W43999   0.023  14.701   2.465  0.0858  0.5203  0.2088
30586W        W44000   5.787   1.943   4.245 -0.0573  0.0035  0.1876
30587W        W44001   4.517   2.378  12.057 -0.0810 -0.1261  0.1543
30588W        W44002   6.036   2.393   0.181  0.3242 -0.0609 -0.1376
30589W        W44003  11.036   5.651   2.226  0.0458 -0.0662  0.0560
30590W        W44004  16.899  16.945  15.362  0.1200 -0.4252 -0.0464
30591W        W44005  13.778  11.780   2.343 -0.1454 -0.1294  0.1692
30592W        W44006  14.846  14.279   0.548 -0.0813 -0.0513 -0.0446
30593W        W44007  13.579  11.694   2.906 -0.0733 -0.3266 -0.2672
30594W        W44008  11.841  16.868  10.899 -0.2490  0.2771  0.1507
30595W        W44009  15.225  16.901  13.427 -0.2225  0.1216  0.2049
30596W        W44010   7.703   2.512   5.270  0.0514  0.0329 -0.1346
30597W        W44011  15.127   3.443   3.620 -0.1462  0.1033 -0.1633
30598W        W44012  18.317   4.286   5.407 -0.1244  0.0172  0.1510
30599W        W44013   6.673  10.957  12.676 -0.2646  0.4054 -0.4711
30600W        W44014   4.896   5.617   1.950 -0.1572 -0.0736 -0.1663
30601W        W44015  10.171  15.053  14.837  0.0324 -0.2608  0.2528
30602W        W44016   1.006   0.828  15.922 -0.1221  0.0956 -0.1109
30603W        W44017   6.108   9.822  13.508 -0.1778  0.0986 -0.0886
30604W        W44018  11.806  18.174   3.257  0.0447  0.0762  0.1243
30605W        W44019  17.212  15.802   6.029  0.3057  0.2864 -0.1925
30606W        W44020   4.090   0.428  12.185  0.1651 -0.0450 -0.1404
30607W        W44021   7.102  12.907   0.213 -0.1760 -0.1017 -0.1616
30608W        W44022  15.066  14.153   4.678 -0.0499 -0.4405  0.1024
30609W        W44023   2.163   1.202   4.882 -0.2236 -0.4294 -0.0243
30610W        W44024   9.088  16.497  14.677  0.0739  0.1754 -0.2097
30611W        W44025  17.054   0.621  12.053 -0.3364  0.0702 -0.1584
30612W        W44026   4.320   5.539  13.795  0.1799 -0.2068 -0.0371
30613W        W44027  15.523   1.322   4.602  0.3435 -0.1659 -0.0118
30614W        W44028   9.374   8.950  12.941 -0.3233 -0.2602 -0.1938
30615W        W44029   3.516  15.320  14.115 -0.0138 -0.2432  0.2467
30616W        W44030  17.945  13.647  12.886 -0.1416 -0.1254  0.1314
30617W        W44031  17.553  13.164   3.740 -0.1701  0.5126  0.0688
30618W        W44032  13.965  10.910  13.961 -0.0811  0.1129 -0.3045
30619W        W44033   8.481   6.844  11.246 -0.1280 -0.2614 -0.2460
30620W        W44034   6.833  13.589   1.468  0.2873 -0.2356  0.0459
30621W        W44035  12.945   6.386   5.345 -0.4423 -0.0870  0.6468
30622W        W44036   6.853  17.960   9.981  0.3890  0.4328  0.0265
30623W        W44037  13.096  11.082   5.394  0.1154  0.1557 -0.2722
30624W        W44038   0.558   5.837   1.794 -0.1311 -0.2645  0.1860
30625W        W44039   7.436   2.441   1.325 -0.1003  0.2599 -0.1074
30626W        W44040   6.105  15.839   6.019  0.2019  0.1965 -0.0680
30627W        W44041  16.264  15.505  13.770  0.3545  0.4814  0.2388
30628W        W44042  17.566   7.899  13.066 -0.0652  0.0018 -0.0533
30629W        W44043   6.608   9.468   1.531 -0.0909  0.0034 -0.1669
30630W        W44044  13.481   7.047   3.656  0.4917 -0.3289  0.0739
30631W        W44045   0.705  13.704  14.761  0.2268  0.0129 -0.0912
30632W        W44046   5.501   0.464   3.584  0.3033  0.2666  0.3142
30633W        W44047  13.589  14.343   2.105  0.1507  0.0070  0.0308
30634W        W44048   8.580   0.863  10.984  0.0131 -0.1376 -0.1339
30635W        W44049   0.399   9.031   3.101 -0.4645 -0.1195 -0.2027
30636W        W44050   2.894   2.678   4.915 -0.0728  0.2558 -0.0926
30637W        W44051  10.105   6.229   2.827  0.1488  0.0228  0.2278
30638W        W44052  12.283  11.176   4.045 -0.0778 -0.2987 -0.0073
30639W        W44053  16.458   9.133  12.414  0.0385 -0.0841 -0.3969
30640W        W44054  17.291  16.413   0.538 -0.0229 -0.0519  0.0630
30641W        W44055   7.413  12.169  15.693 -0.1758 -0.0790  0.0588
30642W        W44056  11.914   4.144   3.394 -0.0314  0.1325  0.0649
30643W        W44057  18.341  17.647  13.407  0.0650 -0.0611 -0.0150
30644W        W44058  17.251  15.363   6.270 -0.1341 -0.0692 -0.2795
30645W        W44059   6.749   6.864   4.072 -0.1455 -0.0463 -0.1922
30646W        W44060   6.688  16.006  11.064 -0.2789 -0.2070  0.0586
30647W        W44061  11.058  15.473   4.344 -0.1611  0.1071 -0.0795
30648W        W44062   0.975   5.966  13.037  0.2493  0.2353 -0.2526
30649W        W44063   9.256  12.651   2.278  0.1389  0.5282  0.0694
30650W        W44064   2.154   8.644   4.369 -0.1655  0.2028 -0.1755
30651W        W44065  11.081   5.840  13.941 -0.0117 -0.2261 -0.0758
30652W        W44066   1.770  13.361  13.636  0.3423 -0.1613  0.0094
30653W        W44067  11.855  13.198   6.111 -0.1010  0.0495  0.3220
30654W        W44068  12.454   7.539   3.488 -0.3637 -0.2073 -0.0123
30655W        W44069   8.593   0.279  13.475  0.2093 -0.1783 -0.1157
30656W        W44070  12.014  12.645   4.789  0.2329 -0.3863 -0.1131
30657W        W44071   2.928   0.612  11.790 -0.0768 -0.3334 -0.0385
30658W        W44072  16.112  13.339  14.891  0.0603 -0.0969  0.3728
30659W        W44073   5.529  10.569  10.827 -0.2358 -0.0877  0.3737
30660W        W44074  15.813   3.991  12.815  0.0403 -0.0006 -0.0726
30661W        W44075   6.876  11.175   4.975  0.1306  0.0174 -0.2227
30662W        W44076  14.384  12.761  15.193 -0.2501 -0.2904 -0.2126
30663W        W44077  11.939   2.734  15.020  0.0615 -0.3711  0.1600
30664W        W44078  10.607   5.995  13.581 -0.0578  0.0541 -0.1366
30665W        W44079   6.047  18.257  12.471  0.0892 -0.3810  0.0685
30666W        W44080   0.148   5.893  15.950 -0.0521 -0.0828  0.1700
30667W        W44081   6.298   5.152   1.992 -0.0184 -0.0684 -0.1439
30668W        W44082  17.852   7.891  12.151 -0.0312  0.0451 -0.1919
30669W        W44083  16.128   3.899   2.473  0.0740 -0.1872 -0.1373
30670W        W44084   1.501   4.578   3.732  0.1832 -0.2038  0.0792
30671W        W44085   1.975   5.689   4.198 -0.1394 -0.0591 -0.0684
30672W        W44086   1.982   1.418  10.423  0.2163  0.2303 -0.0205
30673W        W44087   3.987   9.139  15.806  0.2051  0.2293 -0.0947
30674W        W44088   6.391  18.023   5.909  0.2748 -0.1954 -0.2926
30675W        W44089  13.464   2.699  12.224 -0.0852 -0.4676  0.0516
30676W        W44090  17.849  15.615   1.655  0.1009 -0.1578  0.0803
30677W        W44091   0.305   8.442   0.955 -0.0305  0.0906 -0.0310
30678W        W44092  11.407  11.647  14.948  0.2012  0.0957 -0.0639
30679W        W44093  12.700  15.392  13.249 -0.0322  0.0271 -0.1375
30680W        W44094   4.621   0.556  15.377  0.1492  0.2220 -0.0519
30681W        W44095  11.808   0.597   0.970  0.2416  0.0423  0.0280
30682W        W44096   2.946   8.012  12.506  0.2439 -0.0155 -0.0395
30683W        W44097  14.013  16.367   1.879 -0.0376  0.3326  0.3515
30684W        W44098   8.244  12.597  12.914  0.0899  0.2460 -0.3012
30685W        W44099   8.141  12.576   4.959  0.0832  0.1426  0.1467
30686W        W44100   3.521  13.530  12.735  0.0204  0.2563  0.2466
30687W        W44101   1.932  14.939   1.017 -0.0270 -0.1657  0.0133
30688W        W44102   2.484   4.992   0.834 -0.0744 -0.1480 -0.0183
30689W        W44103   2.283   7.934  15.189 -0.2559  0.1962  0.2031
30690W        W44104  17.460   6.943  10.994  0.0819 -0.0596  0.1049
30691W        W44105   0.145  11.811  11.377 -0.1594  0.1537  0.1712
30692W        W44106   2.200  11.595   1.280 -0.0827 -0.3466  0.1245
30693W        W44107  12.648   8.998  11.249  0.1890  0.2554 -0.0546
30694W        W44108  11.468   7.250  12.477 -0.0008 -0.3327 -0.1558
30695W        W44109  11.753  10.381  14.209  0.1026  0.2333  0.1976
30696W        W44110   0.222   2.448   4.778 -0.0613  0.0286  0.0941
30697W        W44111   0.002  15.317   1.784 -0.3297 -0.3095  0.5091
30698W        W44112   1.152   6.344  12.312  0.3352 -0.2831  0.0460
30699W        W44113  10.315   1.790  13.067 -0.1835  0.0046  0.1962
30700W        W44114   1.264   3.481   2.320  0.1491 -0.2765  0.0758
30701W        W44115   6.820  13.317   0.397  0.1974  0.0090 -0.6365
30702W        W44116   5.401   9.645  14.107  0.1396 -0.1891 -0.0428
30703W        W44117  14.235  15.446   4.356 -0.0641  0.0348  0.0475
30704W        W44118   3.059   5.837   3.692  0.0100 -0.0407  0.0703
30705W        W44119   5.224  17.425   2.703 -0.1119  0.2001 -0.2840
30706W        W44120  13.405   8.442  11.792 -0.0374  0.1074 -0.0345
30707W        W44121   4.267   3.494   0.111 -0.0920 -0.2009 -0.3147
30708W        W44122   2.898   9.710   5.008 -0.1191 -0.4418  0.0456
30709W        W44123  13.986  10.780  12.785 -0.0449 -0.0393 -0.2318
30710W        W44124   1.060   5.378   3.876 -0.3040 -0.0102 -0.2733
30711W        W44125   2.544   8.248   2.646 -0.0582  0.0643 -0.0021
30712W        W44126  14.828  13.119   3.030  0.0638 -0.1613  0.0730
30713W        W44127  10.512   9.912  14.524 -0.0891  0.0819 -0.1271
30714W        W44128   0.976  13.922  13.355 -0.1345  0.0518  0.1628
30715W        W44129   5.319   5.951  10.564  0.2215 -0.1432  0.1090
30716W        W44130  12.381   4.638  12.154 -0.0058  0.2420 -0.1238
30717W        W44131   0.002   9.001   0.137  0.0713  0.1221  0.0430
30718W        W44132   7.045   7.865  11.322  0.1664  0.1395 -0.3729
30719W        W44133   2.820  16.886   2.129  0.1492  0.0440 -0.0455
30720W        W44134  14.224   2.296  15.473  0.0595  0.0701  0.0484
30721W        W44135   5.290  16.971  16.110 -0.3093  0.2655  0.0189
30722W        W44136  14.418  16.419   0.379 -0.1644 -0.1421  0.2262
30723W        W44137   2.848   5.350  13.391  0.2171 -0.2696 -0.0591
30724W        W44138  14.172  16.695  15.638 -0.3633  0.3173 -0.2540
30725W        W44139   6.476  14.751  16.112 -0.1894 -0.3572  0.0905
30726W        W44140  10.218   1.995  10.377  0.0787 -0.0188  0.0626
30727W        W44141  13.138  10.583   4.466  0.2553 -0.3461 -0.2137
30728W        W44142  16.603  17.039  11.768  0.1956  0.0321 -0.1379
30729W        W44143   0.295   0.733  13.665 -0.0895 -0.1639  0.3786
30730W        W44144  18.423   6.267   5.108 -0.0693  0.0489  0.0217
30731W        W44145   7.425   1.643  12.327 -0.1388  0.1895  0.2785
30732W        W44146  10.171  10.859   5.785 -0.1928  0.2015 -0.4194
30733W        W44147   9.382  14.235  12.172  0.0548 -0.2230 -0.0100
30734W        W44148  11.145  15.718   0.850 -0.1764  0.0950  0.1334
30735W        W44149   4.696   3.291  13.179 -0.0401 -0.1699  0.0011
30736W        W44150  13.895   7.509   7.094  0.0270 -0.1450 -0.0424
30737W        W44151   9.815   5.964   0.220  0.0194 -0.1661  0.0229
30738W        W44152  13.752   2.540  11.144 -0.3757  0.2134  0.3577
30739W        W44153  14.334  13.822   4.210  0.0482 -0.1679 -0.0160
30740W        W44154   3.967   9.750   4.753 -0.1853  0.0170  0.2135
30741W        W44155   8.158   2.818  11.716  0.2449  0.0468  0.1090
30742W        W44156   1.470   6.403   5.978 -0.1611  0.0793 -0.2547
30743W        W44157  14.098   1.110   0.489 -0.1638  0.1010 -0.0220
30744W        W44158  10.670  17.037   2.456 -0.1673  0.1203 -0.0551
30745W        W44159   0.609   1.944   3.065  0.0934  0.3786  0.1996
30746W        W44160  14.515   3.761  15.738 -0.3530  0.1602 -0.2323
30747W        W44161  18.407  12.592  12.172  0.1380 -0.1575  0.1603
30748W        W44162  10.898  13.507   4.455  0.0348  0.0056 -0.2381
30749W        W44163  10.682  13.990   0.355  0.2882  0.1140 -0.2098
30750W        W44164  11.946  17.561  15.645 -0.0250  0.2555  0.0013
30751W        W44165   7.641   8.771  12.900  0.2335  0.0200  0.1243
30752W        W44166   0.027   2.297  12.864 -0.2151  0.0586 -0.0454
30753W        W44167   6.085   1.069  11.972 -0.0061  0.2306  0.1159
30754W        W44168   8.065  11.166   0.046  0.1491 -0.2361 -0.0088
30755W        W44169  17.965  11.869   5.743  0.0375  0.1153 -0.2336
30756W        W44170   1.748   9.437   6.090  0.0196  0.1342  0.0634
30757W        W44171   4.855  16.424  16.089 -0.0952 -0.0840 -0.1144
30758W        W44172  13.302  16.326   0.177  0.1848 -0.2330 -0.1762
30759W        W44173   8.344  13.554   2.794 -0.1414 -0.1579 -0.1650
30760W        W44174   1.879   4.800  11.067  0.0228  0.1239 -0.0329
30761W        W44175   0.399  17.918   0.723 -0.2997  0.1305 -0.0153
30762W        W44176  16.003   1.621   1.273 -0.0876  0.2105  0.0668
30763W        W44177  15.782   4.149  14.553  0.0115  0.1575 -0.2066
30764W        W44178  17.318  18.264   0.196 -0.1150  0.1101  0.2999
30765W        W44179  17.078   9.147   0.733 -0.2996  0.0315  0.2737
30766W        W44180   5.130   2.625  16.010 -0.0936  0.3991  0.2903
30767W        W44181   6.334  18.347   3.415  0.1153 -0.2245  0.0535
30768W        W44182  11.096  12.661   4.856  0.0083  0.2919  0.1090
30769W        W44183   8.861  11.718   0.479  0.4713  0.0737 -0.1593
30770W        W44184  18.114  11.540   1.074 -0.3062  0.0022  0.1746
30771W        W44185   7.909   4.838   5.687  0.2799  0.0308  0.2553
30772W        W44186  11.701   7.649   1.344  0.4812  0.1143 -0.1984
30773W        W44187   5.075  17.555  12.978 -0.1594 -0.0283  0.1126
30774W        W44188  12.430   6.469  14.959  0.3808  0.2030 -0.1002
30775W        W44189   2.299  11.974   6.288  0.1661  0.0192  0.4128
30776W        W44190   1.964   4.954  12.532  0.0681  0.1560  0.0487
30777W        W44191   8.166  10.439   4.854 -0.1881  0.1997  0.0085
30778W        W44192   3.214   9.579   1.138 -0.0482  0.2031  0.0534
30779W        W44193   6.166   1.329  13.920 -0.2109  0.0368  0.2329
30780W        W44194  13.697  14.245   5.231 -0.1594  0.2369 -0.0121
30781W        W44195   2.889  14.389   4.140  0.3580  0.1050 -0.0696
30782W        W44196   3.352  18.063   2.542  0.2222  0.0666 -0.0886
30783W        W44197  13.370   8.999   0.267 -0.1354  0.0325 -0.3026
30784W        W44198   2.894  10.615  10.932 -0.1714 -0.2764  0.2756
30785W        W44199  16.517   0.415   0.412  0.1331  0.2648  0.2323
30786W        W44200   5.341  10.233   4.438 -0.0915 -0.2116 -0.0647
30787W        W44201   6.241  17.884   0.626  0.0184 -0.0094  0.0652
30788W        W44202   2.436  14.005   4.330 -0.1678  0.4330  0.0787
30789W        W44203   0.058   6.852  15.081 -0.0408 -0.2218  0.0570
30790W        W44204   2.438   3.144  12.107 -0.1882  0.0632 -0.1432
30791W        W44205   2.686  10.164  12.794  0.2686  0.2702 -0.1613
30792W        W44206  18.064   2.744  14.495 -0.1249 -0.1498  0.0338
30793W        W44207   1.098  14.284  11.855 -0.0625  0.1290  0.0853
30794W        W44208   8.205   5.096   4.288  0.3849  0.0491  0.0589
30795W        W44209   5.815  15.448   3.786  0.0911  0.0665  0.3318
30796W        W44210  13.359  14.445   3.024 -0.2262  0.0838  0.0236
30797W        W44211   7.512  11.294   3.409  0.0042 -0.0779  0.3591
30798W        W44212  17.849   8.724   2.281 -0.2727  0.0446 -0.1891
30799W        W44213   2.446  11.293   0.113  0.0477 -0.3042 -0.1846
30800W        W44214   8.548  16.319   0.182  0.2593  0.1389 -0.0615
30801W        W44215  17.076   6.711  15.016 -0.2891 -0.1967  0.1310
30802W        W44216   8.494   0.554   0.953 -0.5137  0.0099 -0.0519
30803W        W44217  15.445   2.352   1.717 -0.2052 -0.3631 -0.0289
30804W        W44218  15.728  17.639   1.243  0.0428 -0.4779 -0.0733
30805W        W44219  12.051  15.514   4.757  0.1488  0.0612 -0.0525
30806W        W44220  12.989   3.927   4.870  0.2820 -0.1468 -0.0866
30807W        W44221  12.784   1.062   1.325  0.1611  0.3236  0.0462
30808W        W44222  10.963  12.748  13.090  0.4422 -0.1437  0.0154
30809W        W44223  11.093   4.671   2.376  0.0072  0.0527  0.1008
30810W        W44224   8.955   4.846  10.890  0.0328  0.0183 -0.0736
30811W        W44225  13.579  14.180  10.828  0.0504 -0.1256 -0.0244
30812W        W44226  10.864  13.624  12.655 -0.1653 -0.1892 -0.1143
30813W        W44227   2.469   9.780  13.175  0.1074 -0.0122  0.4433
30814W        W44228  13.696   2.769  15.161 -0.0353  0.1198 -0.0223
30815W        W44229  12.905   0.171   4.183  0.3701  0.2440  0.2537
30816W        W44230   2.249  14.552   0.820 -0.1352 -0.1357  0.2665
30817W        W44231   2.734   5.475   5.379 -0.1164 -0.1031 -0.1067
30818W        W44232  11.533   4.947  15.790  0.0479  0.0336 -0.0867
30819W        W44233   3.400   4.793  14.988  0.0517 -0.0555  0.2736
30820W        W44234  15.970   3.197  15.540  0.2226  0.0550  0.1447
30821W        W44235  18.105   1.960  11.772 -0.0411 -0.0242 -0.1550
30822W        W44236   2.472  15.041   0.925 -0.0629  0.2423  0.0002
30823W        W44237   5.722   7.140   1.440 -0.1730 -0.3087  0.1934
30824W        W44238  11.872  18.249   4.051 -0.0369  0.4185  0.0596
30825W        W44239   7.843   2.061   0.537 -0.1647 -0.0921 -0.0967
30826W        W44240   0.552  14.742  11.498  0.1063 -0.0014 -0.2321
30827W        W44241   1.997  15.520   1.840  0.0358  0.4718  0.1950
30828W        W44242  10.668  12.542  12.219 -0.4234 -0.1287  0.2331
30829W        W44243   5.280   7.801  11.022  0.0982 -0.0363 -0.3431
30830W        W44244   0.495   4.491   4.522  0.4912  0.1830 -0.1322
30831W        W44245   4.557  13.583   9.541  0.0561 -0.1537 -0.2738
30832W        W44246   2.512  17.800   0.425  0.4537  0.2924  0.3287
30833W        W44247  17.231  14.455   5.276  0.1883 -0.2654  0.1793
30834W        W44248   6.171  17.526  15.106 -0.1328 -0.0326  0.0784
30835W        W44249   2.127   6.099  12.328  0.1144 -0.0151  0.0509
30836W        W44250   9.744   7.877   1.603 -0.1901 -0.0345 -0.1221
30837W        W44251   6.972   0.181  13.955 -0.0783  0.1078 -0.0880
30838W        W44252   7.027   8.729   0.368 -0.2652 -0.1372  0.1332
30839W        W44253   8.734  18.072  15.094  0.0975  0.0486 -0.0391
30840W        W44254   4.424   7.438  12.772 -0.0836  0.1468  0.0928
30841W        W44255   4.120   2.814   0.681  0.0415 -0.0814  0.0539
30842W        W44256   4.978   5.249  10.566  0.0757 -0.0331  0.0346
30843W        W44257   6.734   9.291   3.440  0.0450  0.0511  0.0014
30844W        W44258  16.008  12.498   3.128 -0.2296  0.4208 -0.0633
30845W        W44259   2.869  10.700  15.479 -0.1801  0.1270 -0.2452
30846W        W44260   1.652  17.487   5.615  0.1548  0.0213  0.0048
30847W        W44261  15.021   1.216   0.634  0.2704 -0.1405  0.0431
30848W        W44262  15.126   1.424   2.764  0.1424  0.1640 -0.0165
30849W        W44263   1.444  13.953  15.157 -0.0027  0.1000  0.1647
30850W        W44264  12.847  14.616  11.199  0.0754  0.2315  0.0473
30851W        W44265  10.396  10.774  13.411 -0.1757 -0.0955 -0.0808
30852W        W44266   2.267  14.137   2.688  0.0221  0.2776 -0.0749
30853W        W44267  12.920   1.868   2.753  0.0620 -0.0352 -0.0754
30854W        W44268   4.624   5.259   3.320 -0.3257 -0.0517  0.0724
30855W        W44269  11.969   2.060   5.653  0.2769 -0.2012 -0.0827
30856W        W44270   9.264  13.859  14.808 -0.0737  0.0092  0.0935
30857W        W44271  15.001  10.770  10.566 -0.0637  0.2519  0.0467
30858W        W44272   0.556  15.100  14.895  0.0662 -0.2115 -0.0110
30859W        W44273  10.393  12.266   1.364  0.0259 -0.1200 -0.2081
30860W        W44274   0.934   3.421   1.830 -0.0937  0.0820  0.3725
30861W        W44275   9.331  10.676  12.491  0.3824 -0.4964 -0.0780
30862W        W44276  10.838   1.479   4.973 -0.2180  0.0974  0.0339
30863W        W44277   6.336   8.343   4.421  0.0941 -0.1019 -0.0956
30864W        W44278   3.386   6.654   0.139  0.0228 -0.0901  0.4512
30865W        W44279   7.030  16.913   2.156 -0.1718 -0.2735  0.0634
30866W        W44280   5.197   4.881   4.254  0.2601  0.1138  0.0911
30867W        W44281  15.757   8.707  15.074 -0.0558 -0.1755 -0.2072
30868W        W44282   4.083  15.208  10.751 -0.1385 -0.0644 -0.3362
30869W        W44283  16.987   7.268  16.006  0.0292  0.2293  0.1852
30870W        W44284  17.934  16.401   1.313  0.1719 -0.0024  0.1051
30871W        W44285  13.439   1.313   3.830  0.1944 -0.1164  0.1154
30872W        W44286  18.398   0.042   2.165 -0.2041 -0.0045 -0.1164
30873W        W44287   7.685  16.152  10.918  0.1144  0.0352  0.2672
30874W        W44288   4.261  13.438  15.029  0.0572 -0.3164  0.1394
30875W        W44289  18.432  10.113  12.727 -0.0069  0.4632 -0.0065
30876W        W44290   5.736  10.064   0.548  0.3073 -0.0566  0.0429
30877W        W44291  10.114   7.138   1.910 -0.1107 -0.3040  0.0271
30878W        W44292   4.012  11.900   1.788 -0.0072  0.4282  0.0858
30879W        W44293  18.393  10.567   5.036 -0.0502 -0.1244 -0.0075
30880W        W44294  11.786  13.735  10.232 -0.2008 -0.1452 -0.0241
30881W        W44295   9.893   2.758   2.202 -0.1426  0.1326  0.0372
30882W        W44296   7.067   6.070  14.791 -0.0503 -0.1954 -0.1372
30883W        W44297  17.899  15.694   6.203 -0.4834 -0.0070  0.0555
30884W        W44298  14.330  10.300  16.232 -0.2109  0.1088 -0.0651
30885W        W44299   8.182  17.186   0.985 -0.1952  0.2659  0.0518
30886W        W44300  17.961   4.847  12.639  0.1963  0.0060 -0.0043
30887W        W44301   5.699   6.007  16.247 -0.2022  0.0511  0.0736
30888W        W44302  15.578  17.283  15.629 -0.0672  0.0123  0.2006
30889W        W44303  11.310  13.502   0.653 -0.0524 -0.2072 -0.1342
30890W        W44304   2.686  10.554   2.277  0.2864 -0.1987  0.2323
30891W        W44305   6.264   7.454  12.516  0.1085  0.0516  0.2842
30892W        W44306  17.271  11.466  15.421  0.1870  0.0530  0.0632
30893W        W44307  14.825  16.390  15.026  0.1095 -0.1630 -0.1684
30894W        W44308  11.056   3.818   0.420 -0.1413  0.1097  0.0002
30895W        W44309  14.146  15.525  14.443 -0.2003 -0.3738 -0.1744
30896W        W44310  16.841   6.172  11.539  0.1007  0.1056  0.2834
30897W        W44311  17.478   4.168  15.422 -0.1017  0.0492  0.0137
30898W        W44312   5.820   2.427  11.854 -0.0462 -0.0136  0.2314
30899W        W44313  15.168  14.539  10.678  0.1538 -0.0000 -0.0378
30900W        W44314   0.821   7.520   1.607  0.0888  0.1131 -0.0613
30901W        W44315   2.762  16.289   0.858 -0.0273  0.0509  0.0706
30902W        W44316  15.605  12.096  14.856  0.2252  0.1191  0.0231
30903W        W44317   7.483  17.850  14.274 -0.1263  0.1244  0.1580
30904W        W44318   8.966   6.319   2.081  0.0354  0.2467 -0.0415
30905W        W44319   9.865  12.371  16.056  0.3203 -0.2421  0.0891
30906W        W44320  14.545   2.383   1.977 -0.0399 -0.0122  0.1414
30907W        W44321   0.602   5.458   6.090 -0.0376 -0.1008  0.0124
30908W        W44322  15.577  17.812   4.988  0.0658 -0.0189 -0.3345
30909W        W44323   7.285   7.052   0.145 -0.1670 -0.1861 -0.0120
30910W        W44324  12.733   0.585   5.434 -0.0847  0.0324  0.1129
30911W        W44325  10.701   6.917   5.829 -0.0263 -0.2404 -0.2756
30912W        W44326   5.883   3.022   3.301 -0.0956 -0.0866 -0.2120
30913W        W44327   8.346  15.456  12.262 -0.0234  0.1805  0.0047
30914W        W44328   1.261   4.172   5.861 -0.0116 -0.1819  0.0740
30915W        W44329  14.395   8.747   3.457 -0.2057  0.0530 -0.2447
30916W        W44330  13.697   3.497   1.443  0.0414  0.4106 -0.0454
30917W        W44331  13.505  17.200   2.014  0.0810 -0.0782  0.0973
30918W        W44332   0.816  16.881  12.285  0.1534 -0.4510 -0.2477
30919W        W44333  10.459  10.693   6.147  0.0514  0.3747 -0.4765
30920W        W44334  10.173   2.800  15.891 -0.1496  0.0043  0.0456
30921W        W44335   1.373  18.214  14.759  0.0859  0.2927  0.1730
30922W        W44336   9.228   0.924  10.229 -0.0075  0.3356  0.2154
30923W        W44337  18.011  10.496   4.299 -0.0977 -0.3518  0.1304
30924W        W44338   5.111   2.243   4.868 -0.3308  0.1271  0.2086
30925W        W44339  13.864  10.616   2.135  0.0756 -0.0525 -0.0677
30926W        W44340   1.583   3.406   4.955 -0.0823 -0.0580 -0.1353
30927W        W44341   7.573  15.433  13.375 -0.2097 -0.1753  0.0356
30928W        W44342   6.494   5.905   1.749  0.0127  0.0734 -0.1307
30929W        W44343  12.520  10.867  15.494 -0.2097 -0.1009 -0.1582
30930W        W44344   8.244   2.044  12.017 -0.1487 -0.0782 -0.0861
30931W        W44345   0.308  18.236  12.331 -0.2275  0.2503 -0.2388
30932W        W44346   7.846   7.247  15.811  0.2995 -0.0857  0.0589
30933W        W44347   0.871   4.977  15.162  0.2103  0.0142  0.2200
30934W        W44348   6.932   7.492   4.627  0.2877  0.3739  0.2624
30935W        W44349  16.113   2.893  14.298  0.0608  0.0477  0.4447
30936W        W44350  10.095   7.073   4.367 -0.0387 -0.0682 -0.3660
30937W        W44351   0.845   0.411   3.332  0.0593  0.0472 -0.1899
30938W        W44352  15.251  13.263   1.848  0.1960 -0.0432 -0.0966
30939W        W44353   1.146   3.103   4.933  0.2016 -0.0072  0.0688
30940W        W44354  13.503  10.290   0.570  0.0603 -0.0803 -0.0919
30941W        W44355  12.381   6.942  12.696 -0.0056 -0.1437  0.0002
30942W        W44356  13.351   5.459   0.563 -0.1476 -0.0712 -0.3649
30943W        W44357   5.458   0.832  13.121  0.1405 -0.0706  0.0370
30944W        W44358   1.063   1.034   2.812  0.0468  0.1281  0.1551
30945W        W44359  13.803   5.842  16.140  0.4667 -0.3778 -0.4088
30946W        W44360   9.612  14.090   4.968 -0.1059 -0.0266  0.2344
30947W        W44361  11.780  12.215  13.002  0.1363 -0.0853 -0.3039
30948W        W44362  17.542  17.661   5.563  0.0974 -0.0721  0.1220
30949W        W44363   0.122   3.537   2.261 -0.0321 -0.0499  0.0060
30950W        W44364   4.443   5.663  12.962  0.2002 -0.1786 -0.1803
30951W        W44365   8.450   2.288  11.003 -0.1145 -0.1835 -0.0626
30952W        W44366  13.756   4.643  16.165  0.1098 -0.1828  0.0497
30953W        W44367   5.197  17.911   2.579 -0.1101  0.1228 -0.0700
30954W        W44368  12.993   5.059   1.519 -0.1778  0.1646  0.2423
30955W        W44369  11.075  15.435   2.447  0.0863  0.2125  0.1225
30956W        W44370   0.280  13.014  12.430  0.3709  0.0591 -0.2174
30957W        W44371   2.587   2.331  12.423  0.0533  0.1734 -0.0587
30958W        W44372  12.469  18.374   3.834  0.1404 -0.1798 -0.3444
30959W        W44373   0.612   3.815  11.436  0.0786 -0.0325 -0.3404
30960W        W44374   2.348  14.683  13.157 -0.0152 -0.1942  0.0647
30961W        W44375   8.624  15.629  13.082  0.0084 -0.2157  0.4411
30962W        W44376   4.064   0.961  16.145 -0.1593  0.0643  0.1026
30963W        W44377   4.162   8.797   4.182  0.1047 -0.5367  0.0084
30964W        W44378   7.692  17.739  13.823  0.0398 -0.0464 -0.0675
30965W        W44379  11.704   7.656   5.984 -0.0108 -0.2103 -0.1206
30966W        W44380  15.627  16.339  14.761  0.2045  0.0057  0.0819
30967W        W44381   5.585  17.342   1.880 -0.0939  0.0118  0.1180
30968W        W44382  13.498   7.459  11.993 -0.0746 -0.0704 -0.1223
30969W        W44383   4.909   5.640   2.578 -0.0356  0.1656 -0.0446
30970W        W44384   0.257  13.616   1.450 -0.0430 -0.5254 -0.0756
30971W        W44385   0.863  16.804  11.751  0.2572 -0.0178  0.0484
30972W        W44386   6.455  13.848   5.400 -0.0321 -0.0920 -0.3347
30973W        W44387   0.765   2.694  14.234 -0.1701 -0.0047  0.0280
30974W        W44388   3.039   8.726   0.669  0.0594 -0.1461 -0.4739
30975W        W44389   8.207  13.593   5.200  0.1564 -0.2474 -0.1614
30976W        W44390  13.552   3.233  12.990  0.2631 -0.1227 -0.0820
30977W        W44391  17.416   7.826  14.835 -0.1454  0.2444 -0.0445
30978W        W44392  12.355  11.224   0.907 -0.1175 -0.4789 -0.0497
30979W        W44393  14.261  10.975  14.854 -0.0981 -0.0381  0.1426
30980W        W44394   7.660  10.528  15.284  0.6875 -0.3064  0.0059
30981W        W44395   4.444  15.859  12.641 -0.0861 -0.1967  0.3289
30982W        W44396   9.790   6.014  11.526  0.2297  0.0834 -0.0878
30983W        W44397   0.582   7.467   2.935  0.1401  0.2342  0.0323
30984W        W44398  14.258   1.939   3.077 -0.0621  0.2020  0.2425
30985W        W44399   0.130   5.450   1.715  0.1822 -0.0332  0.2108
30986W        W44400   4.018   4.032   4.958  0.1630  0.1358  0.2662
30987W        W44401  10.171   1.853  11.302  0.1477 -0.2003  0.2574
30988W        W44402   6.227  12.118  15.180  0.0415 -0.1590 -0.1041
30989W        W44403   5.028   1.254  11.343  0.5254  0.0990 -0.3584
30990W        W44404  16.735   9.871   1.493  0.1217 -0.1617  0.1593
30991W        W44405   2.488  11.710  14.881  0.0361  0.2840 -0.1770
30992W        W44406   6.789   5.546  12.918 -0.0013 -0.2572  0.0537
30993W        W44407   2.835  15.559  10.220 -0.0165  0.0272  0.0244
30994W        W44408  17.581  13.539   1.575  0.0742  0.2047 -0.0463
30995W        W44409  17.288  13.764  14.959  0.2881  0.0404  0.1638
30996W        W44410   8.978   2.462   3.295 -0.3071  0.1736  0.0058
30997W        W44411   3.302   4.292   3.529 -0.1101 -0.0009  0.4436
30998W        W44412   1.456   7.438   3.855  0.1151 -0.0014 -0.2874
30999W        W44413   9.051   7.518   3.834  0.0558 -0.1086  0.2964
31000W        W44414  10.975  13.192   0.280 -0.1672  0.1413 -0.0083
31001W        W44415  10.144  10.379  12.655  0.1182  0.1597  0.1045
31002W        W44416   8.791   8.568   3.092 -0.2495  0.0328 -0.0299
31003W        W44417  18.274   8.023   0.739  0.1103 -0.2940  0.0730
31004W        W44418   3.530   6.019   1.507 -0.0113  0.1940 -0.1511
31005W        W44419  17.881  13.446  13.340  0.1548 -0.0909  0.1777
31006W        W44420  16.648   2.014   3.300 -0.0250 -0.0674  0.2087
31007W        W44421  15.235  10.789   1.448  0.0120  0.1294  0.0501
31008W        W44422  11.226   1.481   1.959 -0.5876  0.1709  0.1829
31009W        W44423  10.912  17.030  13.891 -0.3470 -0.0624  0.0048
31010W        W44424   6.630   5.365   1.672  0.2112  0.0074  0.3565
31011W        W44425   1.681   9.083  14.341 -0.1866 -0.0878 -0.0826
31012W        W44426   4.081   8.424  14.007  0.0236 -0.3031  0.0520
31013W        W44427   8.722  11.502  12.986 -0.1269  0.1771  0.2406
31014W        W44428  13.524  17.140  10.696  0.1568  0.0126  0.2234
31015W        W44429  17.180  16.772   5.017 -0.0391 -0.0963 -0.1561
31016W        W44430   7.401   7.751  13.675  0.2173  0.1458  0.0160
31017W        W44431  10.916  15.058   4.070 -0.0106  0.0149  0.0784
31018W        W44432  15.128   6.876  15.756 -0.0221  0.2962 -0.1276
31019W        W44433  10.133  11.923   4.462  0.0006 -0.0825 -0.1850
31020W        W44434  12.397  11.848  12.604  0.1303  0.1498  0.1856
31021W        W44435  17.312   4.992   1.653  0.0444  0.1246 -0.1234
31022W        W44436   0.940  13.513  13.064 -0.1663 -0.1733  0.1395
31023W        W44437   3.212   8.123  13.913 -0.0559  0.2448 -0.1919
31024W        W44438  14.673   9.179   1.746  0.1116  0.3456 -0.0033
31025W        W44439  12.011  18.141   2.841 -0.1646 -0.0079  0.2552
31026W        W44440  15.749   5.766   2.422 -0.3678 -0.3101 -0.1015
31027W        W44441   1.014   6.796   9.917  0.1642 -0.0258  0.1559
31028W        W44442   8.450  15.207  15.133 -0.2482  0.0835 -0.0215
31029W        W44443  12.806  15.576  12.373 -0.1242  0.0943 -0.2803
31030W        W44444   5.889  10.988   4.410  0.0748  0.3442  0.2063
31031W        W44445  15.683   9.622  10.968  0.3239 -0.1286  0.0464
31032W        W44446   8.609   0.435   2.664 -0.1939 -0.0673 -0.1474
31033W        W44447   4.378  15.000   3.578 -0.1733  0.1013 -0.1438
31034W        W44448   7.556  15.301   5.056  0.1513  0.1044 -0.3684
31035W        W44449   9.187   3.809   4.987  0.0541  0.1009 -0.0597
31036W        W44450   6.014   4.090  11.991 -0.1506 -0.3800  0.0946
31037W        W44451  14.295   1.432  14.704 -0.0603  0.1681  0.0298
31038W        W44452   7.317   6.216  11.537 -0.1476 -0.0279 -0.0903
31039W        W44453   6.748   5.839  15.201 -0.1335 -0.3346  0.1806
31040W        W44454  17.498  14.032  10.780 -0.2135 -0.0242  0.0463
31041W        W44455   1.349   6.185  15.975  0.1416  0.0403 -0.1318
31042W        W44456   4.814  11.995  15.604  0.1807 -0.3909 -0.0690
31043W        W44457   1.653   5.780   5.556 -0.0166  0.0494  0.0430
31044W        W44458  17.272  17.318   4.447 -0.1969  0.2653  0.1949
31045W        W44459  10.270   2.824  15.350 -0.0154  0.1987 -0.1104
31046W        W44460   7.554   4.394  13.636  0.0814 -0.0728  0.0214
31047W        W44461   6.913   9.340  12.986  0.0131  0.2146 -0.1678
31048W        W44462   4.846  12.925   1.384 -0.0717 -0.0444  0.2190
31049W        W44463   0.349  15.394  13.198  0.2067 -0.0939  0.0182
31050W        W44464   1.551   4.214  14.990  0.2541 -0.1291 -0.0314
31051W        W44465  11.189   1.823   4.534  0.0629 -0.0622 -0.3288
31052W        W44466   9.176   3.617  14.025  0.2797 -0.3540  0.1873
31053W        W44467   7.102   0.692   3.167 -0.3432  0.1233  0.1644
31054W        W44468   4.568  17.303  13.927  0.0420  0.0979 -0.4297
31055W        W44469   9.563  14.844   4.120 -0.3639 -0.0741  0.1746
31056W        W44470   2.379  17.057   1.109 -0.0689  0.2026  0.2621
31057W        W44471  13.365  13.595  12.674 -0.1785 -0.2389 -0.1720
31058W        W44472   9.491  17.370  11.209 -0.1238  0.3144 -0.0773
31059W        W44473   6.799  15.488   1.668 -0.0575 -0.1683  0.0463
31060W        W44474  17.577  15.982   0.575  0.2724 -0.1991 -0.1743
31061W        W44475  12.578   4.426   0.925  0.0046  0.4042  0.0301
31062W        W44476  16.457   8.573  11.135  0.0204 -0.1797  0.0451
31063W        W44477   3.079   9.838   2.268 -0.0733 -0.0337 -0.0844
31064W        W44478   8.218  15.613  10.582  0.1705  0.0373 -0.0365
31065W        W44479  13.344  15.291  10.397  0.1259 -0.0625 -0.1207
31066W        W44480  17.038  14.262  14.944  0.0297 -0.0448 -0.1788
31067W        W44481  13.816  14.416   2.543  0.0133 -0.1731  0.1123
31068W        W44482   4.294   8.815   3.545  0.1427  0.0646  0.0689
31069W        W44483  17.361   0.568  13.058  0.2276  0.1271  0.0522
31070W        W44484  15.143  17.208  14.224  0.1456  0.3024 -0.2141
31071W        W44485   9.345  12.251  14.802  0.1738 -0.0691 -0.1094
31072W        W44486  10.376   4.075   1.341 -0.2360  0.2113  0.1957
31073W        W44487   0.309   6.635   5.895  0.2405  0.0418  0.2133
31074W        W44488   3.542   5.968   1.042  0.0384 -0.0789  0.2954
31075W        W44489   5.772   0.918   1.792 -0.0266  0.1436 -0.2276
31076W        W44490   2.283  16.475  15.117  0.0243  0.1395  0.2103
31077W        W44491  16.706  13.935  15.591 -0.1818  0.1481  0.1004
31078W        W44492  13.931  14.595   0.197  0.0499 -0.1383  0.2321
31079W        W44493   2.439  13.049  15.992  0.0223 -0.2413 -0.1944
31080W        W44494   5.197   1.802  14.124 -0.1819 -0.1791 -0.2932
31081W        W44495   1.847  16.310   4.491  0.1986  0.3167 -0.2244
31082W        W44496  13.639   0.534  13.684  0.3513 -0.0282 -0.0210
31083W        W44497   8.000  17.036   2.198  0.2810 -0.1735  0.1011
31084W        W44498  13.096  11.595  14.776  0.1691 -0.2242  0.1869
31085W        W44499  15.814   5.686   4.786 -0.0197  0.1667 -0.5139
31086W        W44500   3.221  15.096  13.804  0.3068  0.0411 -0.0556
31087W        W44501   7.403   5.007  13.791 -0.0896 -0.0468  0.1669
31088W        W44502  14.055  18.255   2.437 -0.1698  0.1230 -0.1073
31089W        W44503  17.211   3.213   4.353 -0.0177 -0.2691 -0.0811
31090W        W44504  10.380  16.013   6.243 -0.2321  0.0225 -0.2612
31091W        W44505  13.862   4.233   0.802 -0.1927 -0.0601  0.3219
31092W        W44506   5.115  16.738   2.176  0.1032 -0.2412  0.0862
31093W        W44507   8.673   6.676   1.792  0.0195 -0.0009  0.2192
31094W        W44508   3.140   4.331  11.731  0.0359  0.1936  0.0392
31095W        W44509   9.728  13.184  11.547  0.0162 -0.1144 -0.0603
31096W        W44510   1.578  13.152   0.707  0.2872 -0.1470 -0.0567
31097W        W44511   0.018  12.076  10.936  0.0623 -0.0540 -0.1287
31098W        W44512  14.109   2.744   0.656 -0.0414 -0.0324  0.2803
31099W        W44513  10.957   3.264   1.241 -0.0017  0.2688 -0.0469
31100W        W44514   7.657   4.477   3.903  0.0630  0.2868 -0.1241
31101W        W44515   1.968   4.435   2.051 -0.0932  0.0029  0.1137
31102W        W44516   4.649   8.709  13.257 -0.1984 -0.2785  0.2971
31103W        W44517   4.237  17.600   1.322  0.0176 -0.0551 -0.0162
31104W        W44518   1.587  11.708   0.780  0.1986  0.1410 -0.0905
31105W        W44519   9.005  17.978  12.938 -0.1049 -0.4669  0.2730
31106W        W44520   7.335  11.044   4.396 -0.0117  0.1197 -0.0067
31107W        W44521   3.156   9.805   2.955  0.0460  0.0151 -0.0665
31108W        W44522  10.816   8.848  15.371 -0.2576 -0.1326 -0.1303
31109W        W44523   1.050   0.545  15.471 -0.2090  0.1713 -0.0623
31110W        W44524   4.657   6.899  12.674 -0.1520 -0.1189  0.1794
31111W        W44525   2.238   3.202  14.273 -0.4435 -0.1415  0.0308
31112W        W44526   6.659  16.262   0.450 -0.0436  0.0020  0.0261
31113W        W44527  11.687  14.384  12.642 -0.3925  0.3230 -0.1905
31114W        W44528   9.595  11.554  10.623 -0.3273  0.0571 -0.1000
31115W        W44529  17.671   2.298   3.397  0.2630  0.4809 -0.3263
31116W        W44530  17.615  11.936   2.730 -0.0144 -0.0652  0.0758
31117W        W44531  13.284   4.065  11.365 -0.1037  0.0720 -0.0742
31118W        W44532  15.152  11.131  12.714 -0.1913 -0.0445 -0.0910
31119W        W44533  14.710  12.517   0.024 -0.0468 -0.1852 -0.0189
31120W        W44534  17.009  16.121   0.195 -0.4350  0.1773  0.3768
31121W        W44535  13.231   1.959   1.966 -0.1821  0.0592 -0.1065
31122W        W44536   4.817  15.348  11.665 -0.2519  0.1169  0.0935
31123W        W44537  13.911   1.064  10.881  0.2246  0.2376  0.1364
31124W        W44538   3.981   9.171   0.847  0.0893 -0.0668  0.0289
31125W        W44539  15.090   0.121  11.917 -0.1578  0.1001 -0.0815
31126W        W44540   1.994  17.728  12.818 -0.1298  0.1034  0.0873
31127W        W44541  13.555   4.908  11.246  0.1432  0.3286 -0.0696
31128W        W44542  16.658   1.629  14.677 -0.4378 -0.2324  0.2224
31129W        W44543   5.371  15.872   0.278  0.1043  0.0867 -0.0130
31130W        W44544   7.346   7.474  11.308 -0.0012  0.1871  0.4622
31131W        W44545   0.440   8.838  16.250  0.1375  0.1886 -0.0004
31132W        W44546   4.793   7.568   4.433  0.0818 -0.2800  0.0590
31133W        W44547   8.267  16.067   5.240 -0.0369  0.1535 -0.2508
31134W        W44548   8.908   4.572   1.072 -0.0982 -0.0002 -0.0773
31135W        W44549  17.218   2.509  13.264  0.1623 -0.3285 -0.2634
31136W        W44550   5.051  10.651   5.830  0.2002  0.0476 -0.0346
31137W        W44551   2.950  14.665  10.605 -0.2254  0.0159  0.2320
31138W        W44552   3.519  10.543  13.423  0.1039  0.0023 -0.1750
31139W        W44553   7.220   7.083  11.643  0.0307  0.2934 -0.0468
31140W        W44554  12.023   8.061   0.390 -0.0722  0.3557  0.2326
31141W        W44555   2.080   8.895   0.832  0.1189  0.1469  0.1704
31142W        W44556   9.888   3.915  11.432 -0.1525  0.3929  0.2720
31143W        W44557  11.591   4.606   4.818 -0.1045  0.0665 -0.1371
31144W        W44558   6.780  14.980   3.674  0.3540 -0.2961  0.1540
31145W        W44559   8.172   3.868  14.977 -0.0341 -0.1399  0.1585
31146W        W44560  12.147  10.538  16.155 -0.0339 -0.1197 -0.0029
31147W        W44561   6.789   7.585   9.839  0.0419 -0.1321  0.1400
31148W        W44562  17.669  11.801  10.964  0.2194 -0.3969  0.0431
31149W        W44563  12.316  18.270   1.308  0.3113  0.0485 -0.1787
31150W        W44564   7.150  12.955  14.480 -0.0630 -0.0268  0.0792
31151W        W44565   0.836   5.164   5.624  0.3847 -0.1459 -0.2042
31152W        W44566  16.531   5.574  11.019  0.1024 -0.0804  0.2216
31153W        W44567   8.170  17.571   5.409 -0.0005 -0.2676  0.1906
31154W        W44568   3.387   9.898  12.234 -0.0302  0.0865  0.0756
31155W        W44569  14.258   4.421   3.567  0.1743  0.0708 -0.1043
31156W        W44570   8.853  10.756   1.135  0.4165 -0.0095 -0.1216
31157W        W44571   4.730  16.670  11.854 -0.0815  0.2037  0.1017
31158W        W44572  18.421  12.188   3.155  0.2303 -0.1716 -0.2603
31159W        W44573  12.655   7.154  13.094 -0.1467 -0.1098 -0.2038
31160W        W44574  13.144   7.638   5.807  0.0885 -0.3134  0.0613
31161W        W44575  13.271  16.135  12.537  0.0047  0.0581 -0.1502
31162W        W44576  13.510   7.930  14.063 -0.1704  0.0419 -0.3245
31163W        W44577  10.421   5.209  15.940 -0.2789  0.1837 -0.0012
31164W        W44578   1.494  13.198   1.802 -0.0755 -0.0265 -0.4297
31165W        W44579  14.810   2.740  14.246 -0.0401 -0.0306  0.1720
31166W        W44580   5.905   7.483   0.048  0.1944  0.1143 -0.2955
31167W        W44581   5.859   8.254  14.285 -0.0264 -0.2117 -0.1967
31168W        W44582  10.248  12.385  10.297 -0.2806  0.2043  0.2646
31169W        W44583  11.485   1.923  14.623 -0.0963 -0.3148  0.0370
31170W        W44584  11.580   6.522  13.738 -0.2878 -0.1596  0.1326
31171W        W44585  13.765   0.786  10.326 -0.0757 -0.0267  0.1187
31172W        W44586  14.944  15.374  10.554  0.1441 -0.2247 -0.2621
31173W        W44587   4.482  17.960   3.254  0.0932  0.1844  0.1964
31174W        W44588  17.881  13.305  10.396 -0.1497 -0.0026 -0.0595
31175W        W44589  11.228  13.156  13.349  0.1008 -0.0761 -0.0388
31176W        W44590  14.926   3.203   1.170 -0.0989 -0.0926  0.1139
31177W        W44591   6.173  16.664   3.532  0.0928 -0.3770 -0.1503
31178W        W44592   4.393  17.129  14.402 -0.1744 -0.2041  0.2034
31179W        W44593   2.107  14.442   3.382  0.0179  0.0708 -0.0721
31180W        W44594   1.739   6.598  14.696  0.0574 -0.1539  0.3083
31181W        W44595  10.522   4.513  15.032  0.0787 -0.3118 -0.2049
31182W        W44596  12.700   1.159   3.703 -0.1209  0.1358 -0.1727
31183W        W44597  18.378  13.409  14.081 -0.0619  0.2291  0.0052
31184W        W44598   6.548  14.793  10.443  0.0665  0.0402  0.0395
31185W        W44599  12.851  14.419   0.063  0.0220 -0.2176 -0.1219
31186W        W44600   1.421   2.329  13.832 -0.1639  0.3186  0.2416
31187W        W44601  17.996  13.451   2.033 -0.0977 -0.0234 -0.2313
31188W        W44602   6.308   7.659  15.982  0.1346 -0.3160 -0.1344
31189W        W44603  11.419  15.892  15.539  0.0590  0.1260 -0.3488
31190W        W44604  17.402   8.729   0.681  0.4844  0.1024  0.2591
31191W        W44605   9.190  15.252  10.647  0.0722 -0.2314 -0.1836
31192W        W44606   4.079   7.857  13.216 -0.3687 -0.0551 -0.2049
31193W        W44607  14.210  13.726  12.173 -0.1418 -0.3117 -0.0721
31194W        W44608   7.760  16.211  15.973 -0.2306  0.2180  0.0274
31195W        W44609  10.234  11.666  15.652  0.0806  0.0232  0.1452
31196W        W44610  13.895  10.174  14.575 -0.0230  0.1430 -0.4477
31197W        W44611  18.134  17.898   2.193  0.1866  0.1946 -0.0333
31198W        W44612  14.230  17.894  10.443 -0.0121 -0.1459  0.2817
31199W        W44613  12.586   3.903   0.707  0.3152  0.3032  0.1472
31200W        W44614   6.266  11.394  11.500 -0.1704  0.3130  0.5527
31201W        W44615  14.916  16.563  13.483 -0.3029 -0.0159  0.2203
31202W        W44616  13.978  12.910   5.400  0.1516 -0.1118  0.1027
31203W        W44617  18.355   2.278   3.695  0.1658  0.0079 -0.1022
31204W        W44618  18.140   2.353  13.294 -0.1656  0.1416 -0.4450
31205W        W44619  11.319   9.732   1.749 -0.2125 -0.0088  0.1135
31206W        W44620  15.521   3.475  12.821  0.0668 -0.2666  0.1778
31207W        W44621  10.579   7.220  15.949 -0.1632  0.0447 -0.3723
31208W        W44622  13.988  17.227  13.618  0.1028  0.2532  0.0993
31209W        W44623   6.092   0.469  13.823 -0.0922  0.1689  0.0391
31210W        W44624   6.491   6.155   2.194 -0.1299 -0.1030 -0.1598
31211W        W44625  13.788  12.981   4.458  0.2302 -0.0429  0.0313
31212W        W44626   4.080   1.715  14.252  0.1506 -0.0217  0.3793
31213W        W44627   6.459   0.287  14.769  0.1440  0.0202 -0.2242
31214W        W44628   9.457  17.740   2.439 -0.0014  0.0165 -0.0434
31215W        W44629  12.174   1.649   5.458  0.5016 -0.0651  0.2505
31216W        W44630  14.832   5.802   5.508  0.1490  0.2124 -0.2076
31217W        W44631   1.515  17.554   1.950 -0.1245 -0.3175 -0.2316
31218W        W44632   2.459  12.164   3.252  0.1639 -0.0663 -0.2126
31219W        W44633   9.133   7.009   2.671 -0.3031 -0.1205  0.2856
31220W        W44634   5.066   1.179   0.429  0.1577 -0.1988  0.1462
31221W        W44635   8.623   4.569  10.324 -0.1383  0.2440 -0.0474
31222W        W44636  11.952  13.924   4.864 -0.2784 -0.2112  0.0436
31223W        W44637   9.919  15.078  12.379  0.0755  0.3538  0.0113
31224W        W44638  15.425   9.332   4.115  0.1235 -0.0145  0.0328
31225W        W44639   5.949  17.878   1.059 -0.2546 -0.3085 -0.1968
31226W        W44640  13.340   4.933   5.587 -0.2138 -0.1199 -0.0228
31227W        W44641   7.252   3.286  10.682 -0.1109  0.0617  0.2703
31228W        W44642  15.076   6.398  13.286  0.1343 -0.1108 -0.1212
31229W        W44643  14.093   8.505  11.271  0.4473 -0.0766  0.3228
31230W        W44644   1.192   3.392  11.324 -0.1928 -0.0977  0.1599
31231W        W44645  14.110   4.330  15.824  0.2317 -0.2117 -0.1303
31232W        W44646  10.745   6.280  15.863 -0.1009 -0.0706 -0.1435
31233W        W44647  17.564   4.862   3.756 -0.3716 -0.2091  0.0064
31234W        W44648  14.518   8.467   4.738 -0.0789 -0.0593  0.0591
31235W        W44649  11.385   6.011   1.902 -0.0722  0.0666  0.0442
31236W        W44650  10.316   7.986  13.684  0.1671  0.1661  0.1320
31237W        W44651   6.673   2.262  15.489  0.2170 -0.1553  0.0303
31238W        W44652   2.425   9.184  14.958 -0.2626 -0.0274  0.1029
31239W        W44653   7.534  16.266   3.364 -0.2173  0.0552 -0.0170
31240W        W44654  16.819  13.769   2.577 -0.2268  0.1250  0.0437
31241W        W44655  11.866  13.874   0.346 -0.2497 -0.2070 -0.5675
31242W        W44656  11.064   5.215  13.491 -0.0906 -0.1726  0.1188
31243W        W44657  11.683  11.978  10.968  0.1117 -0.1705  0.0473
31244W        W44658  10.231   7.325  11.444  0.0691 -0.1231 -0.0620
31245W        W44659   0.498  17.819  10.897  0.0772  0.0497 -0.3750
31246W        W44660  16.475   9.908  13.584 -0.3700  0.2521 -0.0763
31247W        W44661   8.552   3.888  16.197 -0.0499 -0.1240  0.1571
31248W        W44662  13.811   7.803  13.651  0.2439  0.0703  0.0294
31249W        W44663  13.767   1.967   1.832  0.2512  0.0048 -0.2443
31250W        W44664   9.436  15.020  12.262  0.1062 -0.0810  0.1690
31251W        W44665   7.740   9.403   5.037 -0.0194  0.0152  0.0967
31252W        W44666  17.645   1.910   5.530 -0.0977  0.2765 -0.3169
31253W        W44667  18.260  16.152   2.890  0.2223 -0.0237 -0.0507
31254W        W44668  14.318   5.098   0.886 -0.1338 -0.2121  0.1985
31255W        W44669   2.776   6.312  15.059 -0.0762  0.2891  0.4627
31256W        W44670   5.150  10.774   0.695 -0.1575 -0.1968 -0.0179
31257W        W44671   6.382   6.479   5.584  0.0752  0.0569  0.2772
31258W        W44672  18.289  17.148  15.055  0.3684 -0.3210 -0.0791
31259W        W44673   0.261  11.890   5.172 -0.0333 -0.1297  0.2631
31260W        W44674  14.879   3.482   4.176 -0.0022 -0.1246 -0.0143
31261W        W44675  14.552  17.621   0.943 -0.1779  0.1488 -0.1795
31262W        W44676   8.371  11.865   0.844  0.1069  0.0321  0.2923
31263W        W44677  17.803   7.149   5.801  0.3792 -0.3330 -0.2086
31264W        W44678   9.454   8.983   1.536  0.0720  0.2671 -0.0031
31265W        W44679   2.395  17.462  16.159  0.0907  0.1094  0.3120
31266W        W44680   9.135  15.224   3.703 -0.0672 -0.0472 -0.2111
31267W        W44681   8.904   6.033   2.487 -0.3146  0.1175 -0.2053
31268W        W44682   1.617   5.172  11.168  0.3421 -0.2486 -0.1447
31269W        W44683  14.068   8.317  12.901  0.1846 -0.2035 -0.0745
31270W        W44684   7.177   0.434   0.085  0.0457 -0.2539 -0.0408
31271W        W44685   0.928   3.726  13.379 -0.0431  0.2019  0.1038
31272W        W44686   2.571  17.862   1.309  0.1841 -0.0203  0.2697
31273W        W44687   7.860   6.965  14.656 -0.1612 -0.0752 -0.1226
31274W        W44688  13.544  13.712  14.066  0.0187  0.1860  0.0202
31275W        W44689   6.330   7.064  15.181  0.0398 -0.2961 -0.2002
31276W        W44690  13.269  14.334  12.969 -0.1303 -0.3066  0.1527
31277W        W44691  17.206   1.503  16.160  0.1333 -0.2622 -0.1812
31278W        W44692  14.823  11.091   1.466 -0.3261  0.0464  0.0111
31279W        W44693  12.897  10.852  11.416 -0.0422 -0.0501 -0.0073
31280W        W44694  13.493   3.806  12.316 -0.1214  0.3786  0.2380
31281W        W44695   4.909   4.070  14.895 -0.0571 -0.1697 -0.2673
31282W        W44696   5.191  18.159   3.065  0.0223 -0.0978  0.1303
31283W        W44697   4.454   2.895   1.088  0.0147  0.0238 -0.0040
31284W        W44698   5.641   6.422   3.810 -0.1332  0.0485  0.1009
31285W        W44699  14.773  14.370  15.936 -0.1891 -0.1674  0.3826
31286W        W44700  13.948  12.739   2.295 -0.1236 -0.1441  0.3224
31287W        W44701  10.703   5.689   0.443 -0.0203  0.0835 -0.1458
31288W        W44702  10.655  12.272   5.770  0.0289 -0.0894 -0.0903
31289W        W44703  11.495  11.428   5.718 -0.1222  0.0939 -0.2211
31290W        W44704  10.922   7.324   1.018 -0.1859 -0.1120 -0.0983
31291W        W44705  13.222   6.674   5.043  0.3363 -0.0706  0.3455
31292W        W44706  10.385   9.508   5.528  0.1641 -0.0344  0.2335
31293W        W44707   7.427  10.623  13.018  0.1428 -0.0591  0.1212
31294W        W44708   7.811  10.881   4.138  0.0692 -0.1271  0.1903
31295W        W44709  10.091  11.728  13.180  0.0295 -0.0371 -0.1742
31296W        W44710   6.147  14.475   2.984 -0.1752 -0.0736  0.0937
31297W        W44711   8.840  11.961  11.512 -0.0828 -0.0040  0.2294
31298W        W44712   9.142  15.469  14.095 -0.1237 -0.0811  0.0239
31299W        W44713  13.394   5.661   3.213 -0.1865 -0.1225  0.0422
31300W        W44714   6.192   8.250  12.420 -0.2413  0.3364  0.2063
31301W        W44715   0.822  12.614  14.292  0.2456 -0.0499  0.3013
31302W        W44716  16.507  17.043  15.724  0.1674 -0.0859 -0.2866
31303W        W44717   7.546  16.843   1.570  0.0051  0.0529  0.0050
31304W        W44718   2.100  15.666   4.245 -0.0951  0.1733 -0.2348
31305W        W44719   6.798  10.326  13.955 -0.0778  0.0695  0.1476
31306W        W44720  17.181   8.169   1.931  0.0865  0.0230 -0.0304
31307W        W44721   4.696   0.002  14.599  0.2074  0.0258 -0.0486
31308W        W44722  16.100   8.111  11.835 -0.0833 -0.0288  0.0742
31309W        W44723   0.259  15.412   3.274  0.0376  0.1102  0.0368
31310W        W44724   7.815  10.709   5.072  0.1090 -0.0670 -0.0786
31311W        W44725  13.403  12.091  11.712 -0.1464 -0.1163  0.0887
31312W        W44726  18.149   9.149  11.933  0.1678 -0.0893  0.2257
31313W        W44727  14.933   2.060  12.913 -0.1533  0.2146  0.2042
31314W        W44728   8.168   3.761  11.511 -0.0023 -0.3127 -0.0329
31315W        W44729  15.356   9.035   5.468  0.0886  0.0354 -0.0602
31316W        W44730  15.961  11.479  11.799 -0.1656 -0.0443  0.2842
31317W        W44731  13.864  17.718   5.000 -0.1236  0.1078  0.0407
31318W        W44732  12.514  16.155   3.587  0.0928 -0.2166 -0.0100
31319W        W44733   5.218   6.302   2.650 -0.0335  0.1508  0.0121
31320W        W44734   7.694  10.960   2.602  0.0803  0.4041  0.2785
31321W        W44735  10.489   5.292  11.646 -0.2900  0.0498 -0.6450
31322W        W44736  14.413   0.634   5.338  0.2283 -0.0356  0.0469
31323W        W44737   8.216  11.848   3.797  0.0872 -0.1194  0.1616
31324W        W44738  18.142  13.076  11.346 -0.1758  0.0802 -0.0667
31325W        W44739   3.145  18.428   3.571 -0.1841  0.1375 -0.1164
31326W        W44740  14.171   5.881  15.839 -0.0819  0.1222  0.1321
31327W        W44741   0.779   1.479   4.788  0.1105  0.0540 -0.2482
31328W        W44742   7.440   5.854  15.030 -0.3640 -0.0707 -0.0191
31329W        W44743  12.159   7.008  13.138 -0.0945 -0.1361  0.1148
31330W        W44744   8.000   8.813  12.448  0.0616  0.1132 -0.1946
31331W        W44745   2.924   8.702   6.689  0.1019 -0.1474  0.2388
31332W        W44746  11.838   1.281  10.877  0.1514 -0.0438  0.1356
31333W        W44747  10.381  10.168   2.903 -0.0711 -0.1290 -0.1132
31334W        W44748  10.318   1.887   0.832 -0.1467  0.1151 -0.0525
31335W        W44749  13.891  11.337   5.325  0.0311 -0.2161  0.0388
31336W        W44750   2.072   6.685   3.977  0.0963  0.2860  0.0725
31337W        W44751  12.926   0.627   6.262 -0.0856  0.1365  0.1192
31338W        W44752   9.603   8.527  10.813 -0.0816  0.3540  0.1382
31339W        W44753  10.758   4.777   5.306  0.0791  0.0318 -0.0122
31340W        W44754  16.646  18.106  11.518 -0.0406 -0.0818 -0.0464
31341W        W44755   1.075   7.133   4.023  0.0538  0.0989 -0.3326
31342W        W44756  15.237   6.061  11.349 -0.1013 -0.2576  0.1900
31343W        W44757   8.644  15.438   0.366  0.1305  0.0111  0.0397
31344W        W44758   8.467  12.341  14.687  0.2089  0.0700  0.1334
31345W        W44759  10.161   5.450  10.811  0.0576  0.1731 -0.0428
31346W        W44760  14.117   0.755  13.695  0.0464 -0.0395  0.4736
31347W        W44761   4.604   2.738   4.558  0.0077 -0.1153 -0.2835
31348W        W44762  11.239  15.615  13.872 -0.2456 -0.3146  0.3319
31349W        W44763   8.121  12.371  15.035 -0.0040 -0.2311  0.0170
31350W        W44764  15.784  15.416  14.330  0.3407  0.1621  0.3327
31351W        W44765   2.304   4.689  10.280  0.2949  0.0927  0.2496
31352W        W44766  10.048   5.456   5.001 -0.1416 -0.0808  0.2270
31353W        W44767   6.574   6.051   5.306 -0.2260  0.1228 -0.1376
31354W        W44768  13.769  13.593  12.332 -0.0822  0.2491  0.0658
31355W        W44769   8.914   7.058  11.596  0.1231 -0.2146 -0.0554
31356W        W44770  10.637   7.860  15.399  0.0865 -0.2118 -0.3686
31357W        W44771   4.860   2.831  12.930  0.0442 -0.1514 -0.2354
31358W        W44772   8.370   1.732   1.829  0.1432 -0.0382  0.0577
31359W        W44773  10.206   0.799  15.108  0.0991  0.0487 -0.0296
31360W        W44774  13.948  10.818   1.693 -0.2710 -0.1126  0.3148
31361W        W44775   2.455   2.353  13.318 -0.0175  0.1361 -0.3007
31362W        W44776   6.004   6.670  13.781 -0.2015  0.4627 -0.0009
31363W        W44777  17.882   0.990   0.149  0.1541  0.2504 -0.2096
31364W        W44778   1.205   6.770  15.902  0.1920 -0.0728 -0.1322
31365W        W44779  11.496   6.054   2.853  0.4253 -0.1899 -0.1106
31366W        W44780  16.291  10.475   5.265  0.1009  0.1183  0.2587
31367W        W44781  17.033  15.198  14.804  0.1868  0.0179 -0.0234
31368W        W44782  17.875   3.608   2.568 -0.0719 -0.1077 -0.3861
31369W        W44783  13.880   4.576   0.413 -0.0660 -0.0357  0.0229
31370W        W44784   4.700  11.762   2.022 -0.0973 -0.0467 -0.1029
31371W        W44785   4.638  13.308  13.952 -0.1129  0.2742 -0.0368
31372W        W44786  17.914   0.459  12.908  0.0948 -0.1333  0.2424
31373W        W44787  16.604  10.280  14.834  0.0022  0.0915  0.0264
31374W        W44788   0.224   8.757   1.858  0.0954  0.0283 -0.1930
31375W        W44789   5.839   7.416   1.912  0.1320  0.0079  0.2431
31376W        W44790   4.499  15.132  12.416  0.3326 -0.0052  0.0743
31377W        W44791   7.822   3.453   2.888  0.0613  0.1755  0.0160
31378W        W44792  13.745  13.147  14.727 -0.1340 -0.2906 -0.3030
31379W        W44793   2.030   9.941  14.385  0.1819 -0.1718  0.0332
31380W        W44794  14.107   1.700   4.412 -0.2055  0.0093 -0.1572
31381W        W44795  14.237   6.385   1.834 -0.3536 -0.1978  0.1092
31382W        W44796  13.919   7.246   5.190  0.1125  0.0391 -0.3351
31383W        W44797  13.166  10.302   6.633 -0.2255 -0.0062  0.1632
31384W        W44798   6.280  16.361  12.010  0.2475 -0.0938  0.1980
31385W        W44799   0.856  16.559   2.132 -0.2158  0.1749 -0.2335
31386W        W44800   6.972   4.995   3.163 -0.1272  0.2171  0.0133
31387W        W44801   8.778  17.907   0.180  0.1396  0.1679 -0.0561
31388W        W44802  10.435  13.393  14.893 -0.0156 -0.0838 -0.1113
31389W        W44803  17.028  16.293  10.131  0.0334  0.1022  0.2461
31390W        W44804  10.825  17.672  15.375 -0.1186  0.1164  0.1513
31391W        W44805   6.151   0.231   5.459  0.3769  0.1395 -0.0442
31392W        W44806   5.826   4.835   2.843  0.0653  0.2876 -0.1345
31393W        W44807  17.456   1.774  13.070 -0.0878 -0.1555 -0.1224
31394W        W44808   5.535   4.014   4.480 -0.0660 -0.1032 -0.1016
31395W        W44809  17.984  10.958  11.517 -0.2054  0.0245 -0.0473
31396W        W44810  16.222   8.770   0.977  0.0587 -0.1750  0.1745
31397W        W44811  18.391  17.731  16.208  0.0282  0.1053 -0.1113
31398W        W44812   6.576  12.850   3.137 -0.1399  0.1486 -0.0499
31399W        W44813   0.576  13.596  13.525  0.1974  0.3292  0.5182
31400W        W44814   8.938   5.530  12.842  0.0027  0.1389  0.0192
31401W        W44815   0.343  11.761   1.837 -0.0549 -0.1076 -0.1843
31402W        W44816   0.066  16.957  12.969 -0.0843  0.0005 -0.0742
31403W        W44817   2.580   3.519   0.921 -0.0170 -0.0751  0.1836
31404W        W44818  15.507   2.427   2.717  0.0251 -0.1770  0.0349
31405W        W44819  16.894   8.542  15.595  0.1614 -0.1387  0.3797
31406W        W44820  13.543   0.566  12.728 -0.1503  0.0182 -0.2169
31407W        W44821   3.878   9.281   2.388 -0.0386 -0.2376 -0.1495
31408W        W44822  10.387   0.204  12.929  0.0461 -0.0484  0.2679
31409W        W44823   0.600  11.209  11.809  0.1363  0.0446  0.1511
31410W        W44824   8.889   6.937   0.431  0.0669 -0.0440 -0.2149
31411W        W44825  12.880  13.074   0.409 -0.2040  0.1011  0.0615
31412W        W44826   6.516  11.969  11.252 -0.0147  0.0421 -0.3682
31413W        W44827  10.579   6.254   0.633  0.1269  0.1167 -0.0333
31414W        W44828   0.459   5.448   3.316 -0.2669  0.0620 -0.0369
31415W        W44829   4.375   8.121  11.971  0.0667  0.2739  0.1805
31416W        W44830  10.920   8.435   1.149  0.1267 -0.0616 -0.1719
31417W        W44831  17.614  16.218  14.102  0.0998  0.0390  0.0338
31418W        W44832  10.816  13.502   3.583  0.1404  0.0432 -0.1713
31419W        W44833   7.553  15.111   1.189  0.0482 -0.1006  0.1017
31420W        W44834   8.956  15.365   3.165 -0.0816  0.0034  0.2590
31421W        W44835   6.515   6.689   3.639 -0.2987 -0.2744  0.1622
31422W        W44836   0.874  11.034   0.738  0.3097  0.1328  0.1609
31423W        W44837   5.710  11.951   9.895  0.3620 -0.2428 -0.3255
31424W        W44838  12.999   9.340   4.858  0.4864  0.3180  0.0194
31425W        W44839   3.614   9.607   0.847 -0.1332  0.0693 -0.3246
31426W        W44840   0.467  12.635  13.665  0.1261  0.1693 -0.0954
31427W        W44841  14.608   4.872   3.882  0.2492  0.2461  0.0835
31428W        W44842  16.796  13.927  10.298 -0.2763 -0.1139  0.3322
31429W        W44843  11.228  11.606   3.578  0.0296 -0.1119 -0.2176
31430W        W44844  13.727  11.107  12.495  0.0652 -0.2127 -0.1184
31431W        W44845   8.020   6.138  10.792  0.1482 -0.0408 -0.1577
31432W        W44846   0.852  15.546   0.280  0.1163  0.0798 -0.1746
31433W        W44847  15.977  11.841  13.191  0.0197  0.0469 -0.0795
31434W        W44848  16.073  10.919  10.344 -0.1961  0.3962 -0.1345
31435W        W44849  10.586  17.455   3.646 -0.2433  0.0946 -0.2018
31436W        W44850  17.371  13.265   3.322 -0.0023 -0.2150  0.1702
31437W        W44851  14.507  13.772  11.285  0.0651 -0.1945  0.0798
31438W        W44852  14.053  11.010  10.568 -0.0607 -0.3463  0.0173
31439W        W44853   5.195  13.261  15.843  0.0533  0.0012 -0.2694
31440W        W44854  13.032   7.247  14.298 -0.3687  0.2968 -0.2167
31441W        W44855   6.121   0.056  16.071 -0.0596  0.0739 -0.2387
31442W        W44856  16.497  16.283  12.161 -0.1509  0.2896  0.0331
31443W        W44857   3.294   0.986  15.015 -0.1173  0.1076 -0.1752
31444W        W44858  13.143   4.386   2.005 -0.1305  0.2085 -0.1704
31445W        W44859   0.585   7.109  11.448 -0.5722  0.2361 -0.0410
31446W        W44860   5.346   5.623  11.145 -0.0154  0.2059 -0.0326
31447W        W44861  18.301  15.018   6.280  0.0115 -0.0003  0.0524
31448W        W44862   7.976  13.116  12.278  0.0399 -0.0915 -0.2160
31449W        W44863  10.332  13.069  16.093 -0.1036  0.2053  0.1714
31450W        W44864   6.509   8.656  15.276 -0.0267  0.0051 -0.2933
31451W        W44865   4.334  14.048   1.530  0.1334  0.1356  0.0504
31452W        W44866   4.216   1.248   0.351  0.0373  0.2603  0.0017
31453W        W44867  12.988   2.720   2.522  0.2524 -0.2495 -0.2608
31454W        W44868   3.496  10.231   6.703  0.3710  0.1268 -0.1475
31455W        W44869  11.937  18.164   4.498 -0.0709 -0.0542 -0.1698
31456W        W44870   8.725  14.891   0.854 -0.1845 -0.2174 -0.2131
31457W        W44871  10.606  14.950  10.849 -0.0927  0.0159  0.4013
31458W        W44872   8.858   4.346   1.978 -0.1086 -0.4414 -0.0723
31459W        W44873   1.994   9.832   1.549 -0.1419 -0.0189 -0.3031
31460W        W44874   6.958   9.717   3.838  0.0973  0.0205  0.2640
31461W        W44875   8.019  13.284  13.487 -0.2079 -0.1877 -0.1709
31462W        W44876  17.922  16.988   2.456 -0.1444  0.2245  0.1928
31463W        W44877  13.786  13.930   2.393 -0.0497 -0.0335  0.1206
31464W        W44878  16.725   2.039   4.831 -0.0133 -0.1367  0.3784
31465W        W44879   5.122  14.757   2.839 -0.0856  0.0178  0.0775
31466W        W44880  12.337  18.086   5.410 -0.4785  0.1121  0.1440
31467W        W44881  15.512   7.610  14.894  0.2580  0.0183 -0.3167
31468W        W44882  16.830  10.567  11.855 -0.0985 -0.0292  0.1843
31469W        W44883   7.619   5.270  15.609 -0.2540  0.0330  0.0213
31470W        W44884   6.358   0.752  14.582  0.1526  0.0058 -0.0475
31471W        W44885   1.318   4.063  11.962  0.1833  0.1123  0.0955
31472W        W44886  12.223   7.834   5.830 -0.1362 -0.1843 -0.0950
31473W        W44887   6.361  17.453  11.089  0.1232 -0.1761 -0.1161
31474W        W44888  11.856   4.109  15.333 -0.1535  0.1372 -0.0722
31475W        W44889  11.567   6.578   3.032 -0.0109 -0.0271 -0.1891
31476W        W44890  15.738   8.494   6.061  0.0509  0.2794  0.1016
31477W        W44891  17.036   7.559  12.792  0.0191  0.3075 -0.1750
31478W        W44892   6.853   7.822  15.914  0.0788 -0.0353  0.3275
31479W        W44893   5.634   8.527  13.395 -0.1755 -0.0376 -0.0959
31480W        W44894   0.403  15.432   4.249 -0.3159 -0.3408 -0.0487
31481W        W44895   1.617   1.088   4.545  0.2460 -0.0582 -0.3360
31482W        W44896   7.653   3.388  12.826 -0.1881  0.1006  0.0353
31483W        W44897  15.210   5.411   0.614 -0.0786 -0.0344 -0.2902
31484W        W44898   9.257   7.856  14.396 -0.0240 -0.2759 -0.3600
31485W        W44899   6.809  10.815   4.675 -0.1670 -0.1972  0.0075
31486W        W44900  17.311  18.023   5.269  0.0831  0.0812 -0.1120
31487W        W44901  17.056  16.612   2.289 -0.0315  0.1299 -0.0889
31488W        W44902   5.913  17.027  12.904 -0.0386 -0.1284 -0.0762
31489W        W44903  18.119  16.351  14.524  0.2482 -0.1425  0.0347
31490W        W44904   4.002   6.537  15.531  0.1273 -0.2032 -0.0281
31491W        W44905  14.052  11.812   1.365  0.0959  0.0241  0.0932
31492W        W44906   1.456  17.140   3.718 -0.3669  0.2800 -0.0084
31493W        W44907  10.909  14.221  14.103  0.1151  0.4459 -0.0660
31494W        W44908  17.627  15.110   4.061 -0.1502  0.0775  0.1096
31495W        W44909   3.483  16.845  13.999 -0.1276  0.1754 -0.5465
31496W        W44910  14.659  15.028   5.371 -0.1062  0.1936 -0.1737
31497W        W44911   2.138  15.686  14.786 -0.2421  0.0659 -0.2079
31498W        W44912   3.290   0.867   0.428 -0.1623  0.0172  0.0729
31499W        W44913   8.222   7.675   4.953  0.1968  0.0765 -0.1401
31500W        W44914   5.874  15.372  13.580 -0.1286  0.4812 -0.1300
31501W        W44915   3.804   2.778  13.713 -0.3248  0.0160  0.0095
31502W        W44916  15.816   5.230  14.530 -0.2505 -0.4769  0.0258
31503W        W44917  16.537   4.466   3.279  0.0480  0.0371 -0.0006
31504W        W44918   2.262  14.811   1.380 -0.0362  0.2265 -0.1416
31505W        W44919  12.822   8.774   1.986 -0.2169  0.0679 -0.1142
31506W        W44920   5.890   0.091   4.257 -0.1542  0.0032 -0.1055
31507W        W44921  15.796  16.918  14.167 -0.1397  0.0619  0.0731
31508W        W44922   1.564  11.026   1.165 -0.0388 -0.2274 -0.2549
31509W        W44923   5.747  17.534  13.969  0.0330  0.0866  0.0512
31510W        W44924  15.836   8.132  11.397 -0.2689 -0.0693  0.0594
31511W        W44925  16.535   6.787  13.151 -0.0161 -0.1187  0.1337
31512W        W44926  13.305  12.388   5.037  0.2595 -0.1239  0.0051
31513W        W44927   0.009   2.207  14.575 -0.1867  0.0000  0.2362
31514W        W44928   7.836  11.140   1.142  0.0561 -0.1487 -0.0922
31515W        W44929   1.721   2.348   2.212  0.3886 -0.0236 -0.3921
31516W        W44930  14.268  14.236   2.335 -0.0780  0.1008  0.2370
31517W        W44931   8.171  14.956   0.429 -0.3407 -0.0748 -0.0803
31518W        W44932   6.976  12.278   4.818 -0.0405 -0.0095  0.6178
31519W        W44933  17.246  11.278   1.116 -0.2833  0.1159 -0.3098
31520W        W44934   7.194   2.441   3.496  0.1847 -0.4509 -0.0649
31521W        W44935  12.067  10.927   3.606  0.0217 -0.0436  0.0498
31522W        W44936   5.865  17.605  14.465 -0.1348 -0.1750 -0.0006
31523W        W44937  17.298  12.728  11.443 -0.2719  0.1508 -0.0893
31524W        W44938  11.899   6.076   6.068  0.2430  0.1682  0.0085
31525W        W44939   8.656   5.058   3.854  0.0794  0.1475  0.0651
31526W        W44940  10.916   8.629   6.250  0.2753 -0.1031 -0.0345
31527W        W44941   6.463  11.587  12.982 -0.1102  0.0724 -0.1108
31528W        W44942  11.672   4.198  10.037 -0.2423  0.0239  0.3668
31529W        W44943  10.212   4.011   2.101  0.3033 -0.1368  0.1141
31530W        W44944  11.428   5.869  11.603  0.5576 -0.1118  0.1456
31531W        W44945  16.892  14.451   3.035  0.0806 -0.1556 -0.0886
31532W        W44946   1.903   4.535  13.863  0.0762 -0.2393  0.0948
31533W        W44947  13.371  17.280   4.248 -0.1167 -0.0523  0.0381
31534W        W44948  17.240   9.990  15.683 -0.4316 -0.0759 -0.0491
31535W        W44949  13.836  15.264   0.715 -0.3028  0.1698 -0.0381
31536W        W44950   9.790   8.703  12.687 -0.1824  0.0490 -0.0914
31537W        W44951  16.830  16.500  11.170  0.1244 -0.0005  0.1413
31538W        W44952   2.397   1.008   3.054  0.0500 -0.0474  0.1135
31539W        W44953   8.001  13.270  14.416  0.1962  0.2248  0.5509
31540W        W44954   4.697   5.205   5.002 -0.4019  0.1648  0.0307
31541W        W44955   5.071   1.498   1.790  0.2082 -0.0277 -0.1295
31542W        W44956   4.748  16.252   6.192  0.0244 -0.0265  0.1773
31543W        W44957   2.400   2.998   1.812  0.1878 -0.1118 -0.2364
31544W        W44958  10.621  11.139  12.268 -0.0256 -0.0799  0.0650
31545W        W44959  16.696   2.553  14.566  0.2672  0.0513 -0.2380
31546W        W44960  15.935  16.097  11.059 -0.2209  0.0007 -0.2923
31547W        W44961  15.932  11.921  11.179 -0.1186 -0.0802 -0.2639
31548W        W44962  11.233   6.314  14.106 -0.3260 -0.0004  0.1013
31549W        W44963   6.878   2.148  12.009  0.1172  0.1283 -0.1976
31550W        W44964   5.565  14.758   0.198 -0.0693 -0.0402 -0.2991
31551W        W44965  10.549  17.584  12.027 -0.0239  0.0624 -0.2923
31552W        W44966   2.092   5.401  14.778 -0.2062 -0.1634 -0.0672
31553W        W44967  16.157  14.283   3.689  0.1234  0.1041  0.0879
31554W        W44968   5.623  11.239   3.599 -0.1675  0.0439  0.1076
31555W        W44969   9.318  17.608   6.019 -0.1892 -0.1233 -0.0372
31556W        W44970   5.366  12.826   1.352  0.1685 -0.0466 -0.1650
31557W        W44971   3.174   5.060  11.165 -0.1417 -0.0547 -0.1468
31558W        W44972  12.873   9.844   3.533  0.1231  0.1920  0.3043
31559W        W44973   3.934   9.211   4.431  0.1562  0.0929  0.1030
31560W        W44974  15.824  15.062  12.526  0.0016  0.0512 -0.1936
31561W        W44975  15.904  12.389   9.976  0.3727 -0.1091  0.0132
31562W        W44976  15.173  17.329  10.819 -0.1026  0.0037 -0.1334
31563W        W44977   6.661   9.380   4.986 -0.1679  0.2118  0.0340
31564W        W44978  10.533   3.734  12.221 -0.1262 -0.3744 -0.2074
31565W        W44979   4.198   5.017  13.757 -0.2369 -0.0882 -0.0768
31566W        W44980   8.273  10.358   1.877 -0.1212  0.0054  0.0004
31567W        W44981   2.508   4.347  11.470 -0.0229 -0.1169  0.1382
31568W        W44982   7.798   5.791   1.573 -0.3366 -0.0915  0.3999
31569W        W44983   5.458   7.069  15.800 -0.0131  0.5172 -0.0522
31570W        W44984   9.245   3.775  15.547 -0.0403 -0.1668  0.1400
31571W        W44985  15.200  13.027  15.929 -0.1915 -0.1808  0.1358
31572W        W44986   2.697   9.691   5.987 -0.2792  0.1355  0.0005
31573W        W44987  11.159   3.763   1.272  0.2008 -0.0794 -0.1156
31574W        W44988  13.145  10.411   1.605  0.1003  0.0822  0.0400
31575W        W44989  15.621   7.516   1.034  0.1955 -0.2126 -0.1951
31576W        W44990   0.923  16.222   1.669  0.2598  0.0984  0.2162
31577W        W44991  18.043  10.375  10.885 -0.2697 -0.1965  0.0385
31578W        W44992   1.003  11.369   3.399 -0.4398  0.0956 -0.1439
31579W        W44993  12.178  15.467   0.037 -0.3804 -0.2206 -0.0951
31580W        W44994   0.076   9.978   3.661 -0.0178 -0.1413 -0.1519
31581W        W44995   2.544   5.057  15.137 -0.1811  0.1166  0.0348
31582W        W44996   8.432  10.114   0.260 -0.3659  0.0551  0.3708
31583W        W44997   9.376   8.330   2.294  0.0802  0.2467  0.3725
31584W        W44998  18.366   4.166   4.510  0.0680  0.2256 -0.1115
31585W        W44999   3.642   9.968  10.976  0.3040 -0.0357  0.1199
31586W        W45000   1.578   9.265  14.836  0.0097 -0.1460 -0.1305
31587W        W45001   3.593  17.971  12.878 -0.0279  0.3224  0.0388
31588W        W45002  11.016  12.808   1.906  0.2584 -0.0394 -0.0738
31589W        W45003  12.298   5.687   5.136  0.1775 -0.0639 -0.0351
31590W        W45004  16.852   3.857   5.506  0.0991  0.2444 -0.0881
31591W        W45005  13.268  17.193  14.646  0.2230 -0.3229  0.0563
31592W        W45006  11.890  16.910   1.193 -0.0270  0.4215  0.0921
31593W        W45007  13.043  13.820  13.782 -0.0686 -0.0505 -0.4681
31594W        W45008  18.291   7.299  15.210  0.1393 -0.0714 -0.0749
31595W        W45009  14.744  13.539   0.939 -0.0642 -0.2581 -0.0074
31596W        W45010  14.993   7.333  13.041 -0.0181  0.2530 -0.3954
31597W        W45011  16.367  18.186   1.634  0.1013  0.2199  0.1447
31598W        W45012   4.462  11.242  10.196 -0.1217  0.1620  0.1062
31599W        W45013   8.262   0.711   0.119 -0.0302  0.1354 -0.0529
31600W        W45014  15.886   0.221   0.355 -0.0913 -0.0614 -0.1139
31601W        W45015  10.966   4.424  12.656 -0.2262 -0.0727 -0.0784
31602W        W45016   8.618  15.788  10.329 -0.0695  0.1038 -0.2074
31603W        W45017   7.657  17.464  14.626  0.3276 -0.0955  0.1775
31604W        W45018   0.115   1.343  13.806 -0.2392  0.0062  0.1213
31605W        W45019   4.935  17.333   1.437 -0.2530 -0.2644 -0.0803
31606W        W45020   4.403   7.410  16.238  0.1008  0.0679 -0.0185
31607W        W45021   3.522   4.841   0.257  0.0518 -0.1900 -0.0887
31608W        W45022   8.567  10.823   3.212  0.1548 -0.1150 -0.1716
31609W        W45023  14.012  18.355   0.724 -0.1454 -0.0507  0.1565
31610W        W45024  15.715   2.049  12.407 -0.1442  0.1233  0.3053
31611W        W45025   5.763   1.893   0.113  0.1149 -0.0730  0.1946
31612W        W45026  10.152   3.580   0.364  0.0118  0.2338 -0.1140
31613W        W45027  14.626  15.509  12.825 -0.2471  0.2919 -0.0409
31614W        W45028   1.954  17.736   6.153 -0.1852  0.0736 -0.0647
31615W        W45029  12.311   5.510   1.913 -0.0771 -0.1962 -0.2498
31616W        W45030   6.733   8.784  11.861 -0.1068 -0.0324  0.6514
31617W        W45031   5.053  13.129   4.660 -0.3057 -0.2924 -0.0626
31618W        W45032   5.626   8.950   4.397  0.0319  0.1461 -0.0968
31619W        W45033   6.738   8.801   3.666 -0.2654  0.0489  0.0789
31620W        W45034  10.317   1.220   1.897 -0.1817  0.0268  0.0754
31621W        W45035  13.997   4.457   4.563 -0.0860  0.1689 -0.0558
31622W        W45036   6.480   3.364  11.865  0.0695  0.0126  0.2534
31623W        W45037   9.791  10.905  12.695 -0.0465  0.0464  0.0682
31624W        W45038  17.212   2.561  10.825  0.1323 -0.0288  0.0704
31625W        W45039  11.360   4.330   5.550  0.0493 -0.2934  0.1084
31626W        W45040  14.963  15.821   5.103 -0.2580  0.0741 -0.0117
31627W        W45041   0.057  10.704  16.126 -0.1354  0.0119  0.0009
31628W        W45042   6.454  12.865  12.195 -0.1215  0.3086 -0.0636
31629W        W45043   5.668  14.522   1.512  0.0411 -0.1405 -0.0082
31630W        W45044  11.719  17.481  13.327 -0.3297  0.0330 -0.2679
31631W        W45045   7.648  13.426   5.860 -0.0770  0.1197  0.2574
31632W        W45046  12.452  10.325  14.174 -0.1562  0.1747 -0.1375
31633W        W45047   2.292  12.562  13.811  0.2146 -0.1888 -0.3136
31634W        W45048   6.025  12.107   1.590  0.0793 -0.2010 -0.3282
31635W        W45049  17.553   9.968  15.257  0.1435  0.4475 -0.0652
31636W        W45050   9.728   3.736   2.162  0.0853  0.2578  0.0764
31637W        W45051   6.982  12.701   1.504 -0.0288 -0.1343  0.2742
31638W        W45052  10.898  17.603   4.856 -0.0295  0.0112 -0.2863
31639W        W45053   4.596  15.391   4.501  0.1509  0.1379 -0.0278
31640W        W45054  16.357  18.330   0.428 -0.1565 -0.3685 -0.2922
31641W        W45055   2.455   6.369   5.871  0.2802 -0.1507 -0.0897
31642W        W45056  17.131  17.118   4.026  0.0972 -0.3617 -0.2109
31643W        W45057   4.552   7.936  14.013 -0.0768 -0.0771 -0.2640
31644W        W45058   9.700   4.356  16.081  0.4655  0.2138  0.1599
31645W        W45059  17.342   9.510   4.817 -0.0736 -0.1215 -0.2095
31646W        W45060  11.734   5.599   2.067  0.1205 -0.0098  0.2324
31647W        W45061  16.395   5.319   4.607  0.1154  0.2224 -0.1189
31648W        W45062  12.407  13.823  11.518 -0.1021  0.1273 -0.2505
31649W        W45063   0.157  10.167   0.721 -0.1547 -0.4756  0.0964
31650W        W45064   2.899   1.976  13.544 -0.0538 -0.0710 -0.2183
31651W        W45065  13.342   6.948   1.447  0.2690 -0.1962  0.1181
31652W        W45066   7.116   4.643  11.064 -0.1402  0.0121 -0.2603
31653W        W45067  15.724  10.713   2.890  0.0703  0.0378 -0.1799
31654W        W45068   5.010   1.421   0.910  0.2125 -0.0750 -0.1805
31655W        W45069   0.083  10.050   3.155  0.2842 -0.2776  0.1207
31656W        W45070   9.863   3.322  16.053  0.1188 -0.0868 -0.0615
31657W        W45071   9.342  12.919   0.661  0.0126  0.0689  0.2653
31658W        W45072  11.611  11.872   3.516  0.1306  0.2579 -0.0614
31659W        W45073  11.326  11.930   3.139 -0.0602  0.1996 -0.2501
31660W        W45074   4.412  10.159  10.471 -0.0818  0.0724 -0.3281
31661W        W45075   7.162   9.188  12.124  0.0507  0.0479 -0.0170
31662W        W45076   6.407  14.587  14.190 -0.2664  0.1409 -0.0939
31663W        W45077  15.657   0.598   2.809  0.1008 -0.1253 -0.0072
31664W        W45078  14.678  16.708  15.971  0.1669  0.0016  0.0332
31665W        W45079   7.781  16.859  11.636 -0.0920  0.0060 -0.1798
31666W        W45080   0.606  11.885   2.985  0.0508 -0.1166 -0.2847
31667W        W45081   8.953  12.139   3.173 -0.0698  0.1437  0.2707
31668W        W45082   8.250   9.572   3.046  0.2470 -0.0658  0.1250
31669W        W45083   1.087  14.900   9.854 -0.0344  0.2347 -0.0145
31670W        W45084   7.408   4.683   1.786 -0.0150  0.0055  0.2596
31671W        W45085   6.793   4.508  13.141 -0.0834 -0.4065  0.1646
31672W        W45086   1.063   8.031   5.550 -0.0124 -0.1420 -0.1642
31673W        W45087   3.055  13.623   4.055  0.2122  0.1663 -0.1300
31674W        W45088  12.585  12.050  13.968 -0.3016  0.1619  0.0810
31675W        W45089  14.899   5.389  12.431  0.0562 -0.3039  0.1963
31676W        W45090   6.243  12.897  11.348  0.1617 -0.0236 -0.0819
31677W        W45091  15.335   1.786  12.077 -0.0656  0.1801  0.3745
31678W        W45092   1.884   8.760   1.715  0.1119  0.2680 -0.0628
31679W        W45093  12.674   3.042   1.303 -0.0091  0.5350 -0.3090
31680W        W45094   3.309   3.624  14.892 -0.1964  0.1791  0.0013
31681W        W45095  18.035  17.689   4.211 -0.4281 -0.0488 -0.0890
31682W        W45096   6.456   5.645   6.242 -0.1560 -0.0481 -0.1483
31683W        W45097   1.803   2.969  13.842 -0.3443 -0.2245 -0.2266
31684W        W45098   4.070   9.472  14.865  0.0605 -0.1100  0.0359
31685W        W45099  18.278  14.459  14.729  0.0528  0.3153 -0.0237
31686W        W45100  13.872  16.683  14.849 -0.2021 -0.2247  0.1163
31687W        W45101   5.145   7.103   4.725 -0.1712 -0.0436 -0.0253
31688W        W45102   8.674   2.437   0.634 -0.0086 -0.1378 -0.2370
31689W        W45103  16.248  16.016  12.531  0.2755  0.0320 -0.0673
31690W        W45104  16.527   1.490  13.022 -0.0500 -0.0858  0.3095
31691W        W45105   7.421   6.862   2.120 -0.1224 -0.0845 -0.0396
31692W        W45106   8.010   8.343   0.645  0.0063 -0.0830  0.1088
31693W        W45107  10.447  13.037  12.275  0.3002 -0.4019  0.1440
31694W        W45108  12.030  12.207  16.186  0.2226  0.2332  0.0632
31695W        W45109  17.074   0.866   3.400  0.1041 -0.0791  0.0043
31696W        W45110   2.441  10.823  15.694  0.0070 -0.1886 -0.0990
31697W        W45111   4.725   6.386   4.074 -0.0477  0.0058 -0.2295
31698W        W45112  16.014  10.248   0.511 -0.0016  0.0578  0.1902
31699W        W45113   6.856   3.298   3.329 -0.0477  0.2675 -0.3526
31700W        W45114  17.329   3.855   0.929  0.0604 -0.1532  0.2688
31701W        W45115   6.577   5.258  11.797  0.0467 -0.1288  0.2988
31702W        W45116   3.601   4.284   5.193  0.0467  0.2186  0.1843
31703W        W45117   6.966  10.021   4.286 -0.3535  0.1710  0.1463
31704W        W45118   2.634  15.002   2.335 -0.0739 -0.2558  0.0464
31705W        W45119  12.882   3.203   6.026 -0.1662  0.2095 -0.0803
31706W        W45120  13.143   9.444   0.240  0.1596 -0.1468  0.0227
31707W        W45121   6.497  10.495  11.594  0.0549  0.0090 -0.1374
31708W        W45122  18.417   8.432   6.321 -0.1434 -0.1505 -0.1429
31709W        W45123  10.428   6.682   2.224 -0.1483 -0.2569  0.1546
31710W        W45124   6.689   5.741  11.772  0.0687  0.0054 -0.1778
31711W        W45125   6.533  14.609   6.181 -0.0306 -0.0534 -0.0699
31712W        W45126  11.814   2.826  11.120  0.1658  0.0398 -0.1688
31713W        W45127  15.140   6.942  12.157  0.0965  0.2195  0.4723
31714W        W45128  11.209   3.325   0.455  0.2611 -0.0177 -0.2552
31715W        W45129  11.508   3.668  11.632  0.1638 -0.2824 -0.2552
31716W        W45130  15.823   0.546   4.573  0.1652 -0.2813 -0.1065
31717W        W45131  11.852   6.423  11.993  0.1316  0.2182  0.0126
31718W        W45132  17.157   5.972  12.461 -0.0518  0.1447 -0.0053
31719W        W45133  12.397   9.101   2.072  0.2792  0.1121  0.1124
31720W        W45134   0.933   4.236  11.647  0.1409  0.0851  0.0617
31721W        W45135  10.311  16.128   0.642  0.0470 -0.0782 -0.2865
31722W        W45136   3.964  14.100   3.931 -0.0821  0.1885  0.0788
31723W        W45137   5.492  17.602  16.015  0.2947  0.0962 -0.0643
31724W        W45138  15.394  13.374  10.200  0.0001 -0.0285 -0.3944
31725W        W45139   5.087   9.040   2.914 -0.0302  0.1440 -0.0647
31726W        W45140  15.259   3.026   3.917  0.1535 -0.2905  0.0025
31727W        W45141   2.808   1.366  13.729 -0.1206  0.3904 -0.0337
31728W        W45142  14.084   2.767   1.929  0.0381  0.0795 -0.0477
31729W        W45143   5.811   0.064   1.533  0.0924  0.0464  0.1483
31730W        W45144   7.145  10.959  12.649 -0.2705 -0.1562  0.4577
31731W        W45145  11.500   7.938   0.312  0.0286  0.0784  0.2587
31732W        W45146  16.767   2.869  11.058  0.0026  0.2357  0.0346
31733W        W45147  13.203   2.779  14.238  0.0452  0.2977 -0.1711
31734W        W45148  17.986   3.077   4.033 -0.0291  0.0809  0.1946
31735W        W45149   8.738  13.330   2.526 -0.1122  0.3698 -0.0528
31736W        W45150   8.838  17.263  14.214 -0.0577 -0.1842 -0.1390
31737W        W45151   1.124   4.600   3.261 -0.0070 -0.2914  0.1777
31738W        W45152  16.178   8.530  11.589 -0.0657  0.0445  0.1341
31739W        W45153   9.064   3.205  10.047  0.2477  0.0831  0.3176
31740W        W45154   0.119  14.107   2.678  0.4729  0.3520 -0.0345
31741W        W45155  17.143   4.324  13.110 -0.3023 -0.2671  0.0849
31742W        W45156  17.936  12.960   2.188  0.0031  0.1964  0.0514
31743W        W45157   2.799   4.264  14.246 -0.0852 -0.1348 -0.0584
31744W        W45158  16.387   8.787   4.907 -0.1163  0.0064  0.1601
31745W        W45159  15.173   3.480   5.472  0.0921 -0.2019 -0.2992
31746W        W45160   0.434   1.361  12.882  0.0824  0.0542  0.0430
31747W        W45161  12.728   0.840   2.501 -0.1148 -0.0926 -0.1768
31748W        W45162   7.767  14.427   4.256 -0.1467  0.0477 -0.0758
31749W        W45163  16.242   0.825  10.773  0.0726 -0.1122  0.2722
31750W        W45164  12.844   4.846   5.761  0.1086  0.0160 -0.1713
31751W        W45165  13.269   4.451  16.097  0.1193 -0.3222  0.4326
31752W        W45166  11.150  13.066  10.361  0.1746  0.0556  0.2173
31753W        W45167   6.491  12.246  11.730 -0.0014 -0.1771 -0.1902
31754W        W45168  15.127   4.522   6.407  0.0266  0.2409 -0.1415
31755W        W45169  15.665   3.172   3.597  0.2737  0.1563 -0.2852
31756W        W45170   6.609  14.588   2.573 -0.0608  0.0221 -0.0248
31757W        W45171  12.248  15.264   3.334 -0.0504 -0.0873  0.2418
31758W        W45172  16.277  11.430   3.414 -0.1665  0.4853 -0.4943
31759W        W45173  13.361  15.773   3.239  0.2624  0.0714 -0.0081
31760W        W45174  12.499   2.170   4.299  0.2728 -0.2858 -0.2311
31761W        W45175   5.451  14.714   1.107  0.1556 -0.0342  0.4059
31762W        W45176  13.293   2.222   0.069 -0.3862 -0.2398 -0.1607
31763W        W45177   6.139  11.202   1.908 -0.1940  0.2809 -0.0992
31764W        W45178   8.060   8.065  14.827 -0.0484 -0.3290 -0.0316
31765W        W45179  11.469   1.831  15.125  0.3229  0.2036 -0.0557
31766W        W45180   4.008  16.751   2.342 -0.2298  0.0736 -0.0024
31767W        W45181   4.654   8.007   4.221 -0.0086 -0.0223  0.2580
31768W        W45182   6.245   6.684  11.378  0.4434 -0.1917  0.1137
31769W        W45183   1.189   3.952   0.382  0.3529  0.0720 -0.0044
31770W        W45184  12.366   1.082  13.920  0.2890  0.3217 -0.2415
31771W        W45185   1.587   2.660   4.838 -0.0606 -0.0590 -0.0941
31772W        W45186  11.894   3.962  14.369  0.2888  0.1054  0.1831
31773W        W45187   8.241   1.911   3.836  0.1596  0.0939 -0.0747
31774W        W45188  11.485   5.440   4.798  0.0415  0.0696 -0.0921
31775W        W45189   2.884  11.082   2.362 -0.1664 -0.2215  0.1465
31776W        W45190   8.101  11.379   4.515 -0.1048  0.0367 -0.0356
31777W        W45191  15.873   2.005  14.111  0.2313  0.0893  0.2210
31778W        W45192   7.999  16.879  12.101  0.0649  0.0832 -0.1534
31779W        W45193   8.924   1.533  11.598  0.0267  0.0175 -0.1852
31780W        W45194  17.508   9.991  12.184 -0.0859  0.0408  0.1239
31781W        W45195   3.641  17.086   5.863 -0.3205 -0.1138  0.1792
31782W        W45196  14.353  14.793  13.041 -0.1115 -0.0972 -0.0605
31783W        W45197  12.066   3.655   5.561 -0.1956 -0.0663  0.1253
31784W        W45198   7.615   2.524   4.766 -0.1808  0.1231 -0.0047
31785W        W45199   3.672  15.924   1.747 -0.1758 -0.2962 -0.1913
31786W        W45200   7.404  17.211   3.478  0.0442 -0.1834  0.1052
31787W        W45201   9.132  17.658   3.425 -0.0111  0.1039  0.2748
31788W        W45202  10.409   4.137   2.550 -0.0281 -0.3672 -0.2463
31789W        W45203  14.056   0.457   3.040 -0.0921 -0.1834  0.0102
31790W        W45204   2.028   4.600  12.230  0.1356  0.0954 -0.0511
31791W        W45205  13.018  14.144   0.427 -0.0432  0.1337  0.0847
31792W        W45206   3.206   3.358  10.439 -0.0031 -0.1490  0.3178
31793W        W45207  14.086   0.078  14.818 -0.0693  0.0784  0.0157
31794W        W45208   2.640   0.971   1.808  0.0803  0.1048 -0.1495
31795W        W45209  11.859  12.628   5.271  0.0965 -0.0564 -0.2585
31796W        W45210   8.452   3.746   2.606 -0.0723  0.1109  0.4554
31797W        W45211   0.517   9.624  13.082  0.2135  0.0948  0.2464
31798W        W45212   2.539   0.347   3.894  0.3256 -0.2067 -0.1449
31799W        W45213   6.386   6.395  11.800  0.1459  0.4724  0.0848
31800W        W45214  17.667  10.524  11.331 -0.1279  0.0794 -0.1094
31801W        W45215  12.453   2.462  14.543  0.0858  0.0667  0.1879
31802W        W45216   1.296   4.544   4.216 -0.0282 -0.1237  0.1339
31803W        W45217  11.224  15.197   1.590 -0.1942 -0.2781 -0.0158
31804W        W45218  18.285  12.794   2.545 -0.2055  0.2155 -0.3214
31805W        W45219  14.173   0.898   3.899  0.1942  0.0714  0.1487
31806W        W45220   3.197  10.678  14.061  0.0972  0.0485  0.0194
31807W        W45221  12.349  14.149  15.477 -0.1857 -0.2599  0.2058
31808W        W45222  13.705   0.641   2.162  0.4986 -0.1210  0.1506
31809W        W45223   9.088  12.186  12.044  0.0859  0.2331 -0.1165
31810W        W45224   3.341   9.032  14.568 -0.2470 -0.2504  0.1621
31811W        W45225   3.289  17.165   5.086  0.0922  0.1032 -0.0225
31812W        W45226  16.219   6.292   3.713  0.0060  0.0230  0.3682
31813W        W45227   8.558   7.497   2.086  0.2475 -0.1152 -0.0705
31814W        W45228  17.441   9.086   1.000  0.0148  0.0873 -0.1729
31815W        W45229   1.350  17.493  10.380  0.0499 -0.2129  0.0129
31816W        W45230   0.907   0.107  11.690  0.4774  0.1995 -0.0424
31817W        W45231  14.178  11.694   6.057 -0.0335  0.2032  0.0689
31818W        W45232   7.313   7.996  15.711 -0.0709 -0.1246 -0.2633
31819W        W45233   3.471   5.579  12.783  0.1035  0.1260  0.1857
31820W        W45234  17.178  16.650  11.585 -0.1697  0.2060 -0.1905
31821W        W45235  13.188  15.125   1.470  0.0533 -0.3274  0.1789
31822W        W45236   2.659   1.061  11.574  0.3117  0.0813  0.1672
31823W        W45237   6.481   0.767  13.683  0.1756 -0.0023 -0.2208
31824W        W45238   1.585  11.159   0.005  0.1056 -0.1665 -0.2971
31825W        W45239   5.326   6.571  14.877 -0.1376 -0.3759 -0.2215
31826W        W45240   2.792  13.037  14.209 -0.3209 -0.2059 -0.1736
31827W        W45241   9.077   8.251   4.347  0.1824  0.0712  0.3448
31828W        W45242   2.887   2.907   5.406 -0.3375  0.1371  0.1155
31829W        W45243   9.569  13.089   4.722 -0.1565  0.0397 -0.1789
31830W        W45244  17.081   4.068   4.958  0.0625 -0.2730  0.0389
31831W        W45245   5.888   8.136   5.124  0.1944 -0.0922 -0.0497
31832W        W45246   8.250   0.786   5.194 -0.1099  0.0265  0.1166
31833W        W45247   5.812   7.142  13.887  0.2178 -0.4507 -0.0387
31834W        W45248   4.258  16.520   3.968  0.1581 -0.3605  0.0024
31835W        W45249   8.451   7.943  14.490  0.1157  0.0505  0.0174
31836W        W45250   7.162   3.309   2.895 -0.0282  0.0723 -0.1901
31837W        W45251  10.261   8.710  14.216 -0.0120  0.0422  0.1085
31838W        W45252   4.265  17.956   0.051 -0.1473 -0.3037  0.2763
31839W        W45253  14.755  10.299  10.216  0.2345  0.0955 -0.0823
31840W        W45254   5.386   4.650  12.945  0.2990  0.0812 -0.0104
31841W        W45255  14.431   4.049  14.205  0.0157  0.2999 -0.0290
31842W        W45256   2.949   5.152   1.050  0.1440 -0.0483  0.1591
31843W        W45257  16.601  16.924   2.935 -0.0001 -0.0496 -0.3512
31844W        W45258   5.948  13.472  13.673 -0.2237  0.0028 -0.1617
31845W        W45259   6.830  17.359   3.534 -0.1740 -0.0109 -0.0132
31846W        W45260  16.791  12.514  11.499  0.1141  0.4189  0.2670
31847W        W45261  16.620   6.245   3.388  0.1080  0.0382 -0.2921
31848W        W45262   5.476   8.458   4.569  0.0142  0.0645  0.2304
31849W        W45263  11.514   2.432  11.244  0.0137  0.0386 -0.1675
31850W        W45264   3.371  10.348   4.834  0.1365 -0.1285  0.1579
31851W        W45265  12.444   8.390   4.224  0.0063 -0.4977 -0.0151
31852W        W45266  11.646  12.927  13.967  0.0330  0.0766 -0.1256
31853W        W45267  17.307   7.144   5.804  0.0699  0.1728  0.1861
31854W        W45268   6.023  16.048   2.959 -0.0545 -0.0415 -0.0242
31855W        W45269   6.733   6.146  16.237 -0.1707  0.1284 -0.1442
31856W        W45270  11.288   3.298   3.957  0.0819  0.1002 -0.0678
31857W        W45271  17.932  12.657  14.786  0.0551  0.0422  0.0941
31858W        W45272   0.090   1.798   3.623  0.1613  0.0407 -0.0163
31859W        W45273  10.199  13.061   4.111  0.1654  0.0618 -0.0870
31860W        W45274  10.544  10.607  11.013 -0.0609  0.3526 -0.0569
31861W        W45275  14.057  16.216  15.801 -0.1949  0.0759 -0.0756
31862W        W45276   4.228   0.968   3.641 -0.1523  0.1548 -0.3579
31863W        W45277   6.520   1.316  15.199  0.1602  0.0203  0.0498
31864W        W45278   2.957   9.163  13.820 -0.1746  0.1110  0.2329
31865W        W45279   9.021   4.726   4.673 -0.1243 -0.2290 -0.1740
31866W        W45280  15.629  12.853  14.142 -0.0432 -0.3301  0.0667
31867W        W45281  16.310  10.873  13.477  0.2725 -0.3099 -0.2227
31868W        W45282   5.589   4.049  11.046 -0.0163  0.1601 -0.1482
31869W        W45283   0.600   6.618  15.357  0.2392  0.1017 -0.2521
31870W        W45284   5.294  12.761  15.872 -0.1434  0.1499 -0.1921
31871W        W45285  14.979  12.396   4.125 -0.1002 -0.2632  0.2330
31872W        W45286   1.725   1.623   5.468 -0.0143  0.1373  0.0667
31873W        W45287   3.692  11.468  15.369  0.0323 -0.1857 -0.1844
31874W        W45288   4.977  11.328  10.470 -0.0505 -0.0384  0.0510
31875W        W45289  13.722   1.024  13.914 -0.2865 -0.0617  0.2333
31876W        W45290   6.675  10.962  14.151 -0.1222  0.1477  0.2001
31877W        W45291   5.948   7.114  13.370  0.4940  0.1216  0.0813
31878W        W45292   9.296   1.288  12.731  0.4052  0.0495  0.2482
31879W        W45293  12.698   2.780   4.627  0.1840  0.2036  0.0204
31880W        W45294   5.498  16.090   2.799  0.2935  0.0193  0.0599
31881W        W45295   6.181   1.287   5.249 -0.1662  0.1380 -0.0292
31882W        W45296   8.090   7.601   1.952  0.1130 -0.3103  0.0443
31883W        W45297  15.746   8.598  11.218 -0.1853 -0.0307  0.0594
31884W        W45298   2.428   2.619   3.294  0.2134 -0.0525 -0.0614
31885W        W45299  13.982  17.558  11.137 -0.0791  0.2286 -0.1647
31886W        W45300   5.052  15.868   4.809 -0.2054  0.1570  0.0669
31887W        W45301  15.859  11.118   0.539 -0.1616 -0.2483  0.2389
31888W        W45302  10.923   2.824   2.139  0.0223  0.2028 -0.2552
31889W        W45303  11.388  16.135   3.248  0.1262  0.0662  0.1904
31890W        W45304   4.419   2.470   0.327 -0.3616  0.0668 -0.1178
31891W        W45305   8.819   9.249  14.427  0.0175 -0.1061  0.1904
31892W        W45306   4.720   4.350  10.513 -0.0178  0.1894  0.1061
31893W        W45307   1.257   1.573   5.048  0.0652  0.0587  0.0211
31894W        W45308  16.242   4.451  12.314 -0.1090 -0.2582  0.0436
31895W        W45309   0.348   1.452   6.855 -0.4202 -0.0662  0.0015
31896W        W45310   8.923   2.402   1.596  0.0276  0.1285 -0.2209
31897W        W45311   1.076  11.369   6.314  0.0190  0.0457  0.0293
31898W        W45312   7.395   8.148   5.090 -0.0648 -0.0726  0.1469
31899W        W45313   2.648   6.421  11.206 -0.0599  0.0151 -0.1492
31900W        W45314   5.464   5.317  11.537  0.0996 -0.0764 -0.0416
31901W        W45315  17.582   1.984  16.092  0.1199 -0.1486  0.3969
31902W        W45316   9.799   1.748   1.910 -0.0321  0.1237  0.0426
31903W        W45317   0.540  11.468  15.603  0.2830 -0.1169 -0.1503
31904W        W45318   9.632  16.131   4.616 -0.3571 -0.0888 -0.0890
31905W        W45319  10.077   5.541  15.772  0.0380  0.0173 -0.0348
31906W        W45320  14.941  13.958  15.518 -0.1651 -0.5153  0.3639
31907W        W45321   7.697  15.163   9.928  0.0022 -0.1967 -0.2275
31908W        W45322  12.908  13.928   5.636  0.1862  0.1964 -0.0107
31909W        W45323  14.506  13.479  14.624 -0.1873 -0.4275 -0.0430
31910W        W45324   6.672   9.795  11.902  0.1643  0.1442 -0.2256
31911W        W45325  14.362  14.289   3.216 -0.0016  0.0809 -0.1543
31912W        W45326  15.227  14.590   2.489  0.2003  0.2496 -0.1615
31913W        W45327   9.212   7.369   5.358  0.0446 -0.1947  0.1059
31914W        W45328   0.433   6.949  14.651 -0.2661 -0.1369 -0.0380
31915W        W45329   4.690   8.704   1.980  0.3080  0.0098 -0.2536
31916W        W45330   5.072  13.486   5.899  0.1058  0.0231 -0.2090
31917W        W45331  17.140  13.119   4.209 -0.1039  0.0313  0.0243
31918W        W45332  15.208  12.502  13.130  0.2513 -0.0643  0.6843
31919W        W45333   0.879  11.403  15.232 -0.1605 -0.0197  0.1169
31920W        W45334   5.146   8.911   4.598  0.0422 -0.1167  0.1747
31921W        W45335  17.653  14.666   5.087  0.0461 -0.2107 -0.1125
31922W        W45336  14.462  15.084   2.780  0.1481  0.2827 -0.1745
31923W        W45337   0.304   3.154   1.104 -0.1215 -0.1119 -0.2615
31924W        W45338  16.565   0.416  15.151  0.0907  0.1884  0.2137
31925W        W45339   7.100  17.976   3.844 -0.2278  0.1971  0.3778
31926W        W45340  10.520   3.940   0.142  0.1350 -0.0332  0.2608
31927W        W45341   6.005  14.890   5.392 -0.2930  0.0736 -0.1233
31928W        W45342  13.322   2.769  10.242 -0.1764 -0.1104 -0.1331
31929W        W45343  12.359  18.228  14.044 -0.0788  0.0515 -0.0502
31930W        W45344   8.414  11.963   0.349  0.0988  0.0736  0.2103
31931W        W45345  13.453  12.159   0.697 -0.2073  0.1530  0.0079
31932W        W45346   4.490   7.635   6.108  0.2657 -0.2893  0.0455
31933W        W45347  15.603  15.117  11.223 -0.2631 -0.0350 -0.0687
31934W        W45348  13.150   3.255  13.715  0.0569 -0.1851  0.0983
31935W        W45349   3.150  18.420  14.862  0.3371 -0.1627 -0.1106
31936W        W45350   1.152  12.555   5.226 -0.1711 -0.2498  0.2579
31937W        W45351  18.240   7.130   2.050 -0.0254 -0.1665  0.0949
31938W        W45352  10.808   5.172  12.014  0.0231  0.2746  0.3224
31939W        W45353  17.739   5.463  14.020 -0.0065  0.1206 -0.0349
31940W        W45354   8.982  18.185   3.543  0.0201 -0.0368  0.2829
31941W        W45355   6.822  15.411  11.895 -0.0525  0.1315 -0.2017
31942W        W45356  10.613   8.359  11.492  0.2518 -0.0073  0.0272
31943W        W45357   5.147  12.785   3.003  0.0430  0.6011  0.3641
31944W        W45358  12.045   0.190  12.599 -0.0527  0.1217 -0.2312
31945W        W45359   2.125  12.026   5.363 -0.2147  0.0082  0.0534
31946W        W45360   4.377  15.856  14.731  0.0502 -0.0385 -0.2068
31947W        W45361   1.008   7.806   1.237  0.1314 -0.2007 -0.1207
31948W        W45362   1.396   5.687   4.016 -0.0069  0.1039  0.0751
31949W        W45363  10.315  13.814   3.766 -0.0630  0.2104  0.2854
31950W        W45364  10.990   2.208   1.575 -0.0843  0.2238 -0.3512
31951W        W45365   5.027  11.730  16.026  0.2501 -0.0843  0.2410
31952W        W45366   7.900  14.465  10.740 -0.1183 -0.5456  0.1465
31953W        W45367   4.799  10.566   1.625  0.2456  0.0644 -0.2746
31954W        W45368   5.276   5.999   5.032 -0.1562  0.2291  0.1077
31955W        W45369  17.424  12.609   6.297  0.0760  0.0818 -0.1389
31956W        W45370  14.065  13.469  11.289  0.0876  0.1887  0.1188
31957W        W45371   3.613  11.526  13.173  0.0102 -0.0215 -0.4008
31958W        W45372   3.703  11.258  14.214 -0.2029 -0.3563 -0.2419
31959W        W45373   3.405   5.952   5.090  0.0285 -0.1775 -0.1952
31960W        W45374  12.796   2.785  15.575 -0.1717  0.0535  0.1879
31961W        W45375   7.873   6.894   5.256  0.0994 -0.3184  0.2927
31962W        W45376   8.247  16.126  10.730  0.2156 -0.0732  0.1939
31963W        W45377  13.573   9.520   3.516  0.0500 -0.2634  0.0026
31964W        W45378  13.262   3.301  15.840 -0.1579 -0.0218 -0.2287
31965W        W45379   6.292  15.306   4.574 -0.1422 -0.0429 -0.1289
31966W        W45380   9.356   4.159  14.689 -0.2094 -0.1379  0.2190
31967W        W45381  18.376  13.148   2.982 -0.2447  0.1277 -0.0571
31968W        W45382   2.921   7.398   2.820  0.0243 -0.1010  0.0318
31969W        W45383  13.069  17.435   5.306 -0.3403  0.1474 -0.3430
31970W        W45384  11.921   6.378   2.663  0.4065  0.0676  0.1779
31971W        W45385  12.053   4.051   9.747  0.2231 -0.1914 -0.0002
31972W        W45386   7.795   5.156   4.755  0.0717  0.0241 -0.2065
31973W        W45387   2.328  13.412  13.468  0.0504  0.1522 -0.2661
31974W        W45388  11.079  11.334   0.747  0.1563  0.0563 -0.1192
31975W        W45389   9.449   4.757  12.615  0.3710  0.2830  0.1822
31976W        W45390  11.853   1.125  14.215  0.0838  0.0985 -0.1494
31977W        W45391  13.950  12.718  12.500 -0.0811  0.1872 -0.1925
31978W        W45392   1.961  17.335  11.301  0.1360 -0.0916 -0.0764
31979W        W45393   0.855   1.661  12.936 -0.3651  0.0353  0.1609
31980W        W45394  16.729   4.794   5.491 -0.1131  0.0255  0.2224
31981W        W45395  14.809  14.719   2.790  0.4719 -0.0641  0.1626
31982W        W45396   7.437  13.282   3.269 -0.1822  0.0528  0.2644
31983W        W45397  11.889   6.756  13.428  0.1407 -0.1264 -0.1024
31984W        W45398  11.422  11.493   1.608 -0.2538  0.0233  0.1198
31985W        W45399   8.209   1.673  14.927  0.1016  0.3095  0.0395
31986W        W45400   7.628  10.610   4.612  0.1078  0.4344 -0.0269
31987W        W45401   3.424  10.300  14.369  0.1145 -0.0697 -0.1305
31988W        W45402  16.141   6.818   3.505 -0.2518 -0.4688 -0.2933
31989W        W45403   7.163  12.083  14.033  0.4178  0.0078 -0.0342
31990W        W45404  16.438  14.746  10.732 -0.0462 -0.1737 -0.0493
31991W        W45405  17.775   0.718  14.400  0.0019 -0.1144 -0.0607
31992W        W45406   0.922  12.659   0.195  0.4544  0.0087  0.0205
31993W        W45407   4.766   2.241  14.035  0.0900 -0.0259  0.0850
31994W        W45408  16.563  13.375   3.044  0.1358 -0.2373 -0.1255
31995W        W45409   0.049  15.458  12.758 -0.1098 -0.4944 -0.0638
31996W        W45410   7.774   8.226   0.216 -0.1818  0.2495  0.3041
31997W        W45411  10.672  15.541  13.849  0.0691  0.0393 -0.1074
31998W        W45412   6.930   8.192  13.031 -0.3949  0.3746 -0.0951
31999W        W45413   5.726  15.021  13.975 -0.1747  0.0048  0.3694
32000W        W45414   2.566   5.672  11.639 -0.0511  0.0099  0.0540
32001W        W45415   4.891   0.226  12.123 -0.3693 -0.0726 -0.1246
32002W        W45416   8.700   3.426  14.262 -0.1298  0.2148 -0.3331
32003W        W45417   5.758   0.449  12.999 -0.0977  0.4191  0.0829
32004W        W45418  16.041  17.027  15.290 -0.0735  0.0257  0.1498
32005W        W45419   0.953  12.681   6.170 -0.1247  0.0487  0.0003
32006W        W45420   8.094  16.990  10.452 -0.6417 -0.0675 -0.1556
32007W        W45421   5.204  18.383  14.682  0.0766 -0.3223 -0.0520
32008W        W45422   6.560  11.540   0.584 -0.0776 -0.1822 -0.1452
32009W        W45423   4.829  12.202  14.037  0.0823  0.0118  0.2196
32010W        W45424   8.578   3.559  10.928  0.0484 -0.0442  0.1026
32011W        W45425   3.953  18.214  15.454  0.2649  0.0174  0.0671
32012W        W45426   3.143   8.472  16.137 -0.0319 -0.2130 -0.0049
32013W        W45427  18.230   9.138  14.779  0.2412  0.0371 -0.1623
32014W        W45428  13.666   8.730  12.154  0.0181  0.1670 -0.0269
32015W        W45429  15.348  16.556   3.343 -0.0119  0.2566 -0.0215
32016W        W45430   8.314   4.283   0.345  0.1356  0.1713  0.3044
32017W        W45431   3.288   0.411   0.829  0.2237  0.0196 -0.1258
32018W        W45432  13.016  14.678   9.938  0.2145  0.0997 -0.1367
32019W        W45433  18.166  16.496   4.116  0.0998  0.0502 -0.0217
32020W        W45434   8.666   8.050  13.641  0.2569  0.0322 -0.2665
32021W        W45435   6.087  18.071   6.697  0.0588 -0.0265 -0.0512
32022W        W45436   3.659   8.889  16.134  0.0744  0.1742 -0.2377
32023W        W45437  13.940  15.149   3.498 -0.0083 -0.1360  0.3572
32024W        W45438  13.890   3.454   2.466  0.3271 -0.0154 -0.1417
32025W        W45439  13.877   2.793  14.218 -0.0635  0.0761  0.2802
32026W        W45440  15.599   4.066   4.695 -0.1922  0.0324  0.0487
32027W        W45441   0.694  14.306  11.179 -0.2912  0.1321  0.3452
32028W        W45442  17.273  15.819  13.765 -0.0885 -0.2159 -0.0074
32029W        W45443  15.313   0.160  10.464 -0.2284  0.1079  0.0060
32030W        W45444  10.198   7.401  14.557  0.2731 -0.0276 -0.0647
32031W        W45445   3.699  13.013  15.706 -0.0148  0.4178 -0.3220
32032W        W45446   1.748  10.023  12.769  0.1338  0.0997 -0.3745
32033W        W45447  16.018  14.846  12.078 -0.1663  0.0362 -0.1447
32034W        W45448  12.478  15.831  16.174  0.0806  0.1422  0.1100
32035W        W45449   0.719   5.491  15.904  0.0552 -0.3008  0.0435
32036W        W45450   1.987   1.506  13.414 -0.1285 -0.0625  0.1625
32037W        W45451  16.655   7.121  13.479 -0.2636 -0.1595  0.3150
32038W        W45452  12.932  13.748   1.809 -0.2312  0.1342 -0.2410
32039W        W45453   3.411  13.166   0.413  0.1002 -0.2650  0.0332
32040W        W45454  11.215   6.427  15.715  0.0646  0.3081 -0.1784
32041W        W45455   3.210  15.183  15.600  0.1737 -0.1600 -0.0409
32042W        W45456   8.966  14.653  12.352  0.0275 -0.1561  0.2197
32043W        W45457  15.309  14.949   9.717 -0.1211 -0.6158  0.1165
32044W        W45458  17.254  10.846  13.265  0.1231 -0.0415 -0.0911
32045W        W45459   4.542  12.232   4.574  0.1381 -0.1283  0.3522
32046W        W45460  11.807   6.919   2.278  0.0577  0.2463 -0.1017
32047W        W45461  12.227  15.954   4.303 -0.1712 -0.1468  0.2629
32048W        W45462   7.629   2.899   1.241  0.1291 -0.0138  0.4139
32049W        W45463  17.369   5.407   4.851 -0.0784 -0.0659 -0.1143
32050W        W45464   7.423   6.380  15.164 -0.0833  0.0960  0.0917
32051W        W45465   5.432  13.972  11.526 -0.2485 -0.1567  0.1517
32052W        W45466  17.440  13.044  14.654 -0.1067  0.2295 -0.0610
32053W        W45467  10.925   9.351  15.820 -0.1382  0.1375  0.2123
32054W        W45468  15.280   5.405  12.933 -0.0026 -0.3069 -0.0318
32055W        W45469   5.012  11.619   4.204  0.1225 -0.2156 -0.1238
32056W        W45470  14.760  12.958  16.108  0.3456  0.3211  0.2378
32057W        W45471   8.738   9.353   3.847 -0.1371  0.1411 -0.0142
32058W        W45472  14.464  10.200   0.960  0.2711 -0.0857  0.1030
32059W        W45473   9.311   6.154  13.272  0.0655  0.0649  0.0847
32060W        W45474   0.912   6.899   0.942  0.1623  0.1655  0.1222
32061W        W45475  15.895  17.020   3.459  0.2447  0.1917 -0.2452
32062W        W45476   1.290   7.676  12.653  0.1608  0.2900  0.0904
32063W        W45477  10.869   4.353   3.551 -0.1946  0.1337 -0.2176
32064W        W45478  11.509  10.908   0.754  0.3111 -0.0174 -0.0429
32065W        W45479   0.565   9.778  13.579  0.1368 -0.0566  0.0339
32066W        W45480   1.711  16.675   5.065  0.1400  0.0130 -0.3607
32067W        W45481   2.467   6.692  13.729 -0.1374 -0.0523  0.0196
32068W        W45482   9.014  15.455  10.183 -0.1476  0.0272 -0.2190
32069W        W45483   2.475  12.360  15.485 -0.1245  0.2083 -0.1329
32070W        W45484  16.754  17.205  13.114 -0.1278 -0.1846  0.0393
32071W        W45485  13.135  13.602   0.887 -0.0417 -0.1905 -0.1194
32072W        W45486   9.774  12.486   2.314  0.0885  0.2517 -0.1197
32073W        W45487  16.569   1.795   1.637  0.2236  0.0160  0.0467
32074W        W45488  16.735   0.450   1.548 -0.4391 -0.2868 -0.0689
32075W        W45489   8.762   5.404   1.198  0.2906  0.0029 -0.0195
32076W        W45490  10.284  16.247  13.166  0.0040 -0.0429  0.0158
32077W        W45491  10.565  15.033  13.957  0.1069  0.3197  0.1436
32078W        W45492   9.900  13.720   5.316  0.2983  0.0221 -0.0367
32079W        W45493   0.383  12.866  12.894  0.2672  0.0489  0.2487
32080W        W45494   5.800   7.290   5.355 -0.0937  0.2110 -0.3224
32081W        W45495  10.726  16.629  12.972  0.1002 -0.1806  0.0125
32082W        W45496  17.630  14.435   5.621  0.0314  0.0594 -0.1531
32083W        W45497   7.186  14.651   2.630 -0.2027  0.1188 -0.0174
32084W        W45498  15.206   7.894   0.311 -0.0917  0.0478  0.2063
32085W        W45499   9.544   5.854  12.418 -0.0511  0.0493  0.1698
32086W        W45500  14.759   6.011   3.753 -0.0629  0.1505  0.0058
32087W        W45501  13.379   6.932  14.852  0.1160  0.1717 -0.0503
32088W        W45502  10.275   1.401  10.383  0.2001 -0.3724 -0.3193
32089W        W45503  11.156  13.518   2.429  0.0765 -0.1559  0.3078
32090W        W45504   4.028  17.360  15.246  0.2237 -0.0562 -0.2670
32091W        W45505   2.732  15.522  15.553 -0.0090  0.0377 -0.2741
32092W        W45506   5.453   0.104  15.285 -0.0905 -0.1938 -0.2407
32093W        W45507  10.342   7.178   3.531  0.1267  0.0456 -0.1188
32094W        W45508  16.621   7.485  14.467  0.0646  0.0315 -0.1250
32095W        W45509  13.855  12.917   1.799  0.2554 -0.1513  0.0080
32096W        W45510   3.560   1.169  11.737  0.0971 -0.0926 -0.0797
32097W        W45511  12.440  14.274  13.493 -0.1286 -0.2645  0.0706
32098W        W45512   1.100  16.903  11.055 -0.0661 -0.1225 -0.0374
32099W        W45513  15.165  15.131   4.323 -0.0530 -0.1195  0.0332
32100W        W45514   4.599   5.256  10.875 -0.0445  0.0460 -0.2532
32101W        W45515  14.882   8.873   5.668  0.2155  0.2215 -0.1389
32102W        W45516  14.096   0.566   1.342 -0.2315 -0.0999  0.1446
32103W        W45517  10.100   4.431  10.179 -0.1862  0.1784  0.0815
32104W        W45518   0.806   1.572  12.141  0.1937 -0.2317 -0.4959
32105W        W45519   0.805  11.714   1.366 -0.0581 -0.0723  0.0779
32106W        W45520  10.334  12.133  15.876 -0.3370  0.0918 -0.2097
32107W        W45521   7.863  16.998  14.734  0.0527  0.2573 -0.0899
32108W        W45522   6.145   3.996   2.329  0.0677  0.2282 -0.0766
32109W        W45523  11.379   6.498   4.082  0.2112 -0.4664  0.0781
32110W        W45524  16.103   0.799   0.702 -0.0494 -0.3676  0.2138
32111W        W45525   4.403   9.604  14.047 -0.3257  0.2443 -0.1629
32112W        W45526  12.870  15.672  13.668 -0.0322  0.2125 -0.0985
32113W        W45527  17.826  13.734   5.042  0.1277  0.0040 -0.1705
32114W        W45528  12.128  11.879   0.308  0.2265  0.3731  0.1463
32115W        W45529   6.437   3.238  10.580  0.0405 -0.0364  0.3165
32116W        W45530   0.558   4.447   1.489 -0.2215  0.0874 -0.2589
32117W        W45531  14.708   1.098  10.645  0.1250  0.0484 -0.1219
32118W        W45532   6.295   2.834  11.719 -0.1556 -0.1089 -0.1138
32119W        W45533  13.827  16.980  10.272  0.0018 -0.0939  0.3204
32120W        W45534  10.992   1.264   2.388  0.2728 -0.2161  0.1473
32121W        W45535  17.370   5.581  13.287 -0.2649 -0.1213 -0.0559
32122W        W45536   7.843   0.291  14.301  0.2621  0.1106 -0.2229
32123W        W45537   4.807   6.626  11.890  0.0082  0.0446  0.1389
32124W        W45538   2.287   1.479  13.874  0.0747  0.1583  0.0504
32125W        W45539   3.127  18.102   1.706  0.0267 -0.0137 -0.1192
32126W        W45540  15.084  18.022   5.856  0.0391 -0.0689 -0.0041
32127W        W45541  16.828   1.407   1.334 -0.1082 -0.0259 -0.2004
32128W        W45542  11.587   9.188   4.394  0.2325 -0.1218  0.1229
32129W        W45543   0.240   5.281   2.887  0.0187 -0.3597 -0.1385
32130W        W45544   5.441  15.192  14.374  0.5408 -0.0521 -0.1423
32131W        W45545   5.158  13.909  11.034 -0.0224 -0.0290  0.2790
32132W        W45546   6.191   1.901  14.683 -0.0457  0.2809 -0.1834
32133W        W45547  10.052  17.473  11.927  0.0625 -0.1022 -0.0007
32134W        W45548   2.031  13.497   3.568  0.3240 -0.0670 -0.5055
32135W        W45549   9.122  15.131  12.627 -0.0569  0.0852 -0.2904
32136W        W45550   3.467  10.067   3.302  0.0532 -0.0326  0.1526
32137W        W45551  10.290   9.225   5.937  0.0943  0.2147  0.0047
32138W        W45552  15.098  13.561   3.182 -0.1629  0.0593 -0.0902
32139W        W45553  17.524  13.355  15.201 -0.3666  0.0072 -0.1366
32140W        W45554   7.709   7.856  10.788 -0.1960 -0.4559  0.0134
32141W        W45555   2.444  11.128   1.196  0.0718 -0.1113  0.1152
32142W        W45556   0.033   7.573   2.173 -0.4658  0.0746 -0.1037
32143W        W45557   2.387  15.794   0.068  0.3868 -0.3222  0.1964
32144W        W45558   7.033   8.712   2.065  0.0316  0.1957  0.1164
32145W        W45559   3.744   5.931  13.626  0.1411  0.1736  0.1023
32146W        W45560   5.514   9.406   0.142 -0.1500 -0.1768  0.1081
32147W        W45561  10.063  12.228   4.035  0.2300  0.1065 -0.0576
32148W        W45562   6.888   2.593  13.182 -0.3102 -0.1240  0.1076
32149W        W45563   1.276  13.821   3.416  0.3307  0.0550 -0.2084
32150W        W45564   7.416   5.089  10.490  0.2129  0.0283  0.1063
32151W        W45565  11.633   4.169   4.569 -0.3349 -0.1462 -0.4263
32152W        W45566  15.481   1.270   4.067 -0.0834 -0.0140 -0.0970
32153W        W45567  14.272  15.990   3.504 -0.1237  0.0376 -0.3442
32154W        W45568   7.478   6.629  14.624 -0.0404 -0.0645  0.1262
32155W        W45569   0.186  11.036   6.433  0.0010 -0.1114  0.1509
32156W        W45570  11.642   0.795  10.963 -0.0216 -0.1697  0.0254
32157W        W45571   5.471   4.532   3.536 -0.0272  0.1166  0.1395
32158W        W45572   6.630   1.518  10.580  0.2218 -0.4307  0.0710
32159W        W45573  18.310   4.397  14.621  0.1184 -0.1022  0.0002
32160W        W45574   0.442   1.050   4.970 -0.0381 -0.0756 -0.0295
32161W        W45575   9.356   1.020   5.352 -0.1230 -0.2031  0.1470
32162W        W45576   7.889   3.291  15.673 -0.1698  0.1176  0.0202
32163W        W45577   8.509   3.063   0.968  0.1766 -0.1141  0.2209
32164W        W45578  16.087   8.339   2.782  0.1607  0.2480  0.1585
32165W        W45579   3.905  14.660  13.286 -0.1145  0.1908 -0.0525
32166W        W45580   8.232  17.471  15.608  0.4551  0.1237  0.3961
32167W        W45581   1.849   5.824   1.001 -0.1903 -0.3281 -0.0723
32168W        W45582   1.958   7.983  13.666  0.1006 -0.2513 -0.1953
32169W        W45583  11.227  17.029   2.213  0.1991  0.0653  0.1708
32170W        W45584   0.424   4.353  14.511  0.1475  0.0211 -0.1010
32171W        W45585   1.617  12.285  12.739  0.0715 -0.1418 -0.5492
32172W        W45586  17.447   8.103   6.233 -0.1709 -0.3202  0.0586
32173W        W45587   8.205  17.589   3.440  0.2746  0.3704  0.6692
32174W        W45588   1.408   7.512  15.978  0.1815  0.1398 -0.1508
32175W        W45589  15.128   4.871   4.005  0.1581  0.1768 -0.0308
32176W        W45590   5.517  12.529  11.019 -0.1238  0.2958  0.0665
32177W        W45591   0.606   5.591  11.823  0.1538  0.0371  0.1395
32178W        W45592   8.532  16.252   2.296  0.1411  0.1300 -0.0042
32179W        W45593   2.500  17.937   3.216 -0.1655  0.2008 -0.4569
32180W        W45594   6.675  11.458   3.128 -0.3314 -0.2770  0.1092
32181W        W45595   5.284  12.244  15.200 -0.2097  0.1537 -0.2748
32182W        W45596   9.031   8.234   1.116 -0.0662  0.0343 -0.1546
32183W        W45597   3.274   8.614   1.672 -0.2269 -0.1404  0.0662
32184W        W45598   9.871  12.652   4.245  0.1279  0.0270 -0.1321
32185W        W45599   9.852   6.748  13.124  0.0505 -0.3270 -0.0212
32186W        W45600  11.593  17.684   4.346  0.1998  0.0185  0.2296
32187W        W45601  16.803   3.980  12.270  0.1822  0.1175  0.5815
32188W        W45602   5.649   7.377  11.193 -0.0743  0.0032  0.1764
32189W        W45603  14.515   7.090  14.557  0.1224  0.0865  0.1333
32190W        W45604  11.543   5.742  14.251 -0.0245 -0.0690 -0.4260
32191W        W45605  11.562  10.295   3.159  0.0494 -0.1864 -0.1039
32192W        W45606   4.171   1.739   2.221 -0.0029  0.0704 -0.2430
32193W        W45607  11.105   2.157  12.609  0.1298 -0.0946 -0.3095
32194W        W45608   1.281   6.912  12.032 -0.0952 -0.4194 -0.1394
32195W        W45609   4.358   3.934   4.558  0.3631 -0.2330 -0.5948
32196W        W45610   6.335  10.103   2.036  0.1156  0.0975 -0.0779
32197W        W45611   2.767   4.351  16.106 -0.0053  0.2234 -0.0007
32198W        W45612   2.905  15.176  13.251 -0.0946 -0.0013  0.0086
32199W        W45613   9.695  12.838  12.425 -0.0228  0.0046 -0.3718
32200W        W45614   5.305  14.352  11.803  0.0906  0.0137 -0.0443
32201W        W45615   5.718   8.239  10.922 -0.1249 -0.0612 -0.2278
32202W        W45616   6.916   7.034   1.433  0.3020 -0.0037  0.0905
32203W        W45617   7.259   5.596  10.601 -0.0331 -0.0493  0.0592
32204W        W45618   0.792   4.855  11.234 -0.0536 -0.0996 -0.1589
32205W        W45619   2.428   6.755  10.678  0.0262 -0.2073  0.2483
32206W        W45620   0.282   9.690   0.888 -0.1887 -0.0192 -0.1908
32207W        W45621  16.858  11.198  10.884  0.2387 -0.1337  0.2733
32208W        W45622   1.462  14.660  13.088  0.3813 -0.6628  0.0098
32209W        W45623   7.412  16.282  13.772 -0.0183 -0.0411 -0.0360
32210W        W45624  16.752   8.408  13.078  0.3847  0.0603 -0.0001
32211W        W45625  18.019   2.186  12.831 -0.0253  0.2733  0.1031
32212W        W45626   6.471  12.263   6.117  0.0676  0.0156 -0.1225
32213W        W45627   5.926  13.420  16.269  0.1984  0.0519  0.0440
32214W        W45628  16.504   0.030   5.676 -0.2192  0.1699  0.0801
32215W        W45629   2.748   8.012   4.742  0.2152  0.0687 -0.1080
32216W        W45630  15.272  12.035   1.190 -0.2174 -0.2133 -0.1088
32217W        W45631  14.877  13.764   4.402 -0.3424  0.3016  0.2119
32218W        W45632   2.740   9.245  11.838 -0.0457 -0.4500 -0.0336
32219W        W45633  17.709  11.369  11.286  0.0324  0.2188  0.3753
32220W        W45634  17.140  11.997   3.936  0.0478  0.1521 -0.0411
32221W        W45635  14.863   8.227  11.728 -0.0706  0.0070 -0.2455
32222W        W45636  10.565   4.191  12.503  0.2120 -0.1360 -0.1927
32223W        W45637  11.744  17.869  16.232  0.2397 -0.1707  0.0924
32224W        W45638   4.166  16.287  13.960 -0.0802  0.0523 -0.0881
32225W        W45639  15.700   2.632  13.455  0.1989 -0.1145  0.2471
32226W        W45640   3.948  10.759   5.497 -0.1140 -0.2885 -0.2356
32227W        W45641  15.378  12.194   4.343  0.0259  0.1279  0.0220
32228W        W45642   5.322   2.677   4.631  0.2906 -0.2615  0.1651
32229W        W45643   1.138   3.738  11.662  0.2011  0.0906  0.1642
32230W        W45644   1.268  15.266  13.873  0.0262 -0.0669 -0.0435
32231W        W45645   4.212   1.178  12.157  0.1946  0.0356 -0.1484
32232W        W45646   4.479  10.959   1.575 -0.4097  0.0722 -0.1599
32233W        W45647  17.703  11.747   0.385 -0.0270  0.2440 -0.0749
32234W        W45648   5.656   6.225   2.830  0.0726  0.4779  0.0223
32235W        W45649   3.084   1.173  11.846 -0.0703  0.2074 -0.0406
32236W        W45650   4.348  11.177   4.184 -0.1446 -0.3514 -0.3346
32237W        W45651  10.305  18.391  12.417  0.0895 -0.0676 -0.0798
32238W        W45652  15.244   1.073  16.261  0.0627 -0.1087 -0.0459
32239W        W45653  17.668  13.268   0.699 -0.0999  0.1837 -0.0365
32240W        W45654   4.893  13.844   4.314  0.3517 -0.3051 -0.0603
32241W        W45655  13.705   0.228   2.705  0.2841  0.1661 -0.0080
32242W        W45656  16.938   1.712  13.696 -0.1985 -0.4735  0.0521
32243W        W45657   1.815  13.708   2.496 -0.3794 -0.0353 -0.1558
32244W        W45658   3.701   4.887   3.201 -0.3198 -0.1524  0.0322
32245W        W45659   6.946   3.588   5.487  0.1636 -0.0396  0.3052
32246W        W45660  17.917  11.744   1.563  0.1241 -0.0792  0.2280
32247W        W45661   6.456   5.593   3.703 -0.0608  0.0148  0.0629
32248W        W45662   7.009  13.339  16.205 -0.0595 -0.2108 -0.3054
32249W        W45663   0.830  12.799   4.254 -0.0193  0.0350 -0.2026
32250W        W45664  11.902  12.227  11.403 -0.0053  0.1590 -0.3646
32251W        W45665   9.283  13.336  11.608  0.0337 -0.0571  0.0766
32252W        W45666   3.961  13.392  16.004 -0.0482  0.1625  0.1649
32253W        W45667   7.498   9.632  14.086  0.2239  0.0601 -0.0557
32254W        W45668   4.776  15.561  14.950  0.0789 -0.2096  0.0308
32255W        W45669   3.331   2.307   4.121 -0.0709 -0.0501  0.0927
32256W        W45670   0.856   0.965  15.291  0.0107  0.1403  0.2347
32257W        W45671  10.793  16.159   4.089 -0.2425  0.0377 -0.1588
32258W        W45672   8.247  13.451   1.779 -0.0739  0.0332 -0.3225
32259W        W45673   8.649   5.948   4.474  0.1767  0.0240 -0.0783
32260W        W45674   6.397  18.003  12.788  0.0828  0.0358  0.3116
32261W        W45675  15.534   2.728  12.493  0.1646 -0.0140 -0.0255
32262W        W45676  15.291  13.545  12.486  0.3311 -0.1717 -0.0060
32263W        W45677   9.363   2.065  14.170  0.0931  0.1127  0.0502
32264W        W45678  13.032  12.403   6.083  0.1642  0.1896  0.1265
32265W        W45679  16.881  16.773   0.516  0.0297  0.1595 -0.2441
32266W        W45680  16.085  14.889   1.486 -0.1930 -0.0906 -0.0062
32267W        W45681  12.476   6.528   0.935 -0.1366 -0.0225  0.1290
32268W        W45682  18.430  12.346   2.702  0.0129 -0.2734  0.0597
32269W        W45683  16.077   4.466   1.751 -0.2342 -0.0292  0.0628
32270W        W45684  11.555   7.579   1.839 -0.0051 -0.2471  0.2955
32271W        W45685  10.813  11.989   2.900  0.1290 -0.0334  0.1338
32272W        W45686  12.164  17.441  16.043 -0.0330 -0.1531  0.0398
32273W        W45687   9.291   4.128  10.823  0.1315  0.2185  0.1915
32274W        W45688   4.458   9.593  15.234  0.0975  0.2899  0.0621
32275W        W45689  15.052  16.581  12.986 -0.0336  0.2125 -0.0856
32276W        W45690  10.327   8.591  10.210 -0.0148  0.0550  0.2534
32277W        W45691  17.841   7.630   1.809  0.0618 -0.0411  0.1405
32278W        W45692   5.348   3.173   9.956  0.4977  0.1981 -0.0268
32279W        W45693   8.718   4.275   3.427 -0.0906 -0.2801 -0.2670
32280W        W45694  14.480   4.630   5.684 -0.2803  0.0252 -0.0430
32281W        W45695   2.671   6.414   1.651  0.0766  0.0912  0.4299
32282W        W45696   8.677  10.193   4.978 -0.0066  0.0747  0.0187
32283W        W45697   3.409  13.203   3.407 -0.0291 -0.0820 -0.0167
32284W        W45698   6.319   6.890  10.212 -0.2002 -0.2469  0.0005
32285W        W45699   6.721   5.214  15.831 -0.0096 -0.1159 -0.0626
32286W        W45700  15.204   2.474   3.234 -0.2003 -0.0628  0.0438
32287W        W45701  17.514   8.641  12.413  0.1509 -0.1251 -0.4061
32288W        W45702  12.194  17.893   4.971 -0.2399  0.0569  0.0060
32289W        W45703   1.427   8.051  13.781 -0.2235  0.0144 -0.2518
32290W        W45704   5.990  13.048  13.992 -0.1286 -0.3430  0.3945
32291W        W45705   8.287   6.669   0.042 -0.1493 -0.0255  0.2550
32292W        W45706   1.168   9.990   4.810  0.0571 -0.2890 -0.0889
32293W        W45707   3.865  14.005   1.124  0.1090  0.1227  0.0999
32294W        W45708   4.714  10.149   5.132 -0.1380  0.4688 -0.4137
32295W        W45709  16.948   5.448   6.210  0.1922  0.0679 -0.2220
32296W        W45710  16.981  11.751   5.856  0.2311  0.1311 -0.3820
32297W        W45711   2.451  12.577   1.492 -0.2569 -0.1426 -0.1708
32298W        W45712   2.846   3.638   4.675  0.0835 -0.2372 -0.1497
32299W        W45713  16.011   9.350   2.378 -0.0381  0.0494  0.1383
32300W        W45714  16.577   4.393  11.890  0.1418 -0.0759 -0.1814
32301W        W45715  15.593  17.448   0.706 -0.1793 -0.2170 -0.2129
32302W        W45716   5.037  16.616  14.043 -0.1118  0.3965  0.1841
32303W        W45717  17.426  15.418   3.700 -0.1562  0.0617 -0.0140
32304W        W45718   7.189   4.543  13.921 -0.0965  0.0498 -0.0873
32305W        W45719   5.173   2.368   3.729  0.1545  0.0462  0.1528
32306W        W45720  14.706   8.966   2.174 -0.0156  0.0631 -0.0814
32307W        W45721   0.717   4.161  14.892  0.2270 -0.0517  0.1073
32308W        W45722   7.052   0.915   2.415 -0.0189  0.0414 -0.0310
32309W        W45723  14.688   6.022  13.004  0.1510 -0.0382  0.1224
32310W        W45724  12.707  10.748   0.115 -0.0356 -0.0220 -0.1768
32311W        W45725  13.785   9.329  10.448 -0.3198 -0.0795  0.1123
32312W        W45726  13.328   3.633  10.814 -0.2639 -0.3162  0.1936
32313W        W45727   4.188   3.840   5.388 -0.0747 -0.2211  0.1813
32314W        W45728   4.430   5.013  15.479  0.2542 -0.1359 -0.3164
32315W        W45729  10.160  10.642   1.524 -0.1566  0.0110 -0.0853
32316W        W45730   6.949  12.887   0.700  0.1726  0.0294  0.0173
32317W        W45731   4.703   9.565   5.710  0.0587  0.1470  0.0829
32318W        W45732  13.212   8.293  10.933 -0.1484  0.0587  0.0817
32319W        W45733  14.817   0.936   3.123 -0.3836 -0.2414  0.3195
32320W        W45734   9.503   5.607  11.334  0.1006  0.1961  0.2156
32321W        W45735   0.267  14.709  14.883  0.1510 -0.0546 -0.1350
32322W        W45736   0.097   1.187   1.545 -0.2383  0.1262  0.3480
32323W        W45737   7.559   0.947   5.957 -0.4782  0.1709 -0.0772
32324W        W45738  16.197   3.409   5.292  0.0535 -0.2088  0.2289
32325W        W45739  13.556  14.115   4.735 -0.2537 -0.3121  0.0030
32326W        W45740  12.552   9.224   4.198 -0.1696 -0.0977  0.0979
32327W        W45741  17.067   8.841   0.305 -0.2001  0.0649 -0.2152
32328W        W45742  18.253   5.459  13.261  0.0959  0.0549 -0.2703
32329W        W45743   1.090  14.394   0.192  0.2593 -0.4450 -0.1410
32330W        W45744  10.104   9.676  14.257 -0.0745 -0.2519 -0.1270
32331W        W45745   7.684  11.749   6.041  0.0289  0.1521  0.0562
32332W        W45746  12.263   8.108   2.997 -0.1933  0.2299 -0.1555
32333W        W45747   7.958  11.520   0.669 -0.1726 -0.1674  0.0907
32334W        W45748   3.686  14.686   1.748 -0.1386 -0.1799  0.1292
32335W        W45749  15.779   6.661   6.055 -0.1492 -0.0642  0.0752
32336W        W45750   9.844   2.993  14.551 -0.0310  0.1725 -0.0369
32337W        W45751  18.039  10.709   5.333  0.0109  0.1260  0.1153
32338W        W45752   9.696   3.674   1.627  0.1121  0.2409  0.1899
32339W        W45753   0.248   7.767  13.565  0.2140 -0.0863  0.1142
32340W        W45754  14.748  12.168  12.204 -0.1380  0.1077 -0.2852
32341W        W45755   0.721   4.401  16.038 -0.0988  0.0034 -0.0843
32342W        W45756   0.891  18.206   2.366  0.1300  0.0080 -0.0561
32343W        W45757   4.836  10.946   1.217 -0.1794  0.2421  0.1224
32344W        W45758   2.380   5.041   5.334  0.4542 -0.0642 -0.2505
32345W        W45759  12.658   1.195  15.732  0.0130 -0.4404  0.1459
32346W        W45760  14.204  18.096   1.637 -0.0301  0.1010  0.2307
32347W        W45761  15.508   5.060  14.936 -0.0517 -0.0300  0.2167
32348W        W45762   4.122   0.622   5.125 -0.1030  0.2840  0.2080
32349W        W45763  17.524   4.888   5.090  0.0745 -0.1503  0.1573
32350W        W45764  16.392  15.137  15.194  0.2550  0.0461  0.0420
32351W        W45765  15.505  17.416  16.091  0.2173  0.1910  0.0859
32352W        W45766  10.020   5.344  14.767 -0.0530  0.1357 -0.3628
32353W        W45767  15.480  13.391   2.319 -0.0367  0.1202  0.0270
32354W        W45768   3.993   0.874   5.603 -0.3952  0.2806  0.0353
32355W        W45769  13.076  11.009   0.352  0.0191  0.0918  0.1971
32356W        W45770  15.355   5.947   2.820  0.1262 -0.1135 -0.4030
32357W        W45771  13.853   2.121   3.733  0.0764  0.1859 -0.2589
32358W        W45772  17.022  14.182   4.827  0.1615 -0.1444 -0.0447
32359W        W45773   0.794   6.546   3.950 -0.0530 -0.3001  0.0956
32360W        W45774   6.236   9.765   9.658  0.0490  0.2037 -0.1555
32361W        W45775   3.831  13.838   3.452  0.1164  0.4706  0.0343
32362W        W45776  12.861  16.364  10.901  0.0924 -0.1525 -0.3604
32363W        W45777  14.061  10.981  13.421 -0.1620  0.1231  0.0896
32364W        W45778   5.106   2.560  12.227  0.1065 -0.0952  0.1599
32365W        W45779   5.767   5.816  12.386  0.0590 -0.2230  0.1193
32366W        W45780  10.241  15.146  11.698  0.0799  0.2757  0.0941
32367W        W45781   4.674   5.010  14.876 -0.2424 -0.0789  0.1731
32368W        W45782  10.114  11.944  12.753  0.1585  0.0842  0.0904
32369W        W45783  12.372   5.927  15.412 -0.0814  0.2252 -0.0850
32370W        W45784  16.572   4.891  12.542 -0.1214 -0.0925  0.0255
32371W        W45785   7.324   4.892   1.261  0.3268 -0.1124 -0.2296
32372W        W45786  14.859   7.995   1.067  0.1001  0.1996  0.1032
32373W        W45787   5.996  11.396   3.142  0.1787  0.1511 -0.2758
32374W        W45788  11.436  16.444   2.862  0.3258  0.1026  0.1748
32375W        W45789  11.193  17.171  14.275 -0.0238 -0.1496  0.0879
32376W        W45790   4.759  12.728   4.872  0.0877  0.1298  0.0645
32377W        W45791  10.329   6.811  13.167  0.0292  0.2322 -0.3099
32378W        W45792  11.342  17.208  13.757 -0.1177 -0.1095 -0.1230
32379W        W45793   0.221  13.972  11.954  0.0625  0.2939  0.1898
32380W        W45794  14.014  12.430   2.815 -0.1376  0.1336  0.0235
32381W        W45795  14.903  14.989   2.259  0.1226  0.0982 -0.2129
32382W        W45796  13.768  17.101   2.954 -0.2842 -0.1658 -0.3005
32383W        W45797  18.008  18.170  14.060 -0.0044 -0.0491 -0.2343
32384W        W45798   4.310   0.824  11.719 -0.2782  0.1262  0.3501
32385W        W45799  12.947  15.928   4.926 -0.2543  0.1890 -0.1184
32386W        W45800  16.941  10.477  10.403 -0.0100  0.0522  0.1458
32387W        W45801   0.220   0.363   1.230  0.0037  0.2684 -0.0256
32388W        W45802  16.616  12.949  15.608  0.0783  0.4705  0.0220
32389W        W45803   4.796   8.373   0.945  0.1855 -0.3161  0.2894
32390W        W45804   4.232   6.334   3.420 -0.1330  0.2560 -0.0081
32391W        W45805  17.187   1.308   5.392  0.0234  0.2591  0.1732
32392W        W45806  13.588  11.957  10.279 -0.2813 -0.1404  0.6370
32393W        W45807  10.456  14.039  12.390 -0.1967  0.1016  0.1280
32394W        W45808  14.078   2.530  15.978 -0.2876  0.1498  0.0488
32395W        W45809   5.375  10.832   0.230 -0.1223 -0.0654  0.1419
32396W        W45810   5.620  16.761  10.826  0.2388  0.3577  0.0697
32397W        W45811   0.471   3.878   2.453 -0.2319  0.0717 -0.1010
32398W        W45812  11.185  14.626  16.214 -0.1136 -0.1154  0.0584
32399W        W45813   6.900  12.088  15.892  0.0765 -0.3442 -0.1727
32400W        W45814   7.345   5.182   1.710  0.1815  0.1524  0.0640
32401W        W45815  12.415   6.409   1.892 -0.0024 -0.1143  0.1118
32402W        W45816   8.875  12.915  11.357  0.0177 -0.1787  0.1018
32403W        W45817  17.287   9.320  14.444 -0.1644 -0.0232 -0.1626
32404W        W45818  11.152  16.204  10.912 -0.0636 -0.2456 -0.3460
32405W        W45819   9.997   0.405  10.273  0.2064 -0.3353  0.0517
32406W        W45820  15.505  10.911  15.589  0.0330 -0.0428 -0.1327
32407W        W45821  16.764   9.379  14.283 -0.0230 -0.2788 -0.0606
32408W        W45822  16.578  12.989  11.599 -0.2163 -0.2493 -0.1788
32409W        W45823   4.113   2.555  16.237 -0.1147  0.1364  0.3304
32410W        W45824   1.191  15.476  11.708 -0.0460  0.0867  0.0339
32411W        W45825  11.561   3.784  12.717  0.0379 -0.2681 -0.1849
32412W        W45826   9.621   9.580  15.231  0.2426 -0.3306 -0.2302
32413W        W45827   2.548   3.578   2.638 -0.0653 -0.0709 -0.3283
32414W        W45828   5.023   9.570  12.796 -0.2040 -0.0727  0.0184
32415W        W45829   6.367   9.989  14.260  0.0828  0.0193  0.1647
32416W        W45830   8.876   9.116  13.888  0.0871  0.0897 -0.0606
32417W        W45831   8.088   9.533  12.318  0.0957  0.0978  0.0697
32418W        W45832   4.279  13.941  11.086  0.4660 -0.0044  0.2240
32419W        W45833   3.122  17.785   1.278  0.3198 -0.0884  0.2273
32420W        W45834   2.415   2.578   3.837  0.1219 -0.0390  0.3371
32421W        W45835  13.546   5.621  15.116 -0.2559  0.1778 -0.1486
32422W        W45836   7.168  15.392  11.272 -0.0707 -0.0364 -0.0843
32423W        W45837   9.149   4.830   1.907  0.2685 -0.0052  0.2573
32424W        W45838   0.727  16.436   5.234  0.1565  0.1855 -0.1979
32425W        W45839  10.842  17.130  12.426 -0.1241  0.0263 -0.1348
32426W        W45840   2.290   7.182  10.483  0.0910 -0.2332 -0.0428
32427W        W45841  13.164  16.205   9.567 -0.0870 -0.0148  0.0105
32428W        W45842  17.418   3.519  11.431  0.1451  0.2547 -0.0330
32429W        W45843  11.588   5.983  15.362  0.3712 -0.1346  0.1673
32430W        W45844   9.157  15.233  15.600  0.1080  0.0172 -0.3099
32431W        W45845  14.297  10.280  15.726 -0.0164 -0.2887 -0.0616
32432W        W45846  10.945   8.024  16.209  0.4843  0.0021 -0.1140
32433W        W45847  18.051  10.848   0.696 -0.0444  0.2605  0.0215
32434W        W45848   7.827   4.568  11.690  0.1714  0.0972  0.1506
32435W        W45849  17.473   0.307   3.288 -0.0074  0.4041 -0.0269
32436W        W45850   5.479  12.078  12.078  0.1160 -0.1121 -0.3146
32437W        W45851   4.027  15.131   5.602 -0.1526  0.0971 -0.1420
32438W        W45852  13.642   3.670  15.907  0.2141  0.0638 -0.0012
32439W        W45853   1.525   1.855   0.965 -0.2104 -0.2875 -0.1409
32440W        W45854   6.663   2.527   4.461  0.0455  0.1191 -0.1378
32441W        W45855   8.203   1.041  10.181 -0.1955 -0.1121 -0.0508
32442W        W45856   3.572  16.389  13.179 -0.0722 -0.0263 -0.1422
32443W        W45857   7.465   4.747  14.513 -0.1648 -0.1552  0.1715
32444W        W45858  11.500  10.642  15.090  0.1551  0.0355  0.2522
32445W        W45859  15.981   5.184  12.146 -0.2453 -0.0015  0.0921
32446W        W45860  14.648   4.168   5.586  0.0459 -0.0173 -0.2181
32447W        W45861  10.077  11.976  13.729 -0.0768 -0.2631  0.1111
32448W        W45862   8.716  13.741  16.000 -0.1706 -0.0261 -0.2204
32449W        W45863  10.301  17.527  15.879  0.0288  0.1244  0.0755
32450W        W45864   9.673   9.473  15.767  0.0461 -0.3170  0.0227
32451W        W45865   7.972  12.221   2.128 -0.0178 -0.2469 -0.0546
32452W        W45866  12.730  14.308   6.328 -0.0996 -0.1327 -0.3433
32453W        W45867   6.959  10.694  14.500 -0.0920 -0.1850  0.0696
32454W        W45868  16.125   7.082   0.332 -0.1181  0.0251 -0.1221
32455W        W45869   4.262   5.240   5.750 -0.1388 -0.2131  0.2651
32456W        W45870  10.362  17.418   5.960  0.1754 -0.0056  0.1139
32457W        W45871   4.085   5.203   1.528  0.0465 -0.1367 -0.0831
32458W        W45872   2.256  17.579   2.452 -0.2333 -0.2533 -0.1284
32459W        W45873  16.527   4.769   1.793 -0.2140  0.3241  0.0591
32460W        W45874   1.700  17.109   4.160  0.1403 -0.1125  0.0314
32461W        W45875  16.565  15.378   4.073  0.1550  0.0121 -0.2242
32462W        W45876   1.025   6.769   3.495 -0.0107  0.3464 -0.0017
32463W        W45877   5.498  18.444  11.475 -0.3381  0.0168 -0.0806
32464W        W45878   3.812   0.121  12.578 -0.0813  0.1327 -0.0395
32465W        W45879   8.363  10.119   4.033  0.2130 -0.2722  0.1166
32466W        W45880   1.607   8.559  15.406  0.0184 -0.1191  0.2158
32467W        W45881  10.732  14.119   3.062  0.0238  0.0237  0.1558
32468W        W45882  17.603  17.808   0.439 -0.2480  0.0769  0.2001
32469W        W45883   4.219   0.809  12.549  0.2338 -0.2682 -0.3799
32470W        W45884  16.598   3.906  15.399 -0.0146 -0.3831  0.0435
32471W        W45885   8.509  13.792  10.410  0.1355 -0.2131 -0.1363
32472W        W45886  10.129  16.535  15.513  0.1229 -0.3448 -0.2489
32473W        W45887   3.311  12.428  12.003 -0.2077  0.2153 -0.3374
32474W        W45888  16.494  14.738   1.228 -0.1367  0.1460 -0.5136
32475W        W45889   0.368  14.573   2.113  0.0444 -0.2010 -0.1036
32476W        W45890  14.601   5.996  10.526  0.1533 -0.0860 -0.1194
32477W        W45891   1.496  17.859  14.324  0.0091 -0.1003  0.3143
32478W        W45892  10.014  15.483  11.183 -0.0680  0.0459  0.0644
32479W        W45893   7.586  10.451  13.876 -0.1514 -0.0539  0.0947
32480W        W45894  15.208  11.256  14.696 -0.0587 -0.0198 -0.1626
32481W        W45895   9.704   3.292  10.853 -0.0996 -0.1248 -0.1054
32482W        W45896   9.907  13.995  15.301  0.0679 -0.5592 -0.3078
32483W        W45897   2.642   2.146   1.519  0.0893  0.1692 -0.4146
32484W        W45898  16.602   9.022   5.479 -0.0802 -0.0233  0.1317
32485W        W45899  16.533   9.997   5.321  0.1110  0.4523 -0.1917
32486W        W45900   3.009  10.226  11.895 -0.0908 -0.1056 -0.1864
32487W        W45901   3.448   2.075  13.262  0.3075  0.1298 -0.1091
32488W        W45902   6.920  15.500  12.368  0.0517 -0.1706 -0.0124
32489W        W45903   5.624   2.101  11.488  0.1065 -0.0718  0.2375
32490W        W45904  14.815   2.416   0.516 -0.1464 -0.0473  0.0376
32491W        W45905  17.857   7.526   2.860 -0.1731 -0.0883  0.0818
32492W        W45906  15.552  10.998   3.706 -0.1707 -0.0434 -0.2166
32493W        W45907   7.077   0.245  14.875  0.1707 -0.0907 -0.2170
32494W        W45908   0.667   7.555  11.656  0.2612  0.1826 -0.2453
32495W        W45909  10.087  10.391  16.098 -0.1126  0.1748  0.0364
32496W        W45910   9.699  17.099   3.655 -0.2988  0.2921 -0.1256
32497W        W45911  13.331  17.625   2.183 -0.4364  0.1214 -0.3283
32498W        W45912  12.870   7.983  15.559  0.0278  0.1707 -0.1041
32499W        W45913  12.257   9.837   5.871 -0.1648 -0.4483  0.0326
32500W        W45914   0.755   4.660   0.630  0.2236 -0.2139  0.0281
32501W        W45915  15.435   5.522  14.603 -0.2025 -0.1039 -0.2391
32502W        W45916  15.511  12.140   2.989 -0.0346  0.0911  0.3546
32503W        W45917   2.792  15.063  14.615 -0.2381  0.3394 -0.0805
32504W        W45918  15.112   1.872  13.713  0.2274  0.0558 -0.0097
32505W        W45919   5.154   9.147   5.052  0.1229  0.1152 -0.1682
32506W        W45920  13.316  17.242   4.885  0.0878 -0.0860 -0.1321
32507W        W45921  17.261   1.357  13.424  0.0257 -0.1124 -0.0625
32508W        W45922  11.281  16.375   4.113 -0.1275 -0.0420  0.0266
32509W        W45923   4.159  11.520   2.158 -0.0743 -0.0372 -0.2826
32510W        W45924   9.316  10.252   2.646  0.0253 -0.0073  0.0676
32511W        W45925  14.096   4.583  12.817  0.0437  0.1697  0.0366
32512W        W45926  17.384   3.030  14.867  0.2483 -0.0090  0.0023
32513W        W45927  17.496   8.768  13.250 -0.4681  0.0920 -0.2348
32514W        W45928  14.157  18.191  13.575 -0.1329  0.2107  0.2416
32515W        W45929   7.512  18.046   0.228  0.1024  0.2612  0.2862
32516W        W45930  14.992   0.626  14.023  0.0593 -0.2047  0.1883
32517W        W45931  18.046  12.075   3.772  0.1239  0.2477 -0.1623
32518W        W45932  12.119  10.682  10.654  0.0510  0.1796 -0.2232
32519W        W45933  15.264   9.105  13.486 -0.1799 -0.3293 -0.0778
32520W        W45934   4.660  11.438  12.874 -0.0235 -0.0748 -0.3059
32521W        W45935   7.586  11.868   3.387  0.0105 -0.0531  0.3035
32522W        W45936   8.769  10.949  14.285 -0.1371 -0.0456 -0.2035
32523W        W45937   9.554  10.850  11.150  0.0517 -0.0179  0.2403
32524W        W45938   9.753   1.880  12.044  0.1677 -0.2787 -0.1483
32525W        W45939  15.457   3.808  11.555  0.0893  0.0833  0.2087
32526W        W45940  16.664   7.751   6.501  0.1421 -0.0935 -0.0642
32527W        W45941   6.220   5.202  13.325  0.0295  0.0613  0.3176
32528W        W45942  11.330   3.726  12.182 -0.1268  0.0729  0.1944
32529W        W45943   2.327   0.672  11.044 -0.2135  0.0502  0.1352
32530W        W45944   2.658  16.428  12.714 -0.1188 -0.0346  0.0807
32531W        W45945  10.595   2.623  10.471  0.2284 -0.0559 -0.0866
32532W        W45946  10.769  17.509  11.172  0.2721  0.1585  0.3408
32533W        W45947  14.096   1.511  13.849  0.0662 -0.2303  0.1232
32534W        W45948   1.637   9.956   4.471  0.1035  0.2364 -0.1574
32535W        W45949  17.106   5.189  12.734  0.2428  0.3389 -0.1236
32536W        W45950  13.634  17.308  13.034  0.0705 -0.0312  0.4324
32537W        W45951  11.141   0.716   1.609  0.2251  0.1833 -0.1566
32538W        W45952   9.925  12.755  14.013 -0.1682  0.1463  0.1115
32539W        W45953  11.389   3.143  10.634  0.1208 -0.0767  0.2011
32540W        W45954   4.730  14.464   2.453  0.0305 -0.0518 -0.0730
32541W        W45955   0.527   2.917   4.131 -0.2375 -0.0716  0.1224
32542W        W45956   6.108   4.703  10.478  0.2590  0.2768  0.3612
32543W        W45957  14.039   9.212   1.650  0.0170  0.2606  0.1960
32544W        W45958   9.742  11.920   4.832  0.0407 -0.2309 -0.0269
32545W        W45959  10.908  11.693  12.298  0.0322  0.0923 -0.0079
32546W        W45960   2.341   1.154   4.417  0.1880 -0.3619 -0.0160
32547W        W45961   2.485  11.731  13.722  0.4783  0.1215  0.1007
32548W        W45962   8.526   3.220   3.912  0.2492  0.1155 -0.0583
32549W        W45963   1.310   6.242  13.309 -0.0694 -0.1367  0.0874
32550W        W45964   2.299   5.765  14.474  0.2480  0.0705 -0.1804
32551W        W45965  13.843  15.605  12.229  0.3194  0.1001  0.4669
32552W        W45966   5.056  12.896   3.976 -0.1445  0.0126  0.3065
32553W        W45967   1.507   8.821  12.037  0.1756  0.1423 -0.1265
32554W        W45968  12.926   5.043  13.935 -0.3753  0.3531  0.2730
32555W        W45969  12.530   1.943  14.681 -0.0170 -0.2624 -0.0138
32556W        W45970   9.277   9.454  13.042 -0.2193  0.2182 -0.0038
32557W        W45971   8.364  14.469   0.837  0.1613  0.0582  0.1331
32558W        W45972   2.640  13.169  11.123  0.0508  0.2559  0.2093
32559W        W45973   5.201   9.107   2.433 -0.1489  0.2691 -0.3491
32560W        W45974  17.222  12.547   5.616 -0.0623 -0.3908 -0.1460
32561W        W45975   0.551   6.828  13.925 -0.1034  0.1235 -0.2360
32562W        W45976  10.560   3.735  14.917 -0.0123  0.0172  0.1503
32563W        W45977  12.804  16.363   1.078  0.1035 -0.0373 -0.0524
32564W        W45978   3.981  11.881   6.152  0.1689  0.1969 -0.0130
32565W        W45979  15.761   1.669  11.173 -0.1030 -0.1593  0.1143
32566W        W45980   3.542  12.704   5.581 -0.0194 -0.0639  0.1345
32567W        W45981  11.888  13.826   4.265 -0.0991  0.2400 -0.3546
32568W        W45982   1.040   3.716   6.737  0.0928 -0.2569  0.3385
32569W        W45983  11.956   5.231   1.591 -0.5162  0.2138 -0.2072
32570W        W45984   5.534   4.720   0.262 -0.2331 -0.2564  0.2716
32571W        W45985   5.466   7.601   5.702  0.2797 -0.3458  0.0272
32572W        W45986   9.724   8.951   0.796  0.0933  0.0138  0.1457
32573W        W45987  11.728  17.649   3.379 -0.4424  0.0058 -0.3486
32574W        W45988  12.438   6.786   1.448  0.0531  0.1820 -0.1425
32575W        W45989  17.944  13.442   3.625  0.1218 -0.1410  0.1701
32576W        W45990   0.224  12.136  13.667  0.2274 -0.0511  0.1632
32577W        W45991  15.940   9.886  13.744 -0.1931 -0.0933  0.0648
32578W        W45992  17.447   7.855   4.365 -0.1691  0.1926 -0.2534
32579W        W45993   9.293  11.306  10.954  0.1984 -0.0348  0.0597
32580W        W45994  17.905  17.022   1.869  0.0069 -0.2294 -0.0017
32581W        W45995   7.967  17.146  13.304 -0.1712  0.2404  0.1357
32582W        W45996  15.075   1.526   1.799 -0.1745  0.1862  0.0352
32583W        W45997  10.327  12.264   3.587 -0.0472 -0.0060 -0.0885
32584W        W45998   9.566  14.197  14.064 -0.0387 -0.2271 -0.0565
32585W        W45999   2.753  11.670  14.113  0.0300  0.1394 -0.0298
32586W        W46000  11.001   4.553  15.285  0.1723  0.2883  0.2737
32587W        W46001  11.021  14.712   0.869 -0.0584  0.2314  0.1353
32588W        W46002   8.904   9.237   2.432  0.0105  0.1801 -0.1578
32589W        W46003  11.162  17.957  12.467 -0.0571  0.2433 -0.0427
32590W        W46004  15.746   5.487   2.929  0.1486 -0.0455 -0.0260
32591W        W46005   1.862  14.487   2.481 -0.2070  0.1311 -0.2431
32592W        W46006  16.181  13.394   0.462 -0.0614 -0.2422 -0.2765
32593W        W46007  14.845  15.605  15.613 -0.0285 -0.0610 -0.0508
32594W        W46008   8.543   4.590  12.422 -0.0693  0.1512  0.2562
32595W        W46009  17.362   8.408   3.411 -0.2716  0.4229 -0.1978
32596W        W46010   2.113  13.459  16.191 -0.2137  0.0074  0.1763
32597W        W46011   7.877   5.013  10.780 -0.2524 -0.1373 -0.1512
32598W        W46012  18.299   3.440   2.801  0.0877  0.2408 -0.1450
32599W        W46013  10.239  16.704  10.876  0.0617 -0.2686  0.1959
32600W        W46014   2.916   4.347   3.124 -0.1913  0.2446 -0.1003
32601W        W46015  13.414  11.426  16.045  0.0691  0.0514  0.0717
32602W        W46016   4.812   3.767  11.723 -0.0157 -0.2050 -0.2490
32603W        W46017  14.284   5.824  14.890 -0.0988  0.1519 -0.2145
32604W        W46018   3.503  15.058  11.262  0.0388 -0.3268  0.0329
32605W        W46019   6.109   2.295   4.554  0.1958  0.1015  0.3311
32606W        W46020   7.344  10.212   2.085  0.2753 -0.0153  0.1740
32607W        W46021   5.423  13.284  13.478  0.0885 -0.1785  0.1126
32608W        W46022  16.447   5.362  13.426  0.2609 -0.4842  0.3900
32609W        W46023  17.164   0.740  11.175  0.2217 -0.1524 -0.2930
32610W        W46024   8.836   0.511  14.982 -0.2571  0.0844  0.2160
32611W        W46025   9.234  17.378   5.178  0.0529 -0.4308 -0.0994
32612W        W46026   5.964  14.990  16.146 -0.0541  0.0229 -0.1093
32613W        W46027   0.771   2.366   4.898 -0.0503  0.0404 -0.0797
32614W        W46028   6.363  17.189  11.536 -0.1769  0.1453 -0.1862
32615W        W46029  11.832   1.694   4.074 -0.1094 -0.3171 -0.0921
32616W        W46030   7.667  16.246   2.902 -0.1687 -0.2833 -0.0770
32617W        W46031  11.491   0.179   3.947 -0.1861  0.0459  0.1972
32618W        W46032   3.176   1.478   1.181  0.0963 -0.2378  0.0624
32619W        W46033   2.708  10.851  13.836  0.1053 -0.0244 -0.0674
32620W        W46034  11.914  11.671  14.617  0.0667 -0.3212 -0.2963
32621W        W46035  14.987  15.951   4.582  0.0201  0.0604 -0.0271
32622W        W46036  17.066  14.276  15.752  0.1001 -0.0719  0.1791
32623W        W46037  12.328   1.245   0.982 -0.1249 -0.2238 -0.1972
32624W        W46038   1.520  16.151   5.832  0.0727  0.2181  0.0072
32625W        W46039  11.874   5.623  13.728 -0.0012  0.0215  0.2212
32626W        W46040   6.814   0.433  13.553 -0.1475  0.1114  0.0348
32627W        W46041   3.844  15.830  13.988 -0.0295  0.1130 -0.3125
32628W        W46042  16.500   2.474  12.509  0.2937 -0.0918  0.0114
32629W        W46043  17.658  12.599   1.380  0.2920 -0.0288  0.0807
32630W        W46044   2.873  12.079   2.699 -0.0957 -0.1513  0.0615
32631W        W46045  16.893  16.898  14.369  0.2086 -0.0315  0.1923
32632W        W46046   5.640   7.068   3.139  0.2800  0.0881 -0.0233
32633W        W46047  11.607  17.788  14.641 -0.3032  0.0371 -0.0327
32634W        W46048  14.325   4.229   2.319  0.1995 -0.0259  0.4849
32635W        W46049   2.427   8.894  16.172  0.0536 -0.0559  0.1429
32636W        W46050   4.697   2.550   3.639  0.2180  0.0627 -0.1378
32637W        W46051   3.156   0.748  13.829 -0.0684  0.2348 -0.2661
32638W        W46052   1.663  11.506  14.396  0.0706  0.3163  0.0294
32639W        W46053   3.175  15.660  10.682  0.1561  0.0201  0.0599
32640W        W46054   8.741   8.884   1.986  0.0325  0.1865  0.2007
32641W        W46055  17.090   2.034   0.562  0.0622  0.0408 -0.3687
32642W        W46056   7.465   0.205   1.187  0.1647  0.1005 -0.0423
32643W        W46057   7.888   9.635   0.545  0.1228  0.0101  0.5928
32644W        W46058   6.378  11.786  14.821  0.0882  0.4987  0.1303
32645W        W46059   6.755   0.439   1.089 -0.1998  0.2399 -0.1700
32646W        W46060  11.318   9.221  13.534 -0.1101 -0.0818 -0.0792
32647W        W46061  16.505   9.325  15.285 -0.3740 -0.0188 -0.1820
32648W        W46062   3.299  17.067  12.287  0.3544 -0.4472 -0.0619
32649W        W46063   0.970  17.226   1.050 -0.0738 -0.1118 -0.3011
32650W        W46064  11.911  11.669  13.603  0.1731 -0.3112 -0.1617
32651W        W46065   4.278   6.811   2.620  0.1534 -0.2706 -0.0933
32652W        W46066   0.414  13.371   5.072  0.0682  0.0153 -0.3983
32653W        W46067  12.285  16.665   1.267  0.0410 -0.0227  0.0688
32654W        W46068   4.764   9.806   4.308 -0.1063 -0.0776  0.1506
32655W        W46069  17.997  17.842  11.289  0.2411 -0.2926 -0.2164
32656W        W46070   3.479  15.404  10.271 -0.2650  0.0659  0.2210
32657W        W46071  17.682  14.244  10.344 -0.1216 -0.0139  0.0506
32658W        W46072  16.586   7.959  13.041 -0.1947 -0.2070 -0.0346
32659W        W46073   5.076  14.207   2.081 -0.1999  0.2591 -0.0872
32660W        W46074  15.553   3.599   3.354 -0.1750 -0.1228 -0.0573
32661W        W46075   9.677   5.329   1.104 -0.0677 -0.0118  0.1169
32662W        W46076  13.504   1.531   5.648  0.1090 -0.3271  0.3930
32663W        W46077   9.041   9.366  11.567 -0.1773  0.0426  0.0452
32664W        W46078   9.271   8.428  14.566 -0.1451 -0.0757 -0.2916
32665W        W46079  13.497   6.524  15.150 -0.2174 -0.0474  0.0151
32666W        W46080  14.091   5.430   5.531  0.1886  0.1258  0.0464
32667W        W46081  16.989   0.501   4.150  0.2304  0.0705  0.2878
32668W        W46082  13.181  13.032   5.003 -0.1245  0.0961  0.0118
32669W        W46083   0.749  17.102   3.045 -0.0827  0.4581 -0.2202
32670W        W46084  13.091  15.102  10.806  0.0705 -0.2369  0.5534
32671W        W46085  10.744  15.119  14.816  0.2752  0.1865  0.0877
32672W        W46086   4.691   2.827  13.524 -0.2261  0.1442 -0.0810
32673W        W46087  11.133  11.180  11.681 -0.2088 -0.0015  0.4212
32674W        W46088  11.470   1.575   0.960  0.0226 -0.3439 -0.2176
32675W        W46089  17.392  16.399  12.249 -0.3250 -0.0822 -0.0349
32676W        W46090   0.427   4.843  12.650  0.0723  0.0760  0.1650
32677W        W46091  10.102   0.401   2.928  0.1722 -0.0189 -0.1175
32678W        W46092  13.558  12.619   1.063  0.2338  0.3328  0.0950
32679W        W46093  17.304   9.838   6.213 -0.0274 -0.0534 -0.2693
32680W        W46094  12.875   4.545   3.711  0.1933  0.2816  0.1668
32681W        W46095   6.095   8.876   2.273  0.3326  0.0523 -0.2046
32682W        W46096  17.681  10.796  11.858 -0.1943  0.0826 -0.2814
32683W        W46097  15.213  11.934  12.386  0.0951 -0.2837  0.1025
32684W        W46098  11.057   4.688  11.135 -0.1994  0.0808  0.1541
32685W        W46099   0.425  15.637   2.428 -0.2015 -0.1624  0.2123
32686W        W46100   0.652  14.359   5.362  0.1945  0.2564  0.1061
32687W        W46101  11.798   5.415  16.063 -0.2398 -0.0885 -0.1405
32688W        W46102  11.486   8.740   0.101  0.0678 -0.2245  0.2200
32689W        W46103  12.345  13.125  10.718  0.1390 -0.2077 -0.5392
32690W        W46104  10.411   9.004   5.429  0.0682 -0.1011 -0.4019
32691W        W46105  13.604  11.939  11.208 -0.1961 -0.1601  0.1467
32692W        W46106   0.813  15.372  10.939 -0.0253  0.2476 -0.0255
32693W        W46107   1.714  16.930   6.004  0.1950 -0.2774 -0.0494
32694W        W46108   1.751   1.392  12.295  0.1977  0.2435 -0.2906
32695W        W46109   2.414   1.000  14.304 -0.4090 -0.1545 -0.2745
32696W        W46110   9.000   1.606   4.378 -0.1061 -0.0934  0.1706
32697W        W46111   6.220   5.852  11.005 -0.2290  0.1109  0.0119
32698W        W46112   0.380   4.118   6.251  0.1965  0.0857  0.1470
32699W        W46113  12.598   3.390   4.267 -0.0595  0.3638  0.0268
32700W        W46114  14.973   3.062   2.135 -0.0703 -0.1714 -0.1213
32701W        W46115  12.364  13.059   4.183  0.1108 -0.0434 -0.0918
32702W        W46116  14.925   8.671   4.473 -0.0971 -0.3933 -0.1953
32703W        W46117   8.964  10.204   1.043 -0.3240 -0.1801  0.0744
32704W        W46118  15.460  17.810   2.071 -0.0658 -0.1710 -0.1389
32705W        W46119  17.739   6.287   0.677 -0.0754 -0.1727 -0.0772
32706W        W46120   8.752   9.754   0.873  0.1026 -0.1663  0.0430
32707W        W46121  14.781   5.498   0.116 -0.1416  0.1134  0.1191
32708W        W46122   5.282  17.724   4.015  0.0567 -0.1653 -0.2791
32709W        W46123   5.801   5.842  10.260  0.3405  0.2689 -0.5097
32710W        W46124   0.720  17.275  14.717  0.0422  0.2723  0.0168
32711W        W46125  10.177  14.368   0.530 -0.2741  0.0464  0.1905
32712W        W46126   1.009  10.749   2.178  0.3250  0.2414 -0.1676
32713W        W46127   9.344   9.970   0.659  0.3086  0.0110 -0.0483
32714W        W46128  13.850  10.225  13.778  0.0928  0.0233  0.0833
32715W        W46129   6.599  12.809   0.344 -0.2601  0.1003  0.0833
32716W        W46130   8.127  13.616   2.368 -0.0371 -0.0045  0.0559
32717W        W46131   4.252  10.458  13.968  0.1688  0.1611  0.1470
32718W        W46132   2.735  15.527  10.833 -0.1292  0.2580  0.0911
32719W        W46133  16.543   9.771   4.866  0.0444  0.3029 -0.0998
32720W        W46134   0.377  10.817  11.410  0.1551 -0.1871  0.1054
32721W        W46135  15.447   3.951  11.072  0.1766 -0.2167 -0.2142
32722W        W46136   8.060   4.744   2.341  0.1520  0.1166 -0.0414
32723W        W46137   5.707   9.526  13.706  0.2206  0.1820 -0.0597
32724W        W46138   0.625   6.957   5.683 -0.2383  0.0260  0.2234
32725W        W46139   0.968  11.043   2.638  0.0295  0.0938  0.2843
32726W        W46140  11.123  14.265   1.758 -0.1887  0.1717  0.2794
32727W        W46141   1.124  16.081  12.839 -0.0441  0.4805  0.0025
32728W        W46142   0.282  15.731   5.806  0.0141 -0.1855 -0.0874
32729W        W46143  10.866  10.129   0.097 -0.2176 -0.1750 -0.1887
32730W        W46144   7.658   3.534   4.934  0.0164 -0.0805 -0.0422
32731W        W46145  11.494  17.279   0.723 -0.0287 -0.3819 -0.5024
32732W        W46146  10.710  18.230  12.760 -0.0377  0.0027  0.1907
32733W        W46147   0.260   6.674  12.211 -0.1013 -0.1773 -0.2261
32734W        W46148  14.075   7.233   6.535 -0.1476  0.1392  0.0257
32735W        W46149  15.537   8.110   1.685 -0.4222  0.0022  0.1112
32736W        W46150   2.792  17.267   3.762  0.0467 -0.2380  0.0677
32737W        W46151  10.834  14.516   3.346 -0.2011  0.0395  0.1534
32738W        W46152   9.836  13.681  11.324 -0.0753 -0.1880  0.5012
32739W        W46153  16.043  16.803  13.392 -0.0131 -0.1094  0.1666
32740W        W46154  12.356  11.800  14.316 -0.1456 -0.1912 -0.2724
32741W        W46155   1.139  12.610  12.725  0.0454 -0.1551  0.3561
32742W        W46156  13.121   8.835  11.495  0.2705  0.1475  0.1787
32743W        W46157   9.863   8.272  10.325  0.1589 -0.2811  0.1623
32744W        W46158   8.802  17.583  15.313  0.1870 -0.2390  0.1194
32745W        W46159   3.542   8.086   2.426 -0.1822  0.0763 -0.2781
32746W        W46160   8.440  15.160  10.199  0.1020  0.1670 -0.0598
32747W        W46161  16.573  12.802  10.726 -0.0602 -0.1680 -0.0072
32748W        W46162  18.092   1.973   3.424 -0.0622 -0.0686  0.2213
32749W        W46163   6.530   8.159  16.158 -0.0357 -0.5592  0.2980
32750W        W46164   3.060  17.985  15.158 -0.3495 -0.3150  0.0887
32751W        W46165   9.536   7.600  13.044 -0.0030 -0.0822 -0.0803
32752W        W46166   4.545  15.183  13.086 -0.0750 -0.4068 -0.0926
32753W        W46167   3.420  11.729  15.021 -0.2609 -0.1548  0.0745
32754W        W46168   5.311  10.498   3.307 -0.2635 -0.3395 -0.0151
32755W        W46169  17.340  11.687   2.058  0.1201 -0.0450  0.0671
32756W        W46170   4.438  16.355  12.588  0.1725  0.0868  0.2466
32757W        W46171  14.915   4.881   2.966 -0.2581 -0.1099 -0.1661
32758W        W46172  16.833  16.841  12.166 -0.0324 -0.2574 -0.0101
32759W        W46173   8.701   3.433   2.233  0.3245 -0.1358  0.0108
32760W        W46174   8.062   5.658  15.550  0.0369 -0.2484 -0.0915
32761W        W46175  12.575  14.828  13.439  0.1673 -0.1136  0.0762
32762W        W46176   9.088  14.347  14.957  0.2156 -0.2056  0.1370
32763W        W46177  10.937  16.425   4.492 -0.1004  0.0314  0.1572
32764W        W46178  11.554   7.030   0.174 -0.0091  0.3266  0.0734
32765W        W46179  13.248  10.843   0.813  0.0747  0.0089  0.3953
32766W        W46180  14.637   4.692   0.762 -0.0333 -0.0710 -0.3485
32767W        W46181  14.054  17.111   0.310  0.3385  0.0399  0.1620
32768W        W46182   3.842   9.018  12.336  0.0139  0.0467  0.2936
32769W        W46183  12.864   2.915  11.421 -0.1368 -0.0620 -0.0998
32770W        W46184  14.409  13.355   1.323  0.2402 -0.1135  0.0983
32771W        W46185  17.532   4.085  12.892  0.0003  0.3464 -0.0683
32772W        W46186   0.698  15.664   0.904  0.2064  0.0114 -0.0184
32773W        W46187  17.262   7.559   1.063 -0.1088  0.2094 -0.3243
32774W        W46188  14.836   1.986   3.408 -0.0046  0.1610  0.0064
32775W        W46189  15.821   4.868  10.088  0.3990 -0.2741  0.2896
32776W        W46190  11.434  17.010   0.216  0.5249  0.2397  0.2877
32777W        W46191   5.389  13.335   0.101 -0.2780 -0.0264 -0.0436
32778W        W46192  10.008   1.494  16.266 -0.0082  0.1265 -0.1930
32779W        W46193  15.213   5.514  15.063 -0.1233 -0.0789  0.1268
32780W        W46194   1.366   4.231   1.032  0.4815 -0.2279 -0.2963
32781W        W46195  11.014   4.171   0.049 -0.3931  0.0311 -0.3619
32782W        W46196  17.600  15.181   0.705  0.1453 -0.0681 -0.1704
32783W        W46197   7.648  13.519   5.322  0.0059  0.2702 -0.0893
32784W        W46198  14.303   7.337  16.179 -0.4025  0.0923 -0.0336
32785W        W46199  12.346   4.686   0.519 -0.0961  0.1901 -0.1314
32786W        W46200  13.227  13.170   4.304 -0.2272 -0.3484 -0.1881
32787W        W46201   1.442   1.412  11.176  0.2056 -0.0004 -0.1889
32788W        W46202  18.339  14.507  14.065  0.1192 -0.1791  0.2329
32789W        W46203   7.904   6.789   2.185 -0.2174  0.1313 -0.2366
32790W        W46204   5.974  11.875  10.517  0.1850 -0.0813 -0.0031
32791W        W46205  11.867   2.285  15.668 -0.1879 -0.0390 -0.0555
32792W        W46206   0.246  18.223   2.424 -0.3467  0.0402 -0.1127
32793W        W46207  10.908   3.183  10.276 -0.1244 -0.1052 -0.2293
32794W        W46208  13.450  13.131   2.511  0.0697 -0.0074  0.0086
32795W        W46209   7.011   6.207   5.149 -0.2514  0.0012 -0.1803
32796W        W46210   6.100   5.200  14.418  0.2158 -0.2190  0.0499
32797W        W46211   7.972   9.585  14.316 -0.1145  0.0896  0.2226
32798W        W46212   7.936  13.661  11.345 -0.3653  0.2291 -0.0570
32799W        W46213  10.944   8.646   2.381  0.3732  0.2908 -0.0674
32800W        W46214  17.857  13.843   3.916  0.1359 -0.2190 -0.5184
32801W        W46215  15.903   3.606  13.737  0.0116  0.1270  0.4170
32802W        W46216  11.323  14.578  13.947 -0.1426  0.1284  0.1997
32803W        W46217  10.931   6.104  13.185 -0.0906 -0.2243  0.1981
32804W        W46218  14.275   4.835   0.440 -0.1467 -0.1550  0.0270
32805W        W46219  17.292   0.004  12.602  0.0925 -0.1764  0.0729
32806W        W46220   6.667   3.844  13.999  0.1675  0.0061  0.0877
32807W        W46221  13.280   4.126  10.733  0.1751  0.1648  0.0437
32808W        W46222  12.022  10.754   4.373 -0.0388 -0.2548  0.2657
32809W        W46223   8.707  16.157  10.609  0.0470  0.0192 -0.4024
32810W        W46224   7.160   6.184  11.008 -0.3845  0.2232 -0.2037
32811W        W46225   8.660  14.874   0.361  0.1159  0.2409  0.0597
32812W        W46226  14.834   7.507   3.434  0.0809 -0.3361 -0.3000
32813W        W46227   8.264  12.522  13.460  0.0487  0.3337  0.1134
32814W        W46228   8.764   7.057  16.222  0.0701 -0.0703 -0.1835
32815W        W46229   9.464  15.203   4.463  0.3390  0.1838 -0.1070
32816W        W46230  16.076  13.289   3.935 -0.0317  0.0094  0.2076
32817W        W46231   6.520  10.584   0.461 -0.0304 -0.2624 -0.0397
32818W        W46232   7.636  10.927  14.075  0.0486  0.2411  0.2854
32819W        W46233  17.002  18.054  11.918 -0.2240 -0.1984  0.2851
32820W        W46234   5.403  13.945   4.282 -0.0386  0.2151 -0.0942
32821W        W46235  16.571  13.975   0.526 -0.4351  0.2214  0.0919
32822W        W46236   7.808   5.553  10.642  0.0637  0.1228 -0.1606
32823W        W46237  10.146   1.904   0.295  0.0935  0.1602  0.0347
32824W        W46238  14.583  11.187   0.329 -0.1961 -0.0765 -0.3031
32825W        W46239  10.608  10.561   3.204 -0.0655 -0.1099  0.0188
32826W        W46240   3.901  14.981  14.921 -0.5331  0.0855 -0.2132
32827W        W46241   1.964   6.874   4.497  0.2713  0.1417  0.0605
32828W        W46242   4.738   4.918   5.492 -0.2281 -0.0756  0.0605
32829W        W46243  10.265  17.124  12.297 -0.1853  0.1038 -0.0432
32830W        W46244   2.414  15.453  15.182 -0.1334  0.2043  0.3593
32831W        W46245   4.114  17.450  10.651  0.0776  0.0663  0.0027
32832W        W46246  15.307   9.797   3.920 -0.1577  0.1356 -0.3281
32833W        W46247  12.300   1.489   4.833 -0.0778 -0.0214  0.0897
32834W        W46248   6.896   4.209  10.749  0.0607  0.1512 -0.1637
32835W        W46249  16.666   1.598  10.421 -0.0388 -0.0910 -0.4796
32836W        W46250  17.990   4.819   4.029  0.0928 -0.0432 -0.1334
32837W        W46251   9.367  11.647  15.115  0.0265 -0.3956  0.1108
32838W        W46252  12.393   2.304  15.044 -0.1009 -0.0507  0.1231
32839W        W46253   0.168   2.014   2.653  0.1274 -0.2176 -0.2669
32840W        W46254   8.595   4.904   1.868  0.1471  0.0359 -0.3846
32841W        W46255  17.191   7.690  11.420 -0.0546 -0.1414  0.1845
32842W        W46256   6.071   2.432  10.911 -0.0997 -0.2995 -0.1364
32843W        W46257   7.618  17.194   0.655 -0.3829  0.0193 -0.1442
32844W        W46258  12.073  11.892   3.655 -0.0269 -0.2387  0.0042
32845W        W46259   7.662   7.545   6.045  0.0757 -0.1172  0.0262
32846W        W46260  11.976   8.409  13.535  0.4003 -0.0465 -0.1706
32847W        W46261  15.565   2.260  13.810  0.1240  0.0062  0.0878
32848W        W46262  15.741  14.033  12.202  0.0707 -0.0695 -0.1195
32849W        W46263  11.746   8.374  11.462 -0.0469  0.0159  0.4806
32850W        W46264  16.477   1.136  14.149  0.2858 -0.0921 -0.0472
32851W        W46265  10.272   1.205   4.454 -0.3000  0.0162 -0.0964
32852W        W46266  14.670  11.490   5.904 -0.1955 -0.0184 -0.1192
32853W        W46267  15.940   7.700  15.452  0.1679  0.0864  0.1289
32854W        W46268  15.358   8.434  11.474 -0.0024  0.0340  0.2422
32855W        W46269   7.846  16.069   4.773  0.1677  0.2162 -0.1530
32856W        W46270  11.501   2.314   0.328 -0.1019 -0.1269 -0.1252
32857W        W46271  10.317  10.889  14.408 -0.0188  0.1278  0.0115
32858W        W46272  11.892   6.488   6.475 -0.1846 -0.1665  0.2062
32859W        W46273   4.635   5.308   2.341  0.1296 -0.0889 -0.1344
32860W        W46274  11.500   5.635   0.958  0.1041  0.1727 -0.1751
32861W        W46275   0.925   5.989  13.674 -0.0777  0.0766 -0.1303
32862W        W46276   5.172   2.936  13.407  0.1415  0.3056 -0.1925
32863W        W46277  11.916  14.399  14.563  0.1778 -0.2985 -0.1219
32864W        W46278  13.907  13.575   0.563  0.2135 -0.1885  0.1028
32865W        W46279   5.242   8.010   4.540  0.0383  0.1209 -0.3636
32866W        W46280   7.803  13.333   3.683 -0.4101  0.1505  0.0388
32867W        W46281   2.723  16.718   1.116 -0.0795 -0.1185 -0.0452
32868W        W46282   4.542  14.383  11.365  0.0937  0.2441 -0.4435
32869W        W46283   0.563  10.286  11.368 -0.2285 -0.2137  0.0195
32870W        W46284   8.263   8.089   0.326 -0.2937  0.2188 -0.1885
32871W        W46285   2.196   3.711  14.709 -0.0039 -0.0123  0.0194
32872W        W46286  15.303   9.990   5.324  0.0062 -0.0570  0.1261
32873W        W46287  13.057  16.624  12.747 -0.1694  0.1604 -0.1323
32874W        W46288   9.591   0.263   0.197 -0.1136  0.2095  0.2816
32875W        W46289  18.301  16.313  15.265  0.1255 -0.1714  0.3288
32876W        W46290   1.616  10.290  11.819 -0.0145  0.1369  0.1625
32877W        W46291   1.337   4.576   2.816  0.4967  0.1784 -0.1067
32878W        W46292   1.975  11.162  14.979 -0.2145  0.1716  0.1149
32879W        W46293   3.165  13.179   1.338  0.0131 -0.0806  0.3135
32880W        W46294  14.547  15.117   4.920  0.1264  0.0995  0.1785
32881W        W46295  12.873   6.798   1.162  0.1922  0.1961 -0.1770
32882W        W46296  10.284   9.213   3.044  0.0146  0.1009  0.1330
32883W        W46297   3.863   2.150   1.009 -0.1756 -0.1534 -0.2383
32884W        W46298   5.052  11.284  13.167 -0.0828 -0.0386 -0.3613
32885W        W46299   6.756   2.181  11.437 -0.0516 -0.1693  0.1102
32886W        W46300   6.941   1.670   2.963  0.0644  0.2055  0.2971
32887W        W46301   6.047  10.311  15.909  0.1559  0.0819 -0.1928
32888W        W46302   0.586  11.814  11.576 -0.2965  0.0699 -0.1488
32889W        W46303  16.737  11.547   2.647  0.0638 -0.2338 -0.0991
32890W        W46304  10.204   2.288  15.920  0.0846 -0.0704  0.2206
32891W        W46305   3.378   8.018   4.528 -0.1442  0.0984  0.2235
32892W        W46306   8.352  11.870  11.315  0.0444  0.2977 -0.0021
32893W        W46307   5.866   6.132  15.371 -0.3590  0.0711  0.0844
32894W        W46308   2.231  12.314  12.484 -0.1781  0.3358 -0.3760
32895W        W46309   2.753   2.037   3.574  0.1590 -0.0482  0.0038
32896W        W46310  14.130  11.557  14.555 -0.2758 -0.1261  0.0117
32897W        W46311   6.072  11.825  11.487  0.0931 -0.1540  0.0951
32898W        W46312   3.990  16.549  10.559 -0.0092  0.1737  0.0954
32899W        W46313   3.361  17.956  14.779 -0.0089 -0.1221 -0.0217
32900W        W46314  15.973  15.124  10.811 -0.2120  0.1766 -0.1005
32901W        W46315  17.935   9.923   4.499  0.3341 -0.1214  0.2583
32902W        W46316   0.203   9.799   0.413 -0.2102  0.0064  0.2145
32903W        W46317   3.397   6.294  11.483 -0.0673  0.0820  0.2376
32904W        W46318   5.257  14.580  12.653  0.0729  0.1903 -0.2495
32905W        W46319   5.736   5.830  10.754  0.1357 -0.0123 -0.0754
32906W        W46320  13.738   8.333   3.826 -0.2413  0.0585  0.2550
32907W        W46321   0.533  17.019  15.768 -0.1857  0.0009  0.2898
32908W        W46322   8.082  15.456   3.005  0.0020 -0.0235 -0.0839
32909W        W46323   0.976   5.305   1.882  0.1197 -0.2257  0.0331
32910W        W46324  10.341  11.705  10.352  0.1687 -0.1208 -0.0522
32911W        W46325   5.877  13.753  15.554  0.3416 -0.1791  0.1667
32912W        W46326   8.323   5.065  11.168  0.0792  0.4182  0.0497
32913W        W46327   8.577   3.893  13.401  0.2029 -0.0515 -0.2862
32914W        W46328   2.079   8.731   5.531  0.0156 -0.0478  0.3629
32915W        W46329  12.728  12.812   1.672  0.2377  0.0297  0.1289
32916W        W46330   5.079  11.300  15.547  0.0419  0.0296 -0.4321
32917W        W46331   9.507  12.640  13.369  0.2079  0.1807  0.0226
32918W        W46332   5.023  12.429   3.819 -0.1389 -0.2552  0.0465
32919W        W46333   8.477   5.200  11.719 -0.0234  0.1147 -0.2012
32920W        W46334  12.895   2.038  11.037 -0.0901 -0.0610  0.0952
32921W        W46335   1.552  13.830   6.210  0.1985 -0.2202 -0.4144
32922W        W46336   3.710   6.395  11.053  0.2828  0.0671 -0.1792
32923W        W46337  15.329   5.581   0.133 -0.1712  0.0790  0.0297
32924W        W46338  10.113  12.696   5.044 -0.1859  0.0476  0.1322
32925W        W46339   3.442  10.659  15.241  0.0193 -0.0928  0.1324
32926W        W46340   4.000   2.331   2.377  0.4017  0.1595  0.1576
32927W        W46341  14.290  14.268  12.931 -0.0179  0.1924  0.0746
32928W        W46342  15.232   9.924   6.302  0.1052 -0.0327  0.2153
32929W        W46343   7.012   3.436   0.789 -0.0755 -0.4776 -0.0650
32930W        W46344  12.512   7.116  11.876 -0.0276 -0.1401  0.2015
32931W        W46345   6.120  11.811   3.942 -0.0362 -0.1734  0.1998
32932W        W46346  16.661   8.720   0.666  0.1831 -0.2467 -0.6098
32933W        W46347  15.634  10.993  14.871  0.2797  0.2220  0.2358
32934W        W46348  15.633  14.092   2.984  0.2331 -0.0247  0.3330
32935W        W46349  11.129  12.011  16.256  0.2312  0.0213  0.4063
32936W        W46350  14.505   7.166   1.064  0.1128  0.0200  0.1833
32937W        W46351  17.496  15.620   4.765 -0.2254  0.0116 -0.0905
32938W        W46352   8.562  11.763  13.940  0.1907  0.1471  0.2215
32939W        W46353   5.813  15.707   5.653  0.2599  0.0781  0.2367
32940W        W46354  11.384  15.780   2.210 -0.1356  0.0722  0.0075
32941W        W46355   0.755   3.203   0.855  0.0123  0.0361  0.0789
32942W        W46356   3.702  13.285   1.730 -0.3345 -0.0987  0.1507
32943W        W46357   7.381   1.583   1.302  0.0170  0.0413  0.1940
32944W        W46358   7.383  13.702  12.886  0.2159  0.2491  0.0066
32945W        W46359  15.738   7.928  14.558 -0.0426  0.0259 -0.0959
32946W        W46360  15.243  16.337  10.435  0.1120  0.2834 -0.2350
32947W        W46361  17.454  12.503  14.539  0.1626 -0.0695  0.1920
32948W        W46362  12.017  16.525   4.443 -0.0470 -0.1409  0.0170
32949W        W46363   3.065   8.312   5.134  0.0353  0.2557 -0.2009
32950W        W46364  18.338  18.339  14.820 -0.0556  0.1109 -0.0995
32951W        W46365  16.949  13.511  11.794 -0.0047  0.3278  0.3847
32952W        W46366   7.878   6.163  14.134  0.0071 -0.2687  0.1188
32953W        W46367  15.994  14.214  14.789 -0.0198  0.4101 -0.1215
32954W        W46368   3.572   8.808  11.388 -0.0037  0.0433 -0.5928
32955W        W46369   3.790   4.551   1.946  0.1513  0.0084 -0.1072
32956W        W46370   6.879  17.684   2.848 -0.1790 -0.0922  0.0520
32957W        W46371   8.397   8.410  13.897 -0.1788  0.1027 -0.1799
32958W        W46372   7.433   5.027  11.990 -0.0462  0.1487 -0.2029
32959W        W46373  14.355  15.461  12.059  0.2128  0.0955  0.0294
32960W        W46374   5.119   6.422  12.218  0.0845  0.2364  0.1614
32961W        W46375  12.859   5.763  12.838 -0.0838  0.0890  0.3534
32962W        W46376  11.283   2.725   4.257 -0.1827 -0.2383 -0.0694
32963W        W46377   4.769   5.666  15.911 -0.0065  0.1408  0.1924
32964W        W46378  14.863   7.414  11.896 -0.2917  0.2630  0.2297
32965W        W46379   1.077   5.656   1.587 -0.0355  0.0945 -0.1032
32966W        W46380  14.902   8.028  16.192  0.0445  0.0409  0.2800
32967W        W46381   6.250  16.516   3.053 -0.0690  0.2240 -0.1345
32968W        W46382   7.915   1.932  13.646  0.3371  0.2102 -0.2187
32969W        W46383  18.416   8.807  15.980 -0.2861 -0.1469 -0.1558
32970W        W46384  13.886  14.142   3.484 -0.0935  0.0054  0.0187
32971W        W46385   5.868  14.057  14.352  0.0147 -0.0524 -0.1461
32972W        W46386   4.553  14.129   2.121  0.2568 -0.3870  0.1968
32973W        W46387   4.844   3.825   4.312  0.1221  0.2081  0.0064
32974W        W46388   9.003  15.254   2.639 -0.1342  0.1245 -0.3028
32975W        W46389  13.278   4.412   3.221 -0.1934  0.1540 -0.2730
32976W        W46390  16.959   3.706  15.768  0.0870 -0.2116  0.2418
32977W        W46391   2.304   7.725   4.632 -0.3352 -0.0515 -0.0516
32978W        W46392   5.972   6.060   3.995 -0.1808  0.3860 -0.0915
32979W        W46393  13.183   8.420  15.007  0.3175 -0.1311  0.0798
32980W        W46394   0.534  11.106  14.846 -0.3661  0.0462 -0.3940
32981W        W46395   7.704   6.814  15.538 -0.3346  0.3778 -0.0781
32982W        W46396   8.605   2.479  15.932  0.2008  0.3326  0.0168
32983W        W46397   1.881  11.515  11.992  0.2349 -0.0360  0.0438
32984W        W46398  12.484  14.641  13.894 -0.0392 -0.0912 -0.0854
32985W        W46399  13.150   3.019  13.196 -0.1727  0.2374  0.1463
32986W        W46400  14.030   9.603  13.785 -0.0186  0.0915 -0.0115
32987W        W46401  13.210   6.237  11.231  0.4524 -0.0521 -0.0340
32988W        W46402   3.231   1.100  13.053  0.1030  0.3489 -0.0788
32989W        W46403   2.950  11.945   9.736 -0.2310 -0.1661 -0.0410
32990W        W46404   4.149  10.124   1.859  0.0075 -0.0072  0.3041
32991W        W46405   6.824  17.520  10.976  0.1721  0.0024 -0.3099
32992W        W46406   4.835  16.909  13.624  0.1871 -0.0292  0.0516
32993W        W46407   1.065   7.144   4.890  0.0892 -0.0835 -0.1067
32994W        W46408  17.272   4.647  15.387  0.1506  0.1223 -0.2970
32995W        W46409   5.603   0.669  13.967  0.3836 -0.0648 -0.0637
32996W        W46410   7.814   2.726  15.670  0.2676 -0.1671 -0.0160
32997W        W46411  10.674   7.695  12.903 -0.1184  0.0388 -0.0303
32998W        W46412  14.685   0.986  14.379  0.1302  0.0359  0.0717
32999W        W46413  15.523   7.662   5.840  0.0846  0.0051 -0.1353
33000W        W46414   8.596   4.169   1.215 -0.0202  0.0025  0.0435
33001W        W46415   6.804  11.555  14.983  0.0826  0.1795 -0.3016
33002W        W46416   6.304   2.623   4.150 -0.0572  0.1733  0.1432
33003W        W46417  18.322   0.066   3.547 -0.2692 -0.2661 -0.0785
33004W        W46418  17.096   1.626   3.838 -0.2073  0.0651  0.0703
33005W        W46419   2.412   2.862   5.724  0.1696 -0.0057  0.0223
33006W        W46420   2.832  12.581  15.870 -0.0173  0.1385  0.2497
33007W        W46421   0.303   4.870  15.801  0.2138 -0.1983 -0.0880
33008W        W46422  15.043  12.195  14.031 -0.0074  0.0089 -0.1799
33009W        W46423  12.367  10.543  12.751  0.2217 -0.2395 -0.2228
33010W        W46424  17.648  11.134  15.352 -0.0225  0.2089  0.2861
33011W        W46425  16.377  13.309   5.829  0.2117 -0.3019  0.1160
33012W        W46426  15.185   7.618   2.469 -0.0110  0.0932  0.0192
33013W        W46427  10.260   2.802   3.206 -0.1479  0.0925 -0.4662
33014W        W46428   8.622  17.711  12.831  0.0691 -0.3011 -0.0055
33015W        W46429   5.407  14.123  12.521 -0.3033  0.3196 -0.0503
33016W        W46430   6.078   6.110  15.890  0.0391  0.0090 -0.2085
33017W        W46431  15.191   5.199  11.381  0.1814 -0.0813  0.0530
33018W        W46432  10.125  11.377   5.643 -0.3306  0.3688  0.0296
33019W        W46433  12.277   9.683  15.683  0.0956  0.2340  0.1085
33020W        W46434  13.779   1.494   0.717 -0.2189  0.2505  0.3471
33021W        W46435   2.728  14.220  15.014  0.1431  0.2460 -0.2338
33022W        W46436  16.162   3.667  15.413  0.1359  0.0093  0.1317
33023W        W46437   6.414   2.495   3.684  0.1315 -0.2855  0.0741
33024W        W46438  15.599  16.452   0.800 -0.0193 -0.1135 -0.0983
33025W        W46439  13.661  13.007   3.455  0.2192 -0.1505 -0.1202
33026W        W46440   8.342  17.714  15.075 -0.0063  0.1010 -0.2093
33027W        W46441  10.155  10.401  11.949  0.2884  0.1124  0.2009
33028W        W46442   0.071  15.968   3.327  0.2321  0.3368  0.4466
33029W        W46443  15.727  16.145   1.203 -0.1334  0.1855  0.1431
33030W        W46444   2.858   8.303  10.377  0.0038 -0.1488 -0.0348
33031W        W46445   6.102   8.999   5.606  0.0458 -0.2810 -0.0201
33032W        W46446  18.298  11.152  10.501  0.0846  0.1243  0.2819
33033W        W46447  13.614   1.060   0.666 -0.0440  0.0981  0.0453
33034W        W46448   6.833   8.315   3.105 -0.0520  0.2137 -0.1276
33035W        W46449  14.801  16.142   2.095 -0.1127  0.1180 -0.0167
33036W        W46450  17.491   0.247   5.418 -0.3052  0.3138  0.1380
33037W        W46451  12.929   6.769   1.817 -0.0095  0.1844  0.0168
33038W        W46452  18.172   1.785  14.573  0.1675 -0.4472 -0.0411
33039W        W46453  10.636   7.055  11.685 -0.2667  0.2876 -0.2049
33040W        W46454   1.582   7.993   0.398 -0.1185  0.3516  0.2832
33041W        W46455  17.436   8.747  15.797 -0.2070  0.0756  0.3036
33042W        W46456  11.866  18.351  11.341 -0.2737  0.2286 -0.0605
33043W        W46457   1.838  11.155  13.701 -0.4116 -0.0330 -0.1707
33044W        W46458   8.887  15.519   0.854  0.1249  0.2563 -0.0387
33045W        W46459   3.304   8.460   4.201 -0.3581  0.3154  0.0002
33046W        W46460   0.096  16.909  15.947 -0.1940  0.1582 -0.0297
33047W        W46461   8.303  17.994   2.917 -0.1116  0.0180 -0.2120
33048W        W46462  14.182   6.249   6.651 -0.0362 -0.0099 -0.0213
33049W        W46463   5.155   5.042   2.373  0.0480  0.2402 -0.1154
33050W        W46464   0.766   7.689  15.116 -0.3329  0.0246 -0.2174
33051W        W46465  14.384   5.368   0.401  0.0589 -0.1269 -0.0821
33052W        W46466  17.949   2.587   5.890  0.0875 -0.3081 -0.1002
33053W        W46467   7.490  12.118   1.956 -0.1057 -0.0905 -0.1995
33054W        W46468  15.210   1.558  11.063 -0.0317  0.1595 -0.0515
33055W        W46469  15.685  17.236  10.357 -0.1773 -0.0722  0.0882
33056W        W46470  17.689  16.179   2.352  0.1356 -0.3146  0.0757
33057W        W46471   7.702  13.588  15.954 -0.0210  0.1140  0.0716
33058W        W46472   9.200   0.023   4.567  0.1263 -0.2841  0.3026
33059W        W46473  11.416  10.836  15.598 -0.3441 -0.0753  0.1609
33060W        W46474  13.546  14.316   0.233 -0.0410 -0.1877  0.2830
33061W        W46475  13.291   0.104   4.517  0.0608  0.0198 -0.1230
33062W        W46476  18.291   7.101  13.397 -0.2143  0.1230 -0.0023
33063W        W46477   8.036  11.286   3.836  0.0346 -0.2110 -0.2227
33064W        W46478  13.215  16.391   5.136  0.3415  0.4465 -0.0311
33065W        W46479  16.721  18.080  14.888 -0.1486 -0.0931 -0.1938
33066W        W46480   8.974  16.039  13.204  0.1593  0.2255  0.0491
33067W        W46481  11.698  12.036  12.087 -0.3063 -0.0551  0.1138
33068W        W46482   2.005  10.949  14.100  0.1963  0.3770 -0.1520
33069W        W46483  10.064  17.173   3.992  0.0971  0.1786  0.3149
33070W        W46484   6.020  10.942  14.890 -0.1397 -0.1273  0.2725
33071W        W46485   2.173   1.552   6.618 -0.1061 -0.0514  0.1358
33072W        W46486  14.614   0.974  10.080  0.1052  0.1107 -0.4234
33073W        W46487  11.879   1.090  12.217  0.3607 -0.6470 -0.0776
33074W        W46488  18.106  14.363   2.613  0.1550 -0.0938 -0.1189
33075W        W46489  11.383   0.978   2.089  0.0941  0.3475  0.0137
33076W        W46490   6.366   6.681   3.085 -0.1115 -0.1274 -0.1850
33077W        W46491  10.489   3.776  14.388 -0.2424  0.4252 -0.4107
33078W        W46492  17.180  11.186  11.340  0.0329 -0.2651  0.1076
33079W        W46493  14.458   5.301  15.073 -0.1222  0.1365 -0.1468
33080W        W46494  10.631  12.502   1.740 -0.3555  0.0365 -0.1207
33081W        W46495  14.561   2.477  13.049 -0.0572  0.2212  0.0439
33082W        W46496  15.761   4.164  13.272 -0.2697  0.1963  0.1209
33083W        W46497   0.987   3.173  14.147  0.0710 -0.0093  0.0933
33084W        W46498  13.910   7.029  15.953  0.0115 -0.0432 -0.0959
33085W        W46499   4.504  11.507  14.648  0.1325  0.4122  0.0424
33086W        W46500   9.294   2.862   4.009 -0.1347 -0.0531 -0.1406
33087W        W46501   1.361  14.208   3.817  0.1374 -0.2364  0.1083
33088W        W46502   9.392   2.588  15.646 -0.1150 -0.1157  0.0673
33089W        W46503  18.076  14.316  13.448 -0.2381 -0.1794 -0.0820
33090W        W46504   6.487  10.644   2.676 -0.0432  0.4377 -0.1708
33091W        W46505   5.815   1.269   2.257  0.0016  0.0011  0.0036
33092W        W46506   7.460  10.419   2.538 -0.3049 -0.1458 -0.1276
33093W        W46507   9.192   6.954   4.443  0.0383 -0.2215  0.0496
33094W        W46508   3.475  16.986  14.513  0.2273 -0.0310 -0.2490
33095W        W46509   5.852   1.810  15.903  0.3891  0.1879 -0.0245
33096W        W46510   0.352   5.808  11.028  0.0983  0.3380  0.1674
33097W        W46511  16.764  18.041   3.021  0.1606  0.0859 -0.1246
33098W        W46512   3.729  11.151   4.930  0.0745  0.0171  0.0519
33099W        W46513  11.658  17.180  12.042 -0.2221  0.2428 -0.1867
33100W        W46514  17.373   7.839  11.898  0.1662 -0.3472  0.3576
33101W        W46515   7.005   4.595   2.799 -0.2958  0.0114  0.1071
33102W        W46516   4.362  17.594   3.594 -0.0060  0.4427 -0.1422
33103W        W46517  15.337   4.123   1.373 -0.1332  0.1714  0.0756
33104W        W46518   6.012   1.918   0.949 -0.3522  0.3852  0.3212
33105W        W46519   1.934  17.203   6.378  0.1693 -0.1226 -0.4578
33106W        W46520  17.144  13.418   2.442  0.0943  0.1385  0.1304
33107W        W46521  14.828   7.752   4.942  0.1665  0.0515  0.0290
33108W        W46522   3.154  17.923  12.094 -0.1844  0.0432  0.4204
33109W        W46523   9.017   8.473  16.051  0.0767  0.0911  0.3598
33110W        W46524  12.862   3.255  15.163  0.1000 -0.0946 -0.2084
33111W        W46525   6.480   8.856  10.038 -0.2075  0.0280 -0.0766
33112W        W46526   4.633   0.972   2.508 -0.0045 -0.1387  0.1462
33113W        W46527  16.748  13.209  12.530  0.0591 -0.2118 -0.2619
33114W        W46528  13.052   8.203   1.639 -0.2897  0.2776 -0.2560
33115W        W46529  18.172   5.707   1.411  0.2450  0.0605 -0.1254
33116W        W46530  12.670  15.002   2.596  0.2018 -0.1107 -0.0682
33117W        W46531   0.054   6.112   0.166  0.0732  0.2464  0.0361
33118W        W46532   3.360   4.341  12.712 -0.0382  0.0777 -0.0135
33119W        W46533   6.526   2.082   1.623  0.3731 -0.1411  0.0161
33120W        W46534   2.389   3.115  14.772  0.0280  0.1703  0.1428
33121W        W46535   3.043  14.315   2.156  0.1977  0.1834 -0.0075
33122W        W46536   9.230  11.112  11.543 -0.1892  0.1684 -0.1408
33123W        W46537  14.535  10.452   3.869  0.0333  0.0481 -0.0728
33124W        W46538  17.817   4.388  12.483  0.0262 -0.2487  0.0310
33125W        W46539   9.470  14.703   3.648  0.3482 -0.1274 -0.2606
33126W        W46540   2.150  10.279  10.628 -0.1139  0.1460 -0.0112
33127W        W46541   1.146  11.876  16.008  0.2683 -0.1292  0.1367
33128W        W46542  14.705   2.931   0.507  0.1348 -0.0651  0.2846
33129W        W46543   0.014  17.477   0.776  0.0197  0.2409 -0.1579
33130W        W46544  14.574   2.619  15.801 -0.0016  0.2927 -0.0743
33131W        W46545  11.118   1.657  11.291 -0.0372  0.0364  0.5881
33132W        W46546   7.426   6.701  13.564  0.2325  0.1553 -0.3383
33133W        W46547   0.142   6.977  12.819 -0.0506 -0.0472 -0.0336
33134W        W46548   2.239   6.936  11.109  0.3745 -0.0659  0.1068
33135W        W46549   5.391  10.975  13.670 -0.0717 -0.0309 -0.2613
33136W        W46550   2.704   8.955   2.975  0.1517  0.1681 -0.3543
33137W        W46551   7.828   4.957  11.304  0.2053  0.1156  0.2818
33138W        W46552  16.333   1.425   5.569  0.5302 -0.2228 -0.1709
33139W        W46553   5.156  10.875   3.540 -0.5453 -0.2056  0.1158
33140W        W46554   6.542  12.235  14.820  0.0624 -0.0107  0.0616
33141W        W46555   6.743   2.391   6.236 -0.0929 -0.0527 -0.0648
33142W        W46556   1.223   0.460   3.011  0.1478 -0.0069 -0.0428
33143W        W46557   9.094  14.401   3.576 -0.3078  0.2497  0.2482
33144W        W46558  10.668   7.541   3.612 -0.0253 -0.0151  0.2101
33145W        W46559   7.025   2.237  12.649 -0.0357 -0.1794 -0.0856
33146W        W46560   0.501  13.004  15.511 -0.0730 -0.2523  0.2563
33147W        W46561   3.275   1.654  15.731  0.1204 -0.1320 -0.1420
33148W        W46562  15.530   6.836  14.052 -0.2169  0.4021 -0.0221
33149W        W46563   1.404   1.045   6.160  0.2189  0.1731 -0.0915
33150W        W46564  14.884  11.599   3.480  0.0695  0.1284  0.2470
33151W        W46565  16.947   1.583   2.975 -0.1107 -0.0882  0.1320
33152W        W46566  12.654  12.478   2.538 -0.0627 -0.1721  0.2465
33153W        W46567  10.505  17.073  13.383  0.3754 -0.0089  0.1296
33154W        W46568   6.643  10.369  15.472 -0.0629  0.3106 -0.1519
33155W        W46569   2.791   6.205   3.511  0.0900 -0.0300 -0.0356
33156W        W46570   7.673   0.883  15.637  0.1937 -0.1942  0.2736
33157W        W46571  14.983  15.502   0.835  0.2842  0.0720 -0.0538
33158W        W46572  18.285   6.126  14.382  0.1440  0.0812  0.2074
33159W        W46573   0.221   3.253  11.907 -0.1090  0.1605 -0.1106
33160W        W46574   1.892   5.557   4.695  0.4652 -0.1466  0.0811
33161W        W46575   0.464   2.025  13.767  0.0498 -0.0442 -0.0010
33162W        W46576   4.024  17.950   3.448  0.0311 -0.2514  0.1661
33163W        W46577  14.909   5.692   6.245 -0.2209  0.0020 -0.0820
33164W        W46578   5.895  12.019  12.872 -0.0550 -0.2401  0.3002
33165W        W46579   0.340   6.274   2.054 -0.1699 -0.0329 -0.0627
33166W        W46580  12.655   8.387  15.287 -0.2373 -0.2264 -0.2768
33167W        W46581   0.116   8.426   3.957 -0.2473  0.0223 -0.1034
33168W        W46582   5.850   7.143  15.427  0.1675  0.1848 -0.1869
33169W        W46583  12.699  16.721   0.177  0.2009  0.0257 -0.0892
33170W        W46584   1.109   1.858   3.007  0.1423  0.0297 -0.7341
33171W        W46585  17.584   5.901  14.242  0.1755  0.1464 -0.0208
33172W        W46586   7.519   1.060   0.690  0.0457  0.0225 -0.2387
33173W        W46587   4.940   1.868  15.498 -0.0844  0.1515 -0.2309
33174W        W46588  12.688  16.221  15.288 -0.1792  0.0639 -0.3335
33175W        W46589  10.441   7.539  11.936 -0.2165  0.0177  0.1540
33176W        W46590   7.801   5.136   6.058  0.1134  0.0575 -0.1402
33177W        W46591  14.697   2.028  10.840 -0.0837  0.1007  0.0982
33178W        W46592  16.174  14.462  13.082  0.1829 -0.0934  0.1544
33179W        W46593   4.627   1.369  11.036 -0.0269  0.1370 -0.1081
33180W        W46594   3.059   7.989   4.023 -0.1397  0.0713  0.0229
33181W        W46595  11.626  14.964   4.904 -0.1506 -0.1570  0.1121
33182W        W46596  16.554   8.627   1.280 -0.1209 -0.0417  0.1448
33183W        W46597   2.807   3.047  13.381 -0.0416  0.0372  0.0707
33184W        W46598   2.999  17.405  12.052 -0.0860  0.1189  0.0675
33185W        W46599   7.719   5.273   1.112 -0.2016  0.2782 -0.0417
33186W        W46600   0.037   8.753   2.947  0.0134  0.0328 -0.1954
33187W        W46601  17.003   6.782  14.158 -0.1519  0.0895  0.0331
33188W        W46602   4.564  15.907  16.088  0.2633 -0.0985  0.0603
33189W        W46603   0.901  15.023   2.870  0.0860  0.1727  0.4393
33190W        W46604   6.804   2.984  10.408  0.0684  0.1218 -0.2623
33191W        W46605  16.106   5.813   3.833 -0.2371  0.0666  0.0833
33192W        W46606   0.558   4.018  13.136 -0.0116 -0.2376  0.2602
33193W        W46607   4.831   8.588  15.919  0.1364  0.0780 -0.3377
33194W        W46608  16.861   9.877  13.916 -0.0973  0.2414  0.2666
33195W        W46609   4.735  17.349   6.149 -0.2820  0.0213 -0.1639
33196W        W46610  13.949  17.754  12.004 -0.3943 -0.1829 -0.1174
33197W        W46611  15.787   9.877  12.749  0.3236  0.0516 -0.0106
33198W        W46612   7.753   3.444  11.396  0.2717 -0.0810 -0.2038
33199W        W46613  13.392   1.135   9.561  0.0132 -0.0595  0.1633
33200W        W46614   7.244  15.195   2.001  0.0178  0.1951 -0.1913
33201W        W46615   3.491  17.606  12.335  0.1162  0.4332  0.1257
33202W        W46616   1.930   4.604  14.874 -0.2738  0.1154  0.2273
33203W        W46617  16.266   9.963   1.590  0.1462 -0.1146 -0.2310
33204W        W46618  10.870   4.362  11.726 -0.2303 -0.1639  0.0192
33205W        W46619   6.211   4.343  13.440 -0.0307  0.0900 -0.0087
33206W        W46620   7.678  16.873   6.121 -0.0208 -0.1712 -0.0261
33207W        W46621   1.326   1.145   1.367 -0.0719 -0.0350  0.0006
33208W        W46622   3.016   7.191  13.192 -0.0737 -0.2994 -0.0971
33209W        W46623  14.346  11.370  12.423  0.1823 -0.3481  0.0952
33210W        W46624   2.999   1.987   1.144 -0.0581  0.2171  0.1061
33211W        W46625   6.783  14.742   5.427  0.2832 -0.0460 -0.0139
33212W        W46626   5.137   3.712   1.890  0.3938 -0.2145  0.0543
33213W        W46627   5.700   1.269  15.844  0.2477 -0.2788 -0.1948
33214W        W46628  13.735   4.799   1.715 -0.0618 -0.2603  0.2351
33215W        W46629   3.077   5.050   1.968 -0.1758  0.0841 -0.3016
33216W        W46630   9.316  13.368   0.849 -0.1206  0.0657  0.1886
33217W        W46631   5.005  14.862  13.149  0.0687 -0.1952 -0.1497
33218W        W46632  18.389  17.362   4.214  0.0484  0.0949 -0.2377
33219W        W46633   8.561   4.542  11.200 -0.0649  0.0531 -0.4165
33220W        W46634   6.285   5.678   2.134 -0.0209  0.0473  0.0236
33221W        W46635   1.131  15.318   5.185  0.1022 -0.2109  0.1326
33222W        W46636   0.708  15.094   0.550  0.1392  0.2684  0.1279
33223W        W46637  15.808   2.363   3.342  0.1701  0.0588  0.3200
33224W        W46638   2.855   1.412   1.793  0.0205  0.1435 -0.0823
33225W        W46639   5.033  16.306   1.357  0.1816 -0.1163  0.0676
33226W        W46640  11.454   0.151   1.008  0.0384 -0.6097 -0.0006
33227W        W46641  15.027   2.386  10.070 -0.2458  0.0646  0.2994
33228W        W46642   1.698  17.995   6.487  0.0507  0.0551  0.2078
33229W        W46643   9.021   9.461   9.759 -0.1371  0.1596 -0.1754
33230W        W46644  17.240  16.846   0.162 -0.1695  0.2941  0.0210
33231W        W46645   8.606  13.970   0.586  0.1470  0.0176  0.2017
33232W        W46646  11.555   0.954  10.486 -0.0611  0.1007  0.0576
33233W        W46647  14.680   7.068   4.782  0.0785  0.1491  0.0482
33234W        W46648   4.023   6.957  15.806 -0.1542  0.1813 -0.2886
33235W        W46649   0.292   3.979   5.311 -0.1433  0.0597 -0.0716
33236W        W46650   5.934   7.984   2.615 -0.3362 -0.1315 -0.0601
33237W        W46651  13.909   3.044   1.109  0.1967 -0.0766 -0.1585
33238W        W46652  17.431  12.780  10.982 -0.1277  0.1209 -0.1343
33239W        W46653   0.786   2.208   6.040  0.1654 -0.0006  0.2721
33240W        W46654   1.731  11.714  16.105 -0.0798 -0.0180 -0.0108
33241W        W46655   2.367   2.398   1.926 -0.0191  0.3923  0.1172
33242W        W46656  17.929   9.598  13.620  0.3824 -0.1722 -0.1271
33243W        W46657   3.345  13.071   4.925 -0.4522 -0.0193  0.1463
33244W        W46658  14.978   0.954  13.618 -0.1963 -0.0590 -0.2252
33245W        W46659  11.917  10.811  14.898 -0.2284  0.2960 -0.0255
33246W        W46660   0.459   7.947  12.558 -0.1386  0.0553  0.2384
33247W        W46661   0.690  16.226  15.677 -0.1134 -0.1963  0.3160
33248W        W46662   5.733   2.710   0.672  0.0870  0.0593  0.3139
33249W        W46663  15.328  12.694   1.851  0.0568  0.2200 -0.0485
33250W        W46664   7.165  16.929   1.140 -0.0552  0.2084  0.4430
33251W        W46665  17.262  15.612  10.806  0.0370  0.1737  0.3320
33252W        W46666   6.903  15.772  11.385 -0.0540 -0.0778 -0.0115
33253W        W46667   3.075   3.329  13.667  0.0469 -0.0427  0.2165
33254W        W46668   5.520   9.500   2.200  0.4898 -0.1423  0.1834
33255W        W46669  14.787   4.071   5.054 -0.0947 -0.2944 -0.1658
33256W        W46670  13.520   2.564  10.660 -0.1280  0.1300  0.2036
33257W        W46671   7.230   7.561   5.171  0.2180  0.4183 -0.0102
33258W        W46672   9.909   1.420   4.168  0.1352 -0.2492 -0.2473
33259W        W46673  13.980  14.569  14.303 -0.0308  0.1840  0.0889
33260W        W46674   6.725   3.151  12.658  0.1396 -0.1742 -0.0987
33261W        W46675  15.806  12.138   1.346  0.0241  0.1761  0.0782
33262W        W46676   8.221   6.871  15.195  0.0182  0.0904  0.5458
33263W        W46677  12.245  18.362  12.200  0.2279  0.1183  0.1512
33264W        W46678  13.672  12.685  11.547 -0.1217 -0.2007 -0.1840
33265W        W46679   1.908   6.016  11.841 -0.0077 -0.0912  0.4569
33266W        W46680   4.709   7.611   0.933 -0.0767 -0.0091 -0.1743
33267W        W46681   1.610   9.179  15.320 -0.1484  0.0898 -0.0007
33268W        W46682   2.831  16.916  12.677 -0.3237  0.0304  0.3423
33269W        W46683  12.264   8.860  12.089 -0.0508  0.0385  0.0957
33270W        W46684  16.747  10.215  15.580  0.1599 -0.1525  0.0704
33271W        W46685   7.713   7.085   1.298  0.0443  0.0429  0.1402
33272W        W46686  11.164  13.855   3.800 -0.4545  0.2481  0.0026
33273W        W46687   9.277   1.198   4.101  0.2937 -0.2373 -0.0626
33274W        W46688   6.889   5.775  14.376 -0.0007 -0.0197  0.0284
33275W        W46689  12.429  18.415  11.438  0.2288 -0.1820 -0.3870
33276W        W46690   2.944   3.295  15.774 -0.0969 -0.0946 -0.2208
33277W        W46691   8.848  18.144   4.844 -0.0550  0.1738  0.3134
33278W        W46692   8.451   8.163   4.390 -0.3207 -0.2943  0.0417
33279W        W46693  16.159  12.819   0.395 -0.4775 -0.0960  0.3294
33280W        W46694   4.840  13.131  10.913 -0.2950  0.1265  0.2193
33281W        W46695   8.420   7.388  11.133 -0.3942  0.2641 -0.1076
33282W        W46696   3.276   8.353   3.224 -0.1733  0.1829 -0.1086
33283W        W46697   4.330   0.303  16.072 -0.2715  0.0032 -0.0361
33284W        W46698   4.792  14.390  16.242  0.2182  0.1530 -0.0336
33285W        W46699  11.428  18.231   4.294 -0.2863  0.0127  0.1415
33286W        W46700  14.197   7.231  11.269 -0.2239 -0.0492  0.1846
33287W        W46701  12.145  16.383   1.793  0.0227  0.3512  0.3234
33288W        W46702  11.342   4.243   2.359 -0.0204 -0.3575 -0.2999
33289W        W46703   2.000  11.283   2.780 -0.1859 -0.0918  0.0293
33290W        W46704   0.060   8.714   3.537  0.0850  0.2030  0.0618
33291W        W46705   1.360   6.118   2.902  0.1857  0.1162 -0.0499
33292W        W46706  13.211   6.004  13.704 -0.0658 -0.1794  0.1661
33293W        W46707  17.624  16.037   2.806 -0.0501  0.1642 -0.1391
33294W        W46708   4.204  12.287  10.926  0.0165 -0.3759 -0.2277
33295W        W46709   7.538   1.963   1.637 -0.4298  0.0992 -0.0873
33296W        W46710  14.722   7.620   2.604  0.2804  0.0126 -0.0610
33297W        W46711   2.268   8.030  14.060 -0.0416 -0.2546 -0.0097
33298W        W46712  12.697  15.413  10.650  0.1322  0.0144 -0.1629
33299W        W46713  10.194  17.289   1.244 -0.1198 -0.0702 -0.1755
33300W        W46714   2.777  10.883   3.506 -0.1574 -0.2353  0.0333
33301W        W46715   7.718   6.336   0.721  0.1541  0.3085 -0.0628
33302W        W46716  13.687   0.804   1.118  0.1595 -0.0531  0.0515
33303W        W46717   3.429  16.251  14.575  0.4602  0.3110  0.1094
33304W        W46718  15.001   2.310   2.799  0.1456  0.2625  0.2119
33305W        W46719  11.953   8.797   3.511  0.2421 -0.0074  0.0670
33306W        W46720   0.314   0.680   4.618  0.0472 -0.2291 -0.2347
33307W        W46721  15.305   2.358  10.488  0.0776  0.1824  0.2458
33308W        W46722   5.603  12.362   4.625  0.0617 -0.3738  0.0451
33309W        W46723  14.948   3.316   4.689  0.0675  0.0703  0.1604
33310W        W46724  16.656  14.336   3.780 -0.1431 -0.2232  0.0417
33311W        W46725  14.373  15.981  13.938 -0.4456 -0.0031 -0.1895
33312W        W46726   1.477   4.522   6.659  0.0810  0.2370 -0.1553
33313W        W46727   6.233   0.196  14.260 -0.4151 -0.0093  0.1025
33314W        W46728   8.812  10.157   2.543  0.1868  0.1639 -0.1678
33315W        W46729  18.168   4.476  12.120  0.2000 -0.0419  0.1024
33316W        W46730   8.740  14.759  15.057  0.3078  0.0974 -0.0976
33317W        W46731  14.812   5.192  11.027 -0.0819  0.2128 -0.2491
33318W        W46732   9.137   0.318  14.137 -0.2283  0.0515  0.3839
33319W        W46733   1.050  14.251  15.253  0.1356 -0.0558  0.1508
33320W        W46734   4.585   1.292  12.893  0.0921 -0.1297  0.0438
33321W        W46735  11.935   2.123   4.287  0.0928  0.1320 -0.0722
33322W        W46736  16.040   6.534  11.927  0.0393  0.1899  0.1654
33323W        W46737   4.992  14.318  14.601  0.0742 -0.0021 -0.2824
33324W        W46738  16.844   4.006   5.971  0.0374  0.3321 -0.1560
33325W        W46739   8.945   3.686   5.468  0.1360 -0.1021 -0.0151
33326W        W46740  17.370   2.955   4.739 -0.0315  0.0218 -0.1535
33327W        W46741  15.216   2.994  12.145 -0.0700 -0.1759 -0.2040
33328W        W46742   8.984  13.734   3.697 -0.3032  0.1711  0.0913
33329W        W46743   2.307   3.475   0.461  0.2687  0.0937  0.0273
33330W        W46744   5.428  17.718   3.070  0.1187 -0.0691  0.1630
33331W        W46745   0.092  10.576  13.018 -0.1299 -0.2591 -0.2073
33332W        W46746   5.665   6.099   2.324  0.2375 -0.1739  0.3946
33333W        W46747   7.698   5.615   2.649  0.0588 -0.0742  0.0271
33334W        W46748   1.061   5.554  13.850  0.0366 -0.0053  0.2491
33335W        W46749   7.361   2.750   0.357  0.0214 -0.1233  0.3179
33336W        W46750   2.346  14.674  12.647 -0.1594  0.0941  0.1350
33337W        W46751   7.001  14.863   2.237 -0.0005  0.1850 -0.1189
33338W        W46752  15.912   7.965   6.038 -0.1204 -0.1413 -0.1020
33339W        W46753   7.841  10.315  12.882 -0.1632  0.1763  0.0836
33340W        W46754   9.441   9.457   2.330  0.3876 -0.0736 -0.0194
33341W        W46755  15.555   2.880   2.541  0.1494  0.1454  0.0823
33342W        W46756   8.444  11.736  16.130  0.1841  0.1996  0.2509
33343W        W46757  15.769  17.556  11.702 -0.1646  0.2293 -0.0526
33344W        W46758  11.073   6.460  12.867 -0.2255  0.0694 -0.1524
33345W        W46759   9.107  15.022   5.747 -0.0120 -0.0792 -0.1145
33346W        W46760   5.369   9.594   5.124  0.1770 -0.0856 -0.1738
33347W        W46761   6.743  15.003  13.162 -0.2411  0.2014  0.1822
33348W        W46762  10.278   7.707   3.321  0.0750 -0.0130  0.0454
33349W        W46763   5.963  12.003  16.230 -0.1464 -0.2977 -0.4661
33350W        W46764   7.507  10.198  15.663  0.2286 -0.0748 -0.0659
33351W        W46765  17.561  10.740   4.129 -0.1163  0.2672 -0.3915
33352W        W46766   7.698   9.296  11.140 -0.2833  0.0481  0.1880
33353W        W46767  17.833   1.984   4.875 -0.1384 -0.1977  0.0240
33354W        W46768   1.229  10.897   4.119 -0.0474  0.0651  0.1257
33355W        W46769  16.783  14.613   5.135 -0.2167  0.2309  0.1912
33356W        W46770   5.693   6.137   4.757 -0.3054 -0.0806  0.0501
33357W        W46771  16.377   4.274  13.843 -0.1277 -0.2331 -0.0627
33358W        W46772   5.931  12.410   0.857 -0.1552 -0.0390  0.3202
33359W        W46773  12.374   8.197   0.757  0.2290 -0.1516 -0.0283
33360W        W46774   2.183   4.395  11.038 -0.1929 -0.0706  0.0496
33361W        W46775   9.184   4.498  13.810  0.0782  0.5247 -0.2021
33362W        W46776   3.119   7.640  15.593 -0.0271 -0.0572 -0.1210
33363W        W46777   7.457   3.095  11.160 -0.3018 -0.1440 -0.1618
33364W        W46778   3.828   8.140  11.128  0.0185  0.2904  0.1047
33365W        W46779   9.334   9.516  10.579  0.1359 -0.1860  0.0948
33366W        W46780  13.340   4.101  13.379  0.0535  0.0904 -0.1670
33367W        W46781  12.601   9.740  14.835 -0.0842  0.2939 -0.0898
33368W        W46782  13.984   0.256   2.211  0.2527  0.0443 -0.0071
33369W        W46783   7.626  10.828  12.497 -0.1089 -0.1045  0.0665
33370W        W46784  14.403   2.879  13.289 -0.1911 -0.1463  0.1436
33371W        W46785   3.202  17.726  12.996 -0.0684  0.0637  0.4255
33372W        W46786  13.407   3.950  14.124 -0.0015 -0.0821  0.0030
33373W        W46787   8.333   9.264   5.926 -0.3697  0.3618  0.4240
33374W        W46788  18.396  13.777   1.895 -0.1364 -0.1035 -0.1129
33375W        W46789  16.078  18.119   4.216 -0.2784  0.2007 -0.0837
33376W        W46790  17.087  10.454   4.174 -0.1775  0.2414  0.1363
33377W        W46791   4.606  17.495   5.278  0.0780 -0.0644  0.3154
33378W        W46792   0.458   4.287  11.440  0.2593  0.0759  0.1110
33379W        W46793   1.607  18.274  13.472  0.1957  0.2237  0.0622
33380W        W46794  17.596  12.201   3.994 -0.0211  0.1897  0.1787
33381W        W46795  11.306  10.043  11.415 -0.0307 -0.1224  0.1813
33382W        W46796   3.139  10.382  12.534 -0.0018 -0.1301 -0.2923
33383W        W46797  17.495  15.794  14.943 -0.2246 -0.3205 -0.0180
33384W        W46798   9.309   8.878   2.397  0.4335 -0.1561  0.1597
33385W        W46799   6.088  17.586   4.319 -0.1704  0.0023  0.1297
33386W        W46800   9.379  12.162   2.426  0.0923  0.1708  0.1224
33387W        W46801   0.903  12.817   3.537 -0.2485 -0.2888 -0.0944
33388W        W46802  16.549  10.913  12.640  0.0230 -0.0334  0.2241
33389W        W46803   2.206   4.649   0.525  0.0845  0.0720  0.2447
33390W        W46804   9.750  14.743   4.656  0.0117 -0.0400  0.1659
33391W        W46805  12.641  18.387   0.847  0.0523  0.0613  0.0437
33392W        W46806   9.722  10.682   4.260 -0.1909 -0.2057  0.1864
33393W        W46807   8.474   5.230   5.243  0.3923  0.1155 -0.2293
33394W        W46808   2.762   9.186   5.027 -0.2237 -0.0801 -0.0355
33395W        W46809  12.439   5.424  15.241  0.1467  0.1034 -0.2098
33396W        W46810   9.766  12.229   3.644  0.0640 -0.0182  0.1320
33397W        W46811   3.037   2.829  12.978  0.1798  0.0615  0.0769
33398W        W46812   9.138   7.062   3.924 -0.1230  0.0608  0.1506
33399W        W46813   7.095   3.701   2.444 -0.2666  0.0964 -0.1140
33400W        W46814   4.533  12.503  12.689  0.0300 -0.0006  0.5032
33401W        W46815   2.490  17.097   3.389 -0.0935 -0.1758 -0.1238
33402W        W46816  10.592   1.786   0.421  0.1068 -0.3434  0.0955
33403W        W46817   4.682   7.121   0.220  0.0283  0.0079 -0.2828
33404W        W46818   9.137  14.795   5.301  0.2868  0.1009 -0.1601
33405W        W46819  10.081   8.618  12.168 -0.1337 -0.0405  0.2073
33406W        W46820   9.746   1.612   0.581  0.1904 -0.0963  0.2020
33407W        W46821   6.639   4.741  10.264  0.0224 -0.0185  0.2072
33408W        W46822  16.579  12.232  13.947 -0.2552  0.1213  0.1440
33409W        W46823   2.016   0.402  14.887  0.1157 -0.3541 -0.3261
33410W        W46824  13.561   8.854  13.320  0.1720  0.4405  0.0535
33411W        W46825   8.767   8.261  11.435 -0.1110 -0.0108 -0.2429
33412W        W46826  17.414  12.568  16.044  0.0548  0.0234 -0.2185
33413W        W46827   1.881   4.992   2.036 -0.0967  0.0683 -0.3526
33414W        W46828   7.241  12.977  10.404 -0.0583 -0.3054 -0.0812
33415W        W46829  10.942   3.665  15.651 -0.2670 -0.1659 -0.4656
33416W        W46830  13.370   9.077   1.278 -0.1019 -0.0719 -0.0216
33417W        W46831   9.840   0.667   0.661 -0.0293 -0.1165 -0.1876
33418W        W46832   3.934   0.538   3.821  0.1167 -0.1368  0.1702
33419W        W46833   6.201  13.125  14.850  0.2115 -0.0348 -0.2933
33420W        W46834   1.486   8.804  13.469  0.0229 -0.0121 -0.0692
33421W        W46835   1.408   3.951   6.422  0.0929 -0.0703  0.0916
33422W        W46836   2.550  15.196   3.719 -0.2362  0.3751 -0.2868
33423W        W46837  11.779   7.815   4.172  0.2935 -0.0946 -0.2231
33424W        W46838  16.886   6.582  14.556 -0.1409  0.0318  0.1163
33425W        W46839  10.490   4.801  15.513 -0.1605 -0.0622  0.2628
33426W        W46840   1.011  13.082  16.207  0.0387  0.2134  0.0898
33427W        W46841   7.424   9.012  15.599 -0.1683  0.1480  0.2630
33428W        W46842  16.352  10.136   4.567  0.2247 -0.2435 -0.0963
33429W        W46843   7.470  12.116  11.795 -0.0387 -0.1361 -0.0228
33430W        W46844   3.955   2.796  15.620 -0.1677  0.1909 -0.0644
33431W        W46845   4.795  13.540  15.125  0.0014 -0.0825  0.1757
33432W        W46846   2.307  16.931   5.662  0.0272 -0.1073  0.1634
33433W        W46847  14.033  17.303   1.557  0.0749 -0.1348 -0.0242
33434W        W46848  12.353  17.621  12.553 -0.2941  0.0535  0.0401
33435W        W46849   0.262  15.967   1.247 -0.0785 -0.2497 -0.1778
33436W        W46850   0.183   4.829   0.037  0.0282  0.0130  0.3131
33437W        W46851  14.231  10.929  11.445 -0.0577  0.1677  0.0593
33438W        W46852   9.644   4.748  10.227 -0.2697  0.0230 -0.2855
33439W        W46853   1.907   0.266   5.147 -0.2368  0.2493 -0.0098
33440W        W46854  12.883   8.226  14.608 -0.0607 -0.1733  0.0403
33441W        W46855  13.658   9.901   5.941 -0.1378 -0.4912 -0.3443
33442W        W46856   7.966  15.753  14.298 -0.0844 -0.2232  0.3350
33443W        W46857  15.582   1.772  11.597 -0.2219  0.1563 -0.0032
33444W        W46858   0.268   5.852   5.156 -0.0126  0.0704  0.4114
33445W        W46859  10.987  14.040  12.964  0.3562  0.0664 -0.3503
33446W        W46860   6.041  17.568  11.654 -0.2001  0.1514 -0.1229
33447W        W46861   1.374  15.425   3.984 -0.0438  0.0675  0.0718
33448W        W46862  13.158  17.775  15.278 -0.3532 -0.0688 -0.0189
33449W        W46863   0.637  14.396   1.046  0.0624  0.0487 -0.1181
33450W        W46864   3.462   0.695   3.806  0.1158 -0.1681  0.1337
33451W        W46865  12.715   4.668   1.840 -0.0243 -0.3647  0.0728
33452W        W46866   4.544  16.894   2.278  0.2737  0.1600  0.1260
33453W        W46867  11.825   4.412  12.113 -0.2451 -0.0337  0.0525
33454W        W46868  16.684  16.308  15.299 -0.1056 -0.0387 -0.0083
33455W        W46869   2.543  11.061   4.486  0.5610  0.1424  0.1270
33456W        W46870   9.410   9.240   5.383  0.0251  0.3707 -0.1447
33457W        W46871   2.427  18.268   4.697  0.0615  0.1506  0.1145
33458W        W46872  14.383   0.818   0.229  0.2742  0.3209  0.0754
33459W        W46873   7.210   0.635  12.336 -0.1983 -0.1488 -0.0683
33460W        W46874  10.463  10.730  12.889 -0.3237  0.2194  0.3060
33461W        W46875   0.430   1.203  12.364  0.2350  0.0436  0.0982
33462W        W46876  16.807   9.966   4.256 -0.1166 -0.0780 -0.0292
33463W        W46877  12.364   4.500   4.163  0.0030 -0.0303 -0.2171
33464W        W46878  13.010   3.653  11.424  0.0294 -0.0631 -0.3017
33465W        W46879   7.799   5.430   2.136  0.0815 -0.1033 -0.0538
33466W        W46880   3.021  13.116  15.133  0.3213 -0.2197  0.0786
33467W        W46881   4.161   7.712  13.744  0.0820  0.0182  0.0719
33468W        W46882  10.868  13.361   2.015  0.0936 -0.1943 -0.2864
33469W        W46883   7.302  11.084  13.134  0.3896  0.0172  0.2690
33470W        W46884   9.605  13.690  12.292 -0.0212 -0.0258 -0.1007
33471W        W46885  11.550  17.401  11.579 -0.2062  0.0056 -0.0207
33472W        W46886   4.275   1.571  11.350  0.3698 -0.1284  0.1102
33473W        W46887   4.194   8.312  15.461  0.3301 -0.1993  0.1738
33474W        W46888  15.659   4.865   4.149 -0.0774 -0.0834 -0.3449
33475W        W46889   4.077  14.733   3.220  0.0475  0.0437 -0.2889
33476W        W46890   6.390   0.607  16.056 -0.0141 -0.2860 -0.1458
33477W        W46891  18.082   6.175   2.229 -0.0911  0.1022 -0.0770
33478W        W46892   2.602  12.796   3.776  0.0720  0.0205  0.2078
33479W        W46893  17.523  10.006   1.164 -0.0357 -0.0806  0.0246
33480W        W46894  14.322   1.889  11.750  0.0556 -0.1532  0.1012
33481W        W46895  12.603  15.310   2.113  0.1662  0.0375 -0.1228
33482W        W46896  10.412  14.629  14.593  0.0715  0.2673  0.0709
33483W        W46897   6.142   2.873  11.196  0.0168  0.1911 -0.2594
33484W        W46898   1.749   6.550   3.602  0.0832 -0.2963 -0.0793
33485W        W46899   1.478  18.175  12.979 -0.0174 -0.2239 -0.0417
33486W        W46900  10.420   8.617  12.476  0.3137 -0.0870 -0.1580
33487W        W46901   0.774   1.862   0.972  0.1947  0.0739 -0.2032
33488W        W46902   2.866  15.331   5.457  0.0577  0.4289 -0.1516
33489W        W46903  15.197   4.757   3.356 -0.0402 -0.0623  0.0097
33490W        W46904   7.347   2.150   6.263  0.0591 -0.0281 -0.1123
33491W        W46905   6.285  12.648  10.799  0.0278 -0.2243 -0.1509
33492W        W46906  15.803   4.856   3.683 -0.0084  0.1013 -0.0826
33493W        W46907   1.333   1.396  15.363  0.2050 -0.3630  0.0635
33494W        W46908  11.641   7.518   2.908 -0.1223  0.0552  0.1059
33495W        W46909   2.271   4.565   3.654  0.1346 -0.1319  0.1043
33496W        W46910   0.882  16.956   4.755 -0.2080 -0.2077 -0.1681
33497W        W46911   4.834  17.320  15.392  0.1627 -0.0547  0.0101
33498W        W46912  11.347   8.659   1.026  0.3215  0.2564 -0.3538
33499W        W46913   5.168  15.375  13.007  0.1038  0.3951  0.3236
33500W        W46914  17.544  17.309   1.621  0.3490 -0.1201  0.1601
33501W        W46915  11.207   5.387  11.757  0.0439  0.0604  0.3772
33502W        W46916   6.541  16.763  10.543  0.0386  0.0555  0.0585
33503W        W46917   9.310  12.726   5.097  0.2153 -0.3074  0.0179
33504W        W46918   8.100  14.282   2.310  0.3778  0.1754  0.0226
33505W        W46919  11.294   4.984   4.676  0.1371  0.0134 -0.0695
33506W        W46920  14.376   7.097  15.040 -0.1623  0.1904  0.0385
33507W        W46921   0.348  17.325   2.766  0.1143  0.0952 -0.1250
33508W        W46922   2.925   5.869   6.016 -0.1322  0.0948 -0.0582
33509W        W46923  12.114   8.544  15.365  0.1611  0.0619 -0.0183
33510W        W46924   1.901   8.340  15.830 -0.1338 -0.0615 -0.0507
33511W        W46925   1.427  13.350  10.757 -0.1899 -0.1599 -0.2292
33512W        W46926   1.630  10.166  12.322  0.0403  0.0444  0.3501
33513W        W46927   9.743  10.585   5.745 -0.0529 -0.0549 -0.2054
33514W        W46928   8.114   6.181   1.487 -0.1190 -0.1432  0.3905
33515W        W46929  12.544   7.208   0.981 -0.0035 -0.2271  0.0986
33516W        W46930  14.941   5.342   3.932 -0.3402  0.2770 -0.0836
33517W        W46931   5.222   0.763   3.955  0.1141  0.2612 -0.1823
33518W        W46932  17.790   5.536   3.746  0.0250 -0.0740 -0.1000
33519W        W46933   1.263  11.671   1.679 -0.0011  0.3976  0.2236
33520W        W46934   0.901   3.819   4.875 -0.1239  0.0536  0.2070
33521W        W46935  15.563  12.263  15.390  0.3091  0.2371 -0.2533
33522W        W46936   4.756   6.385   5.460 -0.2825 -0.2772 -0.0263
33523W        W46937  15.365   8.550  13.571  0.1392 -0.3409  0.2305
33524W        W46938  17.020  12.224  15.892 -0.0179 -0.0035  0.0660
33525W        W46939   3.599  16.762   2.747 -0.0291  0.3473  0.1607
33526W        W46940   7.448  14.328  10.931  0.3676  0.0447 -0.1103
33527W        W46941   0.693  17.714   3.643 -0.0071  0.0042  0.0010
33528W        W46942  15.738   6.797   1.552 -0.2468 -0.1196  0.1233
33529W        W46943   3.269   6.091  13.651 -0.0404  0.1995  0.0191
33530W        W46944   3.983   7.413   0.278  0.3180  0.2917  0.0054
33531W        W46945  17.202   6.367  15.332  0.1431  0.1386 -0.2136
33532W        W46946  17.472  17.117  11.582  0.2415  0.0865 -0.0552
33533W        W46947   3.354  12.629   1.185  0.1577  0.3840  0.0896
33534W        W46948   9.391   0.376   4.842 -0.0659 -0.1887 -0.0668
33535W        W46949  13.066   8.657  12.659  0.0892 -0.3544  0.2063
33536W        W46950  15.427   7.342  14.297 -0.0908 -0.0701  0.0087
33537W        W46951   5.916  14.297   0.974 -0.0681 -0.2990 -0.2430
33538W        W46952   2.789   8.635   0.207  0.0074  0.2009 -0.0488
33539W        W46953  13.576  12.142   6.258  0.3590 -0.2305  0.1927
33540W        W46954   3.920  17.148   2.695  0.1463 -0.1510 -0.0947
33541W        W46955   8.337   3.194   1.438  0.3141 -0.3856 -0.0061
33542W        W46956  17.908   7.135  15.470 -0.1773 -0.2546  0.0786
33543W        W46957  15.214  10.057   3.505 -0.1747 -0.0755  0.1059
33544W        W46958  16.576   5.829  14.751  0.0555 -0.2022  0.1003
33545W        W46959   4.554  10.594   4.882  0.1405 -0.0808 -0.0055
33546W        W46960  14.865   7.000   3.868 -0.0270  0.2373 -0.3308
33547W        W46961  13.987   7.672   4.837  0.0982  0.1951 -0.1962
33548W        W46962   5.468  13.811   0.050 -0.1752 -0.2505  0.0966
33549W        W46963   8.311  13.351  11.232 -0.2239  0.0879  0.1618
33550W        W46964   9.491  11.612  13.730  0.2439  0.1040  0.2112
33551W        W46965   6.281  12.873   4.556 -0.0606 -0.0130 -0.0371
33552W        W46966  12.391  13.940   0.170 -0.0150 -0.1069  0.1214
33553W        W46967  15.728  13.539   4.151  0.0619  0.0107  0.1073
33554W        W46968  10.098   1.025   2.500  0.0885  0.1619 -0.2944
33555W        W46969  11.341   4.755  12.683 -0.1693 -0.2179  0.1129
33556W        W46970   8.881   3.337   2.698 -0.2318  0.2129 -0.1913
33557W        W46971   3.742   3.312  11.626 -0.0311  0.1904 -0.2111
33558W        W46972   3.797   6.847  13.848  0.2737  0.0647  0.0418
33559W        W46973   9.235   4.422   4.301 -0.0580  0.2229 -0.2131
33560W        W46974  13.260   9.875  11.131  0.0097  0.0251  0.1369
33561W        W46975  18.215   0.584   0.006 -0.0111  0.1308  0.2493
33562W        W46976  12.583  12.059   6.297 -0.0193 -0.2890  0.1517
33563W        W46977  17.777   9.270  16.016 -0.2665 -0.1196  0.1264
33564W        W46978   7.787   0.656  13.070 -0.1017  0.1162 -0.2457
33565W        W46979  10.322   3.588  13.421  0.1356  0.0062 -0.0105
33566W        W46980   9.270   6.422  12.347  0.2257  0.3413 -0.0306
33567W        W46981  15.091  12.882   1.021 -0.0856  0.3541 -0.0849
33568W        W46982   6.066   0.695  10.691  0.3619  0.0505  0.1429
33569W        W46983   2.527  17.823  13.647  0.1688 -0.2593  0.1967
33570W        W46984  12.810   0.611   2.926 -0.0471  0.0176 -0.2816
33571W        W46985   9.669  13.297   2.898 -0.0460 -0.4323 -0.4441
33572W        W46986   2.134   7.471   4.991 -0.0131  0.0064  0.1840
33573W        W46987   4.236   6.504  13.975 -0.0371  0.1407 -0.2235
33574W        W46988  14.898   4.588  15.136 -0.1368 -0.0216  0.2400
33575W        W46989  15.387   8.656   3.395  0.1158  0.2582  0.0166
33576W        W46990   5.516  12.958   0.430 -0.2446 -0.0877 -0.2902
33577W        W46991   7.519  13.435  11.619  0.0126  0.1388 -0.1477
33578W        W46992  11.291  12.227  15.093 -0.1097 -0.1250  0.1928
33579W        W46993  15.567   0.475  12.097  0.0530 -0.0648 -0.0488
33580W        W46994  10.878  13.640   1.212 -0.0640  0.0178  0.0121
33581W        W46995   8.720   1.988  11.921  0.0906  0.2268 -0.0456
33582W        W46996  11.948   2.998  13.360  0.5569  0.0342  0.2836
33583W        W46997  16.972   1.513   6.038 -0.0266  0.0100 -0.1320
33584W        W46998  10.954  10.222   4.111 -0.0752 -0.0829  0.1185
33585W        W46999  17.860   4.785  13.687 -0.1862  0.2017 -0.1612
33586W        W47000   6.549  16.395   4.426  0.1404 -0.1779  0.0365
33587W        W47001   0.244   4.240   5.755  0.2154 -0.2914  0.0499
33588W        W47002  12.406  10.793   1.234  0.3355 -0.3635 -0.2729
33589W        W47003   7.348  14.685  15.077 -0.2268 -0.2762  0.0832
33590W        W47004  10.089   1.211  14.835 -0.1101  0.0239  0.0660
33591W        W47005   7.720  10.942   3.085  0.0289  0.1667 -0.1435
33592W        W47006   0.153  16.228  14.358 -0.3579  0.0606  0.1778
33593W        W47007  15.665  12.679  10.360 -0.2549 -0.1940 -0.1307
33594W        W47008  15.533   4.215   6.180 -0.1818  0.2031 -0.1840
33595W        W47009   9.146   7.794  12.769  0.2071  0.0539  0.1422
33596W        W47010   2.875   4.829  15.513  0.4732  0.2965  0.0008
33597W        W47011   1.549  17.262  11.713 -0.1889 -0.4314  0.0160
33598W        W47012   1.123   8.323   3.170 -0.3003 -0.3348  0.1739
33599W        W47013   2.490   0.298   4.888 -0.0644  0.1626 -0.0333
33600W        W47014   7.454  10.694   2.125  0.0234  0.3267 -0.2144
33601W        W47015  13.942   5.376   0.697  0.0098 -0.0131 -0.0240
33602W        W47016   5.886  13.399  12.758 -0.0082  0.2785  0.0943
33603W        W47017   4.114   2.593  12.225 -0.1292  0.2486 -0.2338
33604W        W47018   1.169  12.246  13.078 -0.0572  0.1764 -0.1962
33605W        W47019   6.887   3.904  13.207 -0.0479  0.0691  0.0544
33606W        W47020  15.276  14.824  14.442 -0.0192 -0.2461 -0.0825
33607W        W47021  16.472   9.677   3.291  0.1467  0.0470 -0.0061
33608W        W47022  13.673  12.967   9.971 -0.0022 -0.4790  0.1889
33609W        W47023   0.572   2.705   6.073 -0.0360  0.2254  0.1751
33610W        W47024   0.918   7.338  12.071 -0.2106 -0.2776  0.2016
33611W        W47025  17.805   4.194   5.549 -0.0952 -0.0358 -0.3136
33612W        W47026  17.967  13.223  13.915 -0.2614 -0.0178  0.4636
33613W        W47027   8.664   5.976   6.297  0.0195 -0.0507 -0.2511
33614W        W47028  17.738  12.097   5.066  0.3220 -0.6109 -0.0493
33615W        W47029  12.203   2.974   2.236 -0.0420 -0.0446  0.0569
33616W        W47030  13.758  10.088   2.094  0.1142  0.2520  0.0276
33617W        W47031   8.183   2.201   2.942  0.3235  0.1116 -0.0602
33618W        W47032   4.212   4.659  11.494  0.0057  0.0273 -0.1738
33619W        W47033  12.171   0.190  11.761  0.0390 -0.1072  0.0679
33620W        W47034   8.308  16.734  14.005 -0.4794 -0.1272  0.2266
33621W        W47035   5.161   2.113  13.710 -0.2700  0.4218  0.1580
33622W        W47036  17.830   6.579   4.429 -0.0290  0.0022 -0.0140
33623W        W47037   4.825  16.551   2.797  0.3163 -0.2400  0.0353
33624W        W47038   2.403   5.214  11.907 -0.0450  0.2524 -0.0575
33625W        W47039  15.671   8.614   2.462  0.0031 -0.0666 -0.2428
33626W        W47040  15.306  15.227  12.468 -0.0182 -0.2321 -0.0973
33627W        W47041   7.806   7.729   4.708 -0.0547 -0.0565 -0.2666
33628W        W47042   2.985   6.756  11.445  0.1105 -0.0444 -0.0186
33629W        W47043   3.990   4.058  11.902  0.2964 -0.1999 -0.1568
33630W        W47044  14.210   9.177   4.196 -0.0382 -0.0466 -0.0506
33631W        W47045  11.012   0.098  11.805  0.1826 -0.1056  0.3450
33632W        W47046   5.611  12.160  11.443 -0.3687 -0.1475  0.0339
33633W        W47047   6.979  11.344  13.399 -0.1480  0.0790 -0.1563
33634W        W47048   5.581  17.245   0.176  0.1014  0.1650  0.2190
33635W        W47049   4.328  14.444   0.470  0.3343 -0.2593 -0.1690
33636W        W47050   6.182   1.936  13.175 -0.2209  0.1345 -0.1590
33637W        W47051  15.851  11.678   0.517 -0.1124  0.1369  0.0576
33638W        W47052   7.099   2.371   0.062  0.3037  0.0671  0.1825
33639W        W47053   5.527  12.652  10.324 -0.0479  0.0940 -0.0614
33640W        W47054  10.940   4.317   5.183  0.2613  0.3087  0.1322
33641W        W47055   4.679  17.603  11.905 -0.0818 -0.0347  0.1339
33642W        W47056   0.200  15.948  15.172  0.4167  0.4906  0.1722
33643W        W47057  12.889   4.582   4.245  0.1860  0.0941  0.2025
33644W        W47058   3.358  17.531   0.866  0.0298 -0.0244 -0.2106
33645W        W47059  12.559   2.935  11.938 -0.0911 -0.0823 -0.1725
33646W        W47060   7.010  13.467   3.761 -0.3504 -0.1202 -0.0446
33647W        W47061  14.178  12.459   3.694 -0.1233  0.0512  0.0538
33648W        W47062  13.747  11.648   5.720  0.3401  0.0851  0.0715
33649W        W47063   7.289  17.294   9.895 -0.0410 -0.1064 -0.2275
33650W        W47064   9.217  15.701   4.620  0.0088 -0.2639 -0.1943
33651W        W47065  16.226  10.690   1.287  0.0330 -0.3929  0.3914
33652W        W47066  14.402   5.922   6.968  0.1279 -0.2076  0.4793
33653W        W47067   1.514   0.473  12.285 -0.3466 -0.0670 -0.0984
33654W        W47068   8.305   9.631   3.940  0.1005 -0.1041 -0.2905
33655W        W47069  17.020   1.040  16.133 -0.2885 -0.2289 -0.1834
33656W        W47070   0.016  17.362  13.803  0.2304  0.0428 -0.0358
33657W        W47071   8.290   2.222  15.668  0.1775  0.4106 -0.1693
33658W        W47072  17.003  10.785   3.441 -0.3809  0.2102  0.0323
33659W        W47073  11.233   4.409  13.888 -0.2399  0.1212  0.2259
33660W        W47074   9.887   8.593   9.941  0.0063  0.2360 -0.0307
33661W        W47075  15.741  15.588  16.021 -0.0954  0.1287  0.0627
33662W        W47076   6.557   1.573  13.624 -0.3809  0.1553 -0.3832
33663W        W47077   3.001  15.977   2.729 -0.1527  0.1063 -0.1931
33664W        W47078   7.983   3.736   0.608 -0.1357 -0.0052 -0.1794
33665W        W47079   4.966  16.844  15.184  0.1531 -0.1089  0.0297
33666W        W47080   2.610  14.162   1.944 -0.2738 -0.0413  0.1323
33667W        W47081  13.006   1.777  15.024  0.2212  0.2554  0.3104
33668W        W47082  14.309   8.287  11.653  0.1263 -0.1491 -0.3503
33669W        W47083  10.952  17.290   0.283  0.0791 -0.2541 -0.1812
33670W        W47084   9.507   1.114   5.814 -0.0283  0.0946 -0.1241
33671W        W47085  10.345   8.641   1.328  0.0433 -0.0951  0.0937
33672W        W47086  11.200  18.141  13.228  0.0305 -0.2465  0.1855
33673W        W47087  11.866  12.270  10.003 -0.4758 -0.0202  0.4177
33674W        W47088   4.016   4.904  11.895 -0.3296  0.0581 -0.0927
33675W        W47089  11.624   5.885   0.120 -0.0117  0.0797  0.1003
33676W        W47090  11.765  10.265   2.568 -0.1108 -0.2499 -0.1901
33677W        W47091  13.066   7.537  13.057 -0.2760 -0.0168  0.2691
33678W        W47092  11.839  12.143  10.498 -0.0097  0.0179 -0.0570
33679W        W47093   7.672   2.301   4.177 -0.1472  0.0677 -0.0527
33680W        W47094   0.844   2.549  12.536  0.3017 -0.0430  0.0221
33681W        W47095  10.608  14.894  11.418 -0.0821  0.0943 -0.2211
33682W        W47096   1.098  16.355   3.775  0.0341 -0.1637 -0.3212
33683W        W47097  13.031  16.559   0.557 -0.0395  0.0173  0.0089
33684W        W47098   1.500  15.079  14.355 -0.4572 -0.1740  0.1911
33685W        W47099   7.983   4.087   3.774  0.0746 -0.1061  0.0181
33686W        W47100   7.798  15.440  12.625  0.0903 -0.1112 -0.3158
33687W        W47101   5.282   7.300   1.627 -0.1546 -0.3112  0.2170
33688W        W47102   3.514   9.563   3.342  0.2941 -0.0431 -0.0100
33689W        W47103   7.510   6.506   5.129  0.1086 -0.0433 -0.1791
33690W        W47104   2.439   8.096  11.254 -0.0710  0.1383  0.2496
33691W        W47105  17.339  15.419  12.182  0.0239 -0.1695  0.2531
33692W        W47106   8.337  17.526   1.328 -0.1755  0.0081 -0.0037
33693W        W47107  11.292   6.797   3.458  0.2088 -0.0563 -0.1868
33694W        W47108  17.907   8.542   5.655 -0.3256 -0.0838 -0.3994
33695W        W47109  13.535   3.091  10.760  0.0190  0.0037 -0.0029
33696W        W47110  10.404   5.072  15.088 -0.2204 -0.3273 -0.0125
33697W        W47111  12.475   9.298  15.489 -0.0671 -0.1134 -0.1119
33698W        W47112   6.627   3.368   2.878  0.1159 -0.0682  0.2209
33699W        W47113   1.821   4.429   0.773 -0.0895 -0.0396  0.2360
33700W        W47114  11.707   6.127   2.272 -0.0714 -0.2232  0.2538
33701W        W47115  15.278   2.273   3.688  0.2657  0.3108 -0.0975
33702W        W47116  11.794   3.418  12.352 -0.0319 -0.0794  0.1130
33703W        W47117   9.083   2.800   4.902 -0.4015 -0.0974 -0.0903
33704W        W47118   2.122   7.416   1.896  0.1541 -0.2247  0.0522
33705W        W47119  14.777  15.067   0.111 -0.2536  0.1973  0.2517
33706W        W47120   6.819  11.136  15.918  0.1558 -0.3933 -0.0111
33707W        W47121  12.123   7.745  13.533 -0.0348 -0.0090 -0.0335
33708W        W47122  14.581  12.678  14.274  0.0201  0.2009  0.2873
33709W        W47123  10.287   2.705  12.788 -0.0424 -0.3150  0.4589
33710W        W47124   4.608  18.308  11.952  0.1165  0.0970 -0.0538
33711W        W47125   2.997   0.831   0.913  0.0304 -0.2413  0.1663
33712W        W47126  16.902   7.286   0.858  0.2927 -0.2090 -0.0899
33713W        W47127   6.551   5.751   3.208 -0.1679 -0.2454  0.0100
33714W        W47128  16.638   1.935  12.743 -0.0393 -0.3077 -0.0568
33715W        W47129   1.431   8.014   4.340 -0.1620 -0.1028 -0.0028
33716W        W47130   6.240  15.723   0.869  0.3022  0.0688  0.0729
33717W        W47131   0.776  16.511  12.631 -0.1153 -0.0241  0.0824
33718W        W47132   7.059  13.582  13.195 -0.1910 -0.0303 -0.1527
33719W        W47133  13.027   6.353  13.352  0.0225 -0.0303 -0.0553
33720W        W47134   5.635  10.247   1.393 -0.1079  0.0933 -0.1819
33721W        W47135  11.721   2.071   1.127  0.0983  0.1499 -0.0011
33722W        W47136   6.243   8.732   1.292 -0.2638  0.1680  0.1364
33723W        W47137  17.185  14.402   3.898  0.3420 -0.1507 -0.0078
33724W        W47138  14.890  13.670  15.006 -0.0191 -0.0018 -0.4355
33725W        W47139   1.333   5.878  14.205  0.0155 -0.0751  0.1687
33726W        W47140  13.908  13.008   0.293 -0.1494  0.3259 -0.3017
33727W        W47141  11.409   6.528   2.571  0.1398 -0.0158  0.0864
33728W        W47142   9.517   2.938   1.882 -0.0071 -0.0126 -0.3448
33729W        W47143   8.919   3.224  14.741  0.0935 -0.1338  0.5518
33730W        W47144   3.791   6.735   3.446  0.2878 -0.1014  0.4872
33731W        W47145  15.449  17.817   3.147 -0.0319  0.0504 -0.2581
33732W        W47146  10.231  16.141   4.109 -0.3401 -0.1631  0.3617
33733W        W47147   9.928   1.825  12.582 -0.0384 -0.4152  0.1064
33734W        W47148   9.283   8.102   1.706 -0.4723  0.1140 -0.2169
33735W        W47149   0.963  13.146  14.174  0.0680  0.2306 -0.0970
33736W        W47150  15.882   6.422  13.693 -0.1450  0.0305  0.2183
33737W        W47151   4.596   3.148   0.610 -0.0551 -0.0803  0.2553
33738W        W47152   9.696   8.677  15.763  0.2630 -0.0495  0.0670
33739W        W47153   0.838  13.818   2.147  0.2324  0.1693 -0.0645
33740W        W47154  12.488   3.036   1.746  0.2151  0.0563 -0.0560
33741W        W47155   9.904  15.118  16.056 -0.2527  0.1042  0.0314
33742W        W47156   0.908   9.029   1.900 -0.2855 -0.2112  0.1037
33743W        W47157   3.359   9.796   4.798 -0.0600 -0.2499  0.1189
33744W        W47158   8.729  14.145  14.058  0.0914 -0.0369 -0.0786
33745W        W47159   9.905  14.187  11.074 -0.3203  0.2147  0.1827
33746W        W47160   9.672  18.060  10.433  0.1162 -0.1666  0.1879
33747W        W47161   7.804  12.374   1.660  0.0709 -0.2703  0.1183
33748W        W47162   9.650  18.188   5.595  0.0671 -0.0831  0.2173
33749W        W47163  13.402   1.049   4.283  0.0208 -0.0512 -0.1280
33750W        W47164  10.552  14.732   1.096  0.1610 -0.0656  0.1126
33751W        W47165   4.515   7.926  15.408 -0.0849  0.0102  0.0698
33752W        W47166   6.268   4.397  10.834 -0.0010 -0.0236 -0.0726
33753W        W47167  12.854   0.593  12.125 -0.0144 -0.0002  0.1927
33754W        W47168   1.141  12.629  11.636 -0.1516  0.0561 -0.0545
33755W        W47169   3.173   8.912   2.015 -0.0262  0.2608 -0.0686
33756W        W47170   1.657  17.737  11.187 -0.1851 -0.3741  0.0664
33757W        W47171   8.884   2.959  15.172 -0.1132 -0.4221  0.2835
33758W        W47172  12.290  10.809   5.808 -0.2061 -0.1801 -0.3150
33759W        W47173   2.181  16.740  12.819  0.0666 -0.0793  0.3828
33760W        W47174   0.668  11.079   4.807  0.1462  0.3783  0.0802
33761W        W47175  14.030   8.566   5.186 -0.0923  0.2079 -0.1270
33762W        W47176   9.874  15.520  11.632  0.0794 -0.0468 -0.3854
33763W        W47177  16.853   5.889   0.249  0.1549  0.0300  0.0527
33764W        W47178  10.364  16.221  14.645  0.0497  0.1418  0.3074
33765W        W47179  16.863  13.749  13.114  0.1188 -0.3308 -0.1482
33766W        W47180  11.690   2.636  13.975  0.0418  0.0389 -0.1467
33767W        W47181  17.264  14.360   0.638 -0.1318 -0.2424 -0.3668
33768W        W47182   7.690  16.097  13.358  0.4369 -0.1698  0.0685
33769W        W47183   6.750   5.541  13.953 -0.0904  0.0617  0.1118
33770W        W47184  15.182   6.244  14.550  0.0641 -0.1431 -0.1366
33771W        W47185  15.708   4.259  13.768 -0.0760 -0.0617  0.0319
33772W        W47186  11.451   1.921  12.867  0.2641 -0.0751  0.0563
33773W        W47187  11.801  17.167   5.792  0.2143 -0.1824 -0.2772
33774W        W47188  16.628   0.744  13.786  0.2853  0.1398  0.1181
33775W        W47189  17.848   9.813   2.129  0.1809 -0.1571  0.2482
33776W        W47190   6.527   6.556   0.022 -0.1309 -0.1044 -0.2090
33777W        W47191  10.486   4.377   5.479  0.0157  0.1353  0.0612
33778W        W47192  15.808   7.305   3.420  0.0028 -0.0551  0.0976
33779W        W47193  10.667  13.026   4.308  0.0261  0.1193  0.1046
33780W        W47194   8.142  17.912   3.831  0.0834  0.1323  0.2428
33781W        W47195  13.750  17.231  14.798  0.0236  0.0485 -0.0578
33782W        W47196   1.056   5.054  12.356  0.1442 -0.1943  0.4521
33783W        W47197  11.213  17.009   4.972  0.2617 -0.2234 -0.1997
33784W        W47198   0.585  16.654   1.241  0.1339  0.3519  0.1586
33785W        W47199   4.532  16.041  11.799 -0.1168 -0.0961 -0.0163
33786W        W47200   8.880   6.298   1.587 -0.1061 -0.1789 -0.0946
33787W        W47201   1.918  10.303  11.428  0.2116  0.0276 -0.0954
33788W        W47202   0.688   2.040   2.187 -0.2174  0.0564 -0.0989
33789W        W47203  10.737  12.182  10.500 -0.0289 -0.0618 -0.1405
33790W        W47204  10.769   4.094   1.005  0.1936 -0.0243 -0.0059
33791W        W47205   4.792   8.008   1.268 -0.3756 -0.0927  0.4522
33792W        W47206   1.177  13.181   2.670 -0.0890  0.2376  0.1392
33793W        W47207  14.097   2.658   9.738 -0.2963  0.2763 -0.1116
33794W        W47208   4.759  16.411   2.335  0.0813  0.0038 -0.2369
33795W        W47209   4.737   4.891  13.197 -0.0612 -0.2666  0.0436
33796W        W47210  12.837   4.114   3.997 -0.2986 -0.4027  0.3713
33797W        W47211   0.512   1.084   5.960 -0.0701 -0.0363  0.2038
33798W        W47212   1.285   9.599   2.699 -0.2279  0.0210 -0.2134
33799W        W47213   0.807  16.458   0.690 -0.1813  0.7125 -0.2988
33800W        W47214   1.616   9.077   5.568 -0.0101 -0.2583 -0.2204
33801W        W47215   1.326   0.927  15.491 -0.2712 -0.1082  0.0205
33802W        W47216   7.717  18.208   1.737 -0.0209  0.1893  0.0300
33803W        W47217  13.123   7.100  11.131 -0.2531  0.1729 -0.0450
33804W        W47218  13.761  13.866  15.987 -0.0792 -0.3446  0.2671
33805W        W47219  16.838  13.642  11.292 -0.4051 -0.0171 -0.1859
33806W        W47220   3.707   4.050  14.160 -0.1978  0.1245  0.0289
33807W        W47221   7.548  13.908  10.754  0.1186  0.0242  0.0415
33808W        W47222   0.943   5.347   0.066  0.3055  0.0726 -0.2165
33809W        W47223  11.576   3.799   3.209 -0.0807  0.1900 -0.2197
33810W        W47224   0.260   7.114   3.235  0.0481  0.0279 -0.1661
33811W        W47225   2.475   7.567  11.290  0.0117  0.0464 -0.2110
33812W        W47226   8.241   9.978  12.944  0.2202  0.0435 -0.0051
33813W        W47227  13.297  18.155  13.313  0.0652  0.0361  0.1204
33814W        W47228  13.746   7.417   2.682 -0.0332 -0.1201  0.2370
33815W        W47229  12.847   9.987   1.663  0.0224  0.1344 -0.0176
33816W        W47230   8.866   0.117  15.277  0.0707 -0.1135 -0.1958
33817W        W47231   1.494   7.044   4.704 -0.2698 -0.0691  0.0682
33818W        W47232   1.370  16.226   4.199 -0.0278  0.0601  0.3653
33819W        W47233  11.265  13.597  10.245 -0.1639 -0.2011 -0.0294
33820W        W47234  14.360   1.935   2.583 -0.0649 -0.1007 -0.1265
33821W        W47235  15.147   1.049   4.744  0.2848 -0.1346  0.0059
33822W        W47236   4.621   2.128   4.878 -0.1098 -0.0686  0.1520
33823W        W47237   7.915   1.000   3.061 -0.3351 -0.4766 -0.0667
33824W        W47238   7.264   7.456   4.221 -0.2286 -0.1060  0.0981
33825W        W47239   2.098   2.713   1.067 -0.0631  0.3577  0.2436
33826W        W47240   8.980  13.203   1.198 -0.0844 -0.2461  0.0499
33827W        W47241  12.328   8.407  11.201 -0.0918  0.2204 -0.1467
33828W        W47242   9.393   2.902  12.324 -0.3827  0.0107 -0.0669
33829W        W47243  12.316  13.537   4.431 -0.7081  0.1595  0.1028
33830W        W47244   5.916   1.041  14.651  0.0166  0.1001  0.1133
33831W        W47245   6.139   1.692  10.797  0.0716 -0.2244  0.2444
33832W        W47246  13.866   6.627  13.346  0.1767 -0.1633 -0.2547
33833W        W47247  18.075   0.589  12.000 -0.4754  0.0012 -0.4102
33834W        W47248  14.102   7.273  10.809 -0.0053 -0.5940  0.0390
33835W        W47249   9.569   1.180  13.236  0.1967 -0.0325 -0.2966
33836W        W47250  11.644  17.377  15.286 -0.1841  0.0483 -0.3681
33837W        W47251   7.846   1.677  14.156 -0.1355  0.0521  0.1926
33838W        W47252   8.505  14.188  10.660 -0.2888  0.0691 -0.1118
33839W        W47253  17.680  12.836  14.138  0.1732  0.1306  0.1563
33840W        W47254  14.128   9.721   2.191 -0.1175  0.4267 -0.2161
33841W        W47255   1.087   2.628   1.486 -0.1118  0.0389  0.0122
33842W        W47256  14.713   0.335   0.561 -0.2426  0.2685  0.4967
33843W        W47257  15.706  16.067  13.931  0.1387 -0.0658  0.0197
33844W        W47258  13.460   5.725  14.076 -0.2524  0.0216  0.1591
33845W        W47259  12.703   6.134  12.555  0.0783 -0.0934 -0.0671
33846W        W47260  16.862   5.829  13.592 -0.0370 -0.0849  0.1672
33847W        W47261   3.768  15.449   1.656  0.2803 -0.0848  0.0332
33848W        W47262   5.197  12.145  11.186  0.1826  0.1995  0.0579
33849W        W47263  14.158  13.266  15.066 -0.3068 -0.0482 -0.3406
33850W        W47264   1.819   3.256   1.194  0.2323 -0.4288 -0.0949
33851W        W47265   9.179   0.819   1.439 -0.1236 -0.0888 -0.0226
33852W        W47266   5.451  13.753  15.842 -0.0681 -0.2510 -0.2784
33853W        W47267  15.748  13.151  12.590  0.1745  0.3367  0.1459
33854W        W47268  17.679  15.527   0.257  0.0370  0.0862 -0.1140
33855W        W47269   2.827  14.917   1.201 -0.1507 -0.1801 -0.0371
33856W        W47270  18.040  10.980  12.793  0.4346 -0.0946  0.0346
33857W        W47271   3.635   4.951   2.148 -0.1556  0.2117 -0.0370
33858W        W47272  14.074   6.898  10.501  0.0708  0.3617  0.0939
33859W        W47273   1.999   3.570  10.683 -0.2799  0.0564  0.2404
33860W        W47274   8.210  17.203  11.215 -0.0556 -0.0450  0.1894
33861W        W47275  16.898   1.885  16.218 -0.3139 -0.0965 -0.0836
33862W        W47276   7.355   9.084   1.912 -0.2906 -0.0107 -0.1498
33863W        W47277   3.976   5.801   0.313 -0.2688  0.2780  0.0716
33864W        W47278   2.771  14.992  11.843  0.4737  0.0152 -0.2515
33865W        W47279  10.850   7.350  13.866 -0.2248  0.1003  0.2879
33866W        W47280  12.516   3.924  10.423  0.0921  0.0546 -0.1331
33867W        W47281  14.058  10.440   0.855 -0.0149 -0.1108 -0.1718
33868W        W47282  10.725   9.508  10.620 -0.4021  0.1249  0.1177
33869W        W47283   7.870   3.336  13.915  0.0186  0.2085  0.0650
33870W        W47284   2.597   8.010   3.766  0.0338 -0.0464  0.1243
33871W        W47285   6.512  13.442   0.797  0.1820  0.0404 -0.1598
33872W        W47286   8.518   4.138   3.901 -0.0214 -0.3656  0.1016
33873W        W47287   9.548   7.936  10.644  0.4296  0.1418  0.0405
33874W        W47288   9.953  14.530  14.653  0.1711 -0.3077  0.1255
33875W        W47289   8.285   5.106  13.507  0.0045  0.2364 -0.3881
33876W        W47290   6.490  12.013  16.206  0.1261 -0.1279 -0.0063
33877W        W47291  15.087  17.230   1.494 -0.3711 -0.0075 -0.1577
33878W        W47292   7.334  12.068  13.225  0.2154 -0.0169 -0.2157
33879W        W47293   4.465   1.779   2.642 -0.1370  0.0589 -0.0894
33880W        W47294   8.770  15.048  14.638 -0.1447  0.0185  0.2499
33881W        W47295   6.710  15.543   4.553  0.1915 -0.1293  0.2896
33882W        W47296   8.497  15.230   1.229 -0.0516  0.0819 -0.1870
33883W        W47297   5.874   8.237   1.637 -0.1084  0.0974  0.0818
33884W        W47298   6.498  11.323   1.557  0.2201 -0.1826  0.0379
33885W        W47299   0.903   0.746  10.312  0.2356  0.1163 -0.2442
33886W        W47300  16.043   4.419  14.145  0.2265 -0.1849 -0.0289
33887W        W47301   0.737  17.098   5.902 -0.0626  0.1986  0.2965
33888W        W47302  18.305   8.655  12.026  0.0113  0.1661 -0.0314
33889W        W47303  16.254  15.610  14.582 -0.1736  0.3016 -0.0459
33890W        W47304  11.140   5.583  11.182 -0.2287 -0.0030  0.2674
33891W        W47305   7.216   4.683   3.937 -0.2560  0.1132  0.0152
33892W        W47306   6.265   3.388  13.390 -0.0054  0.2050 -0.1022
33893W        W47307   7.981  17.859  15.403 -0.0504 -0.2560 -0.1217
33894W        W47308  17.727  17.271  12.163  0.3819 -0.0288  0.0359
33895W        W47309  11.280  11.721  11.191  0.0678  0.0379 -0.0091
33896W        W47310  10.572   1.812  12.618 -0.3600  0.1897  0.2342
33897W        W47311  17.274  13.306   0.316  0.1687 -0.3459  0.1384
33898W        W47312  13.176   8.708   2.534  0.2017  0.0206 -0.4962
33899W        W47313  14.481   9.279  15.942  0.1162 -0.0691 -0.2184
33900W        W47314  12.200   2.613  15.447  0.1165  0.1770  0.0154
33901W        W47315  10.483   8.400  14.564 -0.5139  0.0511  0.1082
33902W        W47316   7.191   6.773  15.475 -0.1130  0.0611 -0.0911
33903W        W47317   0.469   1.075  13.294  0.1720 -0.1130 -0.0981
33904W        W47318  15.488  17.289  15.083 -0.1185 -0.1216 -0.0774
33905W        W47319  10.313   2.979  11.898  0.1623 -0.1567  0.1482
33906W        W47320  12.460  12.293  15.963 -0.1510 -0.1868 -0.1794
33907W        W47321  13.999  14.425   4.845 -0.1389  0.0977  0.4705
33908W        W47322   5.333  14.250  14.009 -0.0235 -0.0274  0.0732
33909W        W47323   1.286  10.394  13.948 -0.0747  0.2462  0.1932
33910W        W47324   9.858  17.890   0.062 -0.1543  0.0840  0.0063
33911W        W47325   0.715   6.672   4.734  0.1887 -0.1301  0.0115
33912W        W47326   8.586   0.009   1.658  0.2195  0.2864  0.0180
33913W        W47327  16.945  15.697   3.665 -0.2894 -0.1403  0.3863
33914W        W47328  13.382   5.625   1.628 -0.0434 -0.1156 -0.2777
33915W        W47329  12.683   2.357  10.181 -0.1344  0.2850 -0.0393
33916W        W47330  10.575  16.194   9.746  0.1621 -0.1795 -0.1463
33917W        W47331  13.027   4.368  14.255  0.0500  0.1478 -0.3158
33918W        W47332   5.324  16.808  11.795 -0.0099 -0.1151 -0.1893
33919W        W47333   3.952  15.268   9.828  0.0128  0.1089  0.0973
33920W        W47334  16.337  13.916   2.331 -0.2077  0.0468 -0.1838
33921W        W47335  11.226  15.904  13.446 -0.2546  0.1270  0.1044
33922W        W47336   9.019   8.196   5.773  0.0714 -0.0299 -0.1990
33923W        W47337  12.788  10.742  14.462  0.1108 -0.0764 -0.1450
33924W        W47338   3.205   6.724  11.880  0.0938  0.0152 -0.1145
33925W        W47339   5.208  13.843  13.118 -0.0265  0.0147 -0.4032
33926W        W47340   2.903  15.649   1.545  0.5959 -0.1610  0.2162
33927W        W47341  16.905   5.341  13.290 -0.0212  0.2495  0.3766
33928W        W47342   3.390   5.391   3.686 -0.1508 -0.1814 -0.0200
33929W        W47343   3.092   5.786  11.648  0.0720  0.0898 -0.1639
33930W        W47344  17.857   6.536  14.362  0.0721 -0.2007 -0.0934
33931W        W47345   1.238   6.293  12.785  0.1685 -0.1952 -0.1220
33932W        W47346  11.423  14.976   1.140  0.3057  0.0349 -0.2714
33933W        W47347   6.644  16.744   0.466  0.0619  0.1998  0.0200
33934W        W47348   3.813  10.540  15.595  0.1110  0.2807  0.3174
33935W        W47349   7.131   0.233   5.736 -0.0496 -0.1293 -0.1546
33936W        W47350  12.827   5.908   4.564 -0.5499 -0.3210 -0.0644
33937W        W47351  10.529  15.735   5.526 -0.2763  0.0812  0.1845
33938W        W47352   1.119  14.406   0.929 -0.2674 -0.0285 -0.2576
33939W        W47353   1.845   6.809  11.617  0.2638 -0.2735  0.1642
33940W        W47354   8.367   6.850  11.714 -0.3752 -0.3173  0.1147
33941W        W47355  14.847   7.238   4.332  0.0009 -0.2404 -0.1756
33942W        W47356  11.487  15.944   5.123 -0.0245 -0.0300 -0.0427
33943W        W47357   4.383  11.477   1.721  0.2353 -0.0152 -0.2775
33944W        W47358  14.847   2.095   3.976 -0.2005  0.0624 -0.0800
33945W        W47359   4.675   0.455  11.739  0.1353  0.2089  0.1346
33946W        W47360   3.577   0.745  15.339  0.0138 -0.1001 -0.1588
33947W        W47361  13.453   9.749  13.693  0.2416 -0.0012  0.1914
33948W        W47362  14.344   2.469  13.647 -0.3897  0.4504 -0.0155
33949W        W47363   7.788  10.256   5.342  0.2182 -0.2522 -0.0290
33950W        W47364  16.290  12.841  12.335 -0.1038  0.0673 -0.3602
33951W        W47365   2.365  13.244   5.349  0.2748  0.0737  0.1547
33952W        W47366   1.704   2.454  15.240  0.0149  0.2212  0.3656
33953W        W47367   9.974   4.513  15.603 -0.0257  0.3173  0.1111
33954W        W47368  13.106  16.781   4.871 -0.2059  0.0806 -0.1911
33955W        W47369  18.249  16.826  15.486  0.2498  0.0443 -0.0644
33956W        W47370   9.121   0.942   2.625 -0.4073  0.0952 -0.0702
33957W        W47371  16.294  18.165   3.007 -0.0738 -0.0176  0.0240
33958W        W47372  11.423   5.881   5.160  0.0494  0.1043  0.1867
33959W        W47373   6.437  11.993   2.421 -0.0464  0.2360  0.3493
33960W        W47374  10.850   5.357   4.125 -0.0416 -0.0900  0.4367
33961W        W47375  13.404  12.501  10.437  0.0554  0.1414 -0.0413
33962W        W47376   8.842   8.940   0.662 -0.0280 -0.0826  0.0990
33963W        W47377   3.856   5.545   5.587 -0.2062  0.1889  0.1895
33964W        W47378   6.910   9.712   0.123  0.3188  0.4818  0.0847
33965W        W47379  15.911  10.133  12.148  0.2435 -0.1863 -0.0086
33966W        W47380   4.278  10.923   1.129  0.1062 -0.1095  0.0290
33967W        W47381  13.393   3.708  14.611  0.2077 -0.2457  0.1568
33968W        W47382  17.782  14.787  12.853 -0.1363  0.3195 -0.0587
33969W        W47383   6.941   6.109   4.408 -0.1231 -0.0780  0.1321
33970W        W47384   3.357   7.758  11.139 -0.2006  0.0554  0.0747
33971W        W47385  10.915   2.231   3.811 -0.2657  0.0225 -0.3548
33972W        W47386   1.097   8.862   2.355 -0.0203  0.0403  0.3627
33973W        W47387  10.535  18.412   0.638  0.0883 -0.2595 -0.0575
33974W        W47388  16.701  10.786   1.149  0.2533 -0.0788 -0.1981
33975W        W47389   0.612   0.693  14.096 -0.1419  0.2871  0.0858
33976W        W47390   9.185   5.452   1.513  0.1359 -0.1463 -0.1317
33977W        W47391  14.581  15.022   3.563  0.0176  0.0359  0.0249
33978W        W47392   0.767   5.917  14.152  0.0467  0.2952 -0.0576
33979W        W47393   3.778  12.381   4.581 -0.0399  0.2166 -0.0598
33980W        W47394  17.676   9.918   3.647  0.3429 -0.2956  0.1343
33981W        W47395   4.854   4.243   2.430  0.1228  0.5583  0.2178
33982W        W47396   3.056  11.922  11.345 -0.0286 -0.1368  0.3352
33983W        W47397   1.194  13.969  14.678  0.2423 -0.1884  0.0577
33984W        W47398   7.551  12.824  12.279 -0.0129  0.3840 -0.2514
33985W        W47399   5.186  16.810   4.036  0.1381  0.2374  0.2316
33986W        W47400   7.034   3.441  11.805  0.3942 -0.0398  0.1629
33987W        W47401   7.321  16.067  14.920  0.0068 -0.0352 -0.1500
33988W        W47402  15.110  15.926  12.311 -0.0467  0.0896 -0.0043
33989W        W47403   8.785  18.301  13.325  0.1291  0.0235  0.0025
33990W        W47404   8.925  13.461   5.583 -0.0945 -0.1249 -0.0753
33991W        W47405  10.887  15.307  12.586  0.1694  0.1518 -0.0982
33992W        W47406  11.570  15.825  14.251  0.0761 -0.2878 -0.3568
33993W        W47407  15.431   3.849  14.175  0.1183 -0.3225  0.0798
33994W        W47408  14.944   3.747   3.257 -0.2645  0.1098  0.3481
33995W        W47409   7.138   4.878   0.783  0.1629  0.1372  0.0519
33996W        W47410   3.847  14.246   0.000  0.0888 -0.1274  0.2755
33997W        W47411   4.296   1.570  13.697 -0.1926  0.0008 -0.0242
33998W        W47412  10.245   6.422  15.593  0.0400  0.1669 -0.1237
33999W        W47413   2.842   8.820  14.775 -0.0642 -0.0925 -0.1384
34000W        W47414  10.249  12.240   0.852 -0.3562 -0.2281 -0.2619
34001W        W47415  16.012  16.433  12.949 -0.0940 -0.2480  0.1833
34002W        W47416  16.299  17.356  10.930 -0.1550 -0.1818  0.2326
34003W        W47417  12.993   0.960   4.555 -0.0620 -0.3467  0.0249
34004W        W47418   3.614   9.567   5.823  0.3158 -0.0446  0.0907
34005W        W47419   6.614   0.528  14.087  0.5577 -0.2487 -0.3057
34006W        W47420   7.867   7.736   3.688  0.0688  0.0434 -0.0762
34007W        W47421  16.774  10.805  15.720  0.4731  0.1060  0.1139
34008W        W47422   6.315  18.219  13.362  0.1933 -0.3793  0.0376
34009W        W47423  16.865  14.312   0.268  0.1990  0.0428 -0.2956
34010W        W47424   9.682  11.967   2.114 -0.2003  0.0024  0.0201
34011W        W47425   5.861   9.338  15.050  0.3646  0.0702  0.0924
34012W        W47426   2.895   6.029  16.254  0.0094  0.1884 -0.0355
34013W        W47427   5.492   8.291   3.645  0.1637 -0.0478  0.2122
34014W        W47428  15.244   8.948   2.905  0.2745  0.4663  0.2551
34015W        W47429   7.991  14.890  13.477 -0.2744 -0.1567 -0.0301
34016W        W47430   9.189  13.010   0.086 -0.2073 -0.4046  0.0854
34017W        W47431   0.552   4.093   3.813  0.0142  0.1646 -0.5097
34018W        W47432   3.840   1.834   5.374 -0.0113  0.5255  0.1826
34019W        W47433   7.854  12.656   9.808 -0.0916  0.1286  0.2381
34020W        W47434   8.621   4.391  13.548 -0.0395  0.1233 -0.0260
34021W        W47435   5.139   5.078  13.462  0.3019 -0.1766  0.2398
34022W        W47436  10.678  15.807  13.433  0.3778  0.0201 -0.0780
34023W        W47437  13.830   9.099  15.259  0.2837 -0.0947 -0.4793
34024W        W47438  17.302  10.375  15.185  0.3149 -0.2492 -0.2513
34025W        W47439   7.964  12.909   1.824 -0.0363 -0.0232 -0.1846
34026W        W47440   3.299  11.756  15.552  0.0557  0.0428 -0.2077
34027W        W47441   3.922  12.911  16.244 -0.2220 -0.2654  0.2189
34028W        W47442   3.238   8.515  14.380 -0.1136  0.0800 -0.3301
34029W        W47443   5.646  17.474   0.900 -0.1531  0.1503 -0.1645
34030W        W47444  17.002   5.327  11.188  0.0966 -0.2864  0.0088
34031W        W47445  13.124   9.406   3.298  0.1678 -0.0814 -0.0097
34032W        W47446   9.999   0.003  11.964 -0.3417 -0.0891 -0.1537
34033W        W47447  12.579   9.302   5.157 -0.1427  0.0099  0.0921
34034W        W47448   1.058   3.615  16.159 -0.0793 -0.1126 -0.1064
34035W        W47449  17.936  10.848  11.009  0.1768 -0.3133  0.3135
34036W        W47450  13.082   0.806  15.214  0.2472  0.2393 -0.2598
34037W        W47451   6.662  15.997   0.867  0.0909 -0.2350  0.0212
34038W        W47452   4.298  11.291  16.167  0.0505  0.2699  0.1425
34039W        W47453   4.766  11.102  14.467 -0.0470 -0.1055  0.0733
34040W        W47454  10.804   8.196  13.005 -0.2973  0.0210 -0.1039
34041W        W47455   4.076  12.928  12.346 -0.1144  0.0521  0.1964
34042W        W47456  10.616   6.555  11.505 -0.3138 -0.2014 -0.3138
34043W        W47457  11.893   3.766  11.939  0.0116  0.0169 -0.1232
34044W        W47458   1.788   1.856   4.143 -0.1646 -0.0725  0.0244
34045W        W47459  16.347  11.539  15.532  0.4379  0.0766  0.0529
34046W        W47460  18.236   3.151  14.243  0.0673  0.3375  0.2563
34047W        W47461  14.389  16.465   2.251  0.0972 -0.2032 -0.3478
34048W        W47462   4.135   8.878  15.400  0.2981  0.0702 -0.1725
34049W        W47463  14.672   3.836   4.575  0.1645  0.0526  0.1042
34050W        W47464  15.582  11.990   0.805  0.0464  0.1198  0.1520
34051W        W47465  10.084  15.420  15.561 -0.0338  0.2777 -0.2146
34052W        W47466  13.816   4.639  14.722  0.2730 -0.0481 -0.2559
34053W        W47467  10.457  11.199  12.775  0.0362 -0.0016 -0.0096
34054W        W47468   2.576  14.832   5.418  0.1835 -0.0306  0.0516
34055W        W47469  12.268  14.949   2.928 -0.1182 -0.2677 -0.2243
34056W        W47470   5.441  16.264  10.927 -0.3622 -0.1717 -0.2862
34057W        W47471   9.806  10.055  12.509  0.1494  0.3043 -0.2078
34058W        W47472   9.661  14.380  11.758  0.0191  0.0121  0.0108
34059W        W47473  12.374   3.730   9.987 -0.2218  0.0071  0.1603
34060W        W47474  14.147  15.769   3.051 -0.0145  0.0908 -0.0598
34061W        W47475   3.419   0.226  10.276  0.0325 -0.0238  0.1990
34062W        W47476  13.869   0.050   0.237  0.0358 -0.0793  0.0484
34063W        W47477  11.379   8.966  12.634  0.0358 -0.0255 -0.0003
34064W        W47478  11.855   9.149  14.781 -0.0365  0.0157  0.0338
34065W        W47479  12.788   5.005   6.268 -0.0380  0.2439 -0.3156
34066W        W47480   5.744  16.366   2.323 -0.1412 -0.0901  0.1828
34067W        W47481   6.603   6.274  14.846  0.0974 -0.1406  0.2067
34068W        W47482   6.099   0.051   2.792 -0.0417 -0.0245  0.0927
34069W        W47483   2.853  17.583   3.256  0.0048  0.3097 -0.0602
34070W        W47484   5.416  11.222  11.015  0.1570 -0.3080 -0.1416
34071W        W47485   7.801   6.911   0.027  0.2201 -0.1918 -0.1188
34072W        W47486  16.992   9.375  13.368 -0.0415 -0.2361 -0.1991
34073W        W47487   3.570   0.732   1.595 -0.2110 -0.1578  0.1974
34074W        W47488  14.046   8.199   3.090  0.2709 -0.3234 -0.0503
34075W        W47489   6.394   4.619  14.550 -0.1530  0.1208  0.0431
34076W        W47490   1.769  12.998   5.238  0.2765  0.2301  0.1259
34077W        W47491  14.703  15.323  15.967 -0.1911  0.4868  0.0139
34078W        W47492   2.307   4.361   3.126 -0.1061 -0.1293 -0.0438
34079W        W47493   8.443  14.403   4.219 -0.3201 -0.3482  0.0550
34080W        W47494  12.182  12.723  15.357  0.0971 -0.0844 -0.3480
34081W        W47495  14.269   5.911  10.887 -0.1478 -0.0265  0.1042
34082W        W47496  10.677  11.873   0.207  0.1147  0.2507  0.1730
34083W        W47497   9.657  18.273   5.070 -0.1421  0.2605 -0.1704
34084W        W47498  11.105  13.176   0.978  0.1916  0.1876 -0.1844
34085W        W47499   9.027   0.071  13.717  0.0985  0.0764 -0.0873
34086W        W47500  17.178  17.342  15.695 -0.3175 -0.0554  0.0451
34087W        W47501   4.061   9.923  13.952 -0.0489  0.2248 -0.5108
34088W        W47502   8.320  16.732  10.998 -0.2810  0.0062 -0.0222
34089W        W47503   1.243  18.250  11.395  0.0672  0.2428  0.1347
34090W        W47504   4.520   3.741  13.094 -0.0134 -0.1896 -0.0835
34091W        W47505  17.460  13.096   2.265  0.0351  0.0497  0.1730
34092W        W47506  14.483   7.997   4.590  0.1655 -0.2473  0.1316
34093W        W47507  17.145   1.942   3.406 -0.1092 -0.1138 -0.0291
34094W        W47508   7.070  15.994   0.299  0.1328 -0.0136 -0.0866
34095W        W47509  16.680   1.891   2.724  0.0136 -0.2188 -0.1920
34096W        W47510   6.694  16.796   1.350 -0.2127  0.3474  0.1651
34097W        W47511   4.934   4.776  15.662  0.2272 -0.1133  0.2869
34098W        W47512  17.117  17.231   6.328 -0.1495 -0.1135 -0.2824
34099W        W47513   6.780  17.296  15.440  0.1797  0.1917  0.1853
34100W        W47514   1.877   3.214   2.784 -0.1365 -0.1679  0.2788
34101W        W47515   5.817   4.554   5.820  0.2159 -0.2945  0.0905
34102W        W47516   9.237   1.883   1.706 -0.0672  0.0573  0.1640
34103W        W47517   9.878  18.105  14.400  0.2186  0.1533 -0.1843
34104W        W47518   8.472   5.699   5.325 -0.0404 -0.0786  0.3215
34105W        W47519   6.143  13.706  10.896  0.1748 -0.5322  0.0573
34106W        W47520   1.918   5.913   2.201  0.1964  0.0119 -0.3719
34107W        W47521  13.521  13.669  15.541 -0.0966  0.0423  0.3245
34108W        W47522  15.438  11.999  15.843  0.0604  0.5785  0.2062
34109W        W47523   1.501   8.957  11.438 -0.0136 -0.1570 -0.0489
34110W        W47524   6.567  16.465  13.977  0.1231  0.2666  0.1862
34111W        W47525   5.248   3.963  11.779  0.2957 -0.0672 -0.0146
34112W        W47526   7.032   1.256  12.270  0.0159 -0.4232  0.0352
34113W        W47527   5.040  17.383   0.125 -0.2042 -0.0753 -0.1949
34114W        W47528   6.581  16.385  13.265 -0.0936  0.1863  0.0189
34115W        W47529  18.236   8.063   4.579 -0.1354  0.2345  0.2126
34116W        W47530   6.154   7.847   6.377  0.1594  0.1218  0.1145
34117W        W47531   1.140   7.871  15.698  0.1136 -0.1341  0.3115
34118W        W47532  15.425   1.892   4.644  0.0997 -0.0071  0.1204
34119W        W47533   4.110  16.786   1.039 -0.0254  0.0063  0.2150
34120W        W47534   9.857   0.340   1.072  0.1161 -0.1764 -0.0671
34121W        W47535   8.982  17.360  11.959 -0.3528  0.1602 -0.1056
34122W        W47536  15.864   5.960   9.936  0.0389  0.0505  0.1999
34123W        W47537  16.233  13.176  12.759  0.2817  0.0992 -0.3114
34124W        W47538  17.460   3.903   4.672 -0.3268  0.2766  0.1575
34125W        W47539  11.098   8.220  15.162  0.0634 -0.2972  0.1783
34126W        W47540   2.911  10.563   0.136 -0.0093  0.0038 -0.1394
34127W        W47541   5.395  16.335  13.849 -0.1078 -0.0095 -0.3477
34128W        W47542   6.583  15.824  12.083  0.1166 -0.0210  0.0787
34129W        W47543   2.490  11.243  15.024 -0.2497  0.0591 -0.0787
34130W        W47544   5.000   3.620  14.107 -0.1298 -0.0618 -0.2872
34131W        W47545   8.473  10.638   4.334 -0.1987  0.0511 -0.1144
34132W        W47546   7.090   4.665  10.490  0.1671  0.2415 -0.2364
34133W        W47547   6.572  11.681  13.504  0.1212  0.0213  0.2634
34134W        W47548   1.752   8.852  15.812 -0.0859 -0.0643 -0.1439
34135W        W47549   9.630  15.096  12.887 -0.0188  0.0877  0.1349
34136W        W47550   2.741  14.919   1.880  0.0912 -0.1890  0.0532
34137W        W47551  18.361   5.099  11.497  0.0454 -0.2578 -0.2146
34138W        W47552  16.719  10.586   0.297  0.3364  0.0652 -0.0910
34139W        W47553   8.827   8.877   4.026 -0.0802  0.1441 -0.1696
34140W        W47554  13.856   9.543   0.869 -0.0861  0.2737 -0.2405
34141W        W47555   6.686   0.788  10.730 -0.0436 -0.0343 -0.2548
34142W        W47556   3.443  13.641   3.183 -0.1976 -0.0741  0.0417
34143W        W47557   1.474   6.767  12.476  0.1730 -0.1824  0.0828
34144W        W47558   5.086  10.891  10.812  0.1931  0.2510  0.6013
34145W        W47559   5.635   2.290   4.697 -0.3373  0.3669 -0.0296
34146W        W47560   4.701   1.703  15.950  0.2861  0.0220  0.0404
34147W        W47561   8.214   5.785  10.420 -0.0465  0.0269 -0.0916
34148W        W47562  16.162  10.225   2.188 -0.2510 -0.2606 -0.2306
34149W        W47563   8.802   8.263   2.174  0.0486  0.5331 -0.1953
34150W        W47564   7.753   9.172   2.272 -0.2354  0.0196  0.0688
34151W        W47565   9.518  17.857  15.671 -0.1224  0.0179  0.4454
34152W        W47566   3.409   5.007   0.741 -0.0799  0.0195  0.2706
34153W        W47567  12.468  16.327  10.346  0.3397 -0.1363 -0.0262
34154W        W47568  15.701   9.045   2.192  0.2689  0.1023  0.2620
34155W        W47569   7.566   3.640  14.812  0.1860  0.2747  0.1396
34156W        W47570   4.289  17.239  12.236 -0.1830  0.0403  0.0303
34157W        W47571   7.995   9.288   3.456 -0.0471  0.1593  0.1937
34158W        W47572   1.685   6.901  13.757  0.0546 -0.1951 -0.3102
34159W        W47573  12.181   7.308   2.456 -0.0617 -0.2078  0.0609
34160W        W47574  18.124  17.601   3.740  0.1339 -0.1769 -0.0768
34161W        W47575   8.653   7.139   3.838  0.0266  0.1823 -0.2401
34162W        W47576   8.249  12.343  11.114  0.0138  0.0551  0.3138
34163W        W47577  11.026   9.296  12.525 -0.0885 -0.2221 -0.4578
34164W        W47578   9.443   7.656  15.755  0.1808 -0.2247  0.2607
34165W        W47579   8.015   8.853   0.309  0.0123 -0.1134 -0.1907
34166W        W47580   4.248   1.885   1.281 -0.4321  0.1078 -0.3756
34167W        W47581   9.011   2.044  12.307 -0.0518  0.2383  0.2245
34168W        W47582   8.906  12.183   6.175  0.0449 -0.4036  0.0195
34169W        W47583  11.550   7.917   2.624  0.4406 -0.1870 -0.1138
34170W        W47584   9.096   9.759  11.868 -0.2209 -0.2198 -0.1182
34171W        W47585  13.121  10.014  10.182  0.1391 -0.1598  0.0053
34172W        W47586   4.215   8.506  13.090  0.0630  0.3454  0.1107
34173W        W47587   9.272   3.453   2.992  0.0042 -0.0272 -0.1921
34174W        W47588  10.754  10.328   0.985 -0.0854 -0.1877  0.0005
34175W        W47589   2.687   8.493  13.340 -0.0448  0.2362  0.1591
34176W        W47590   4.357  15.895   6.144 -0.1853  0.0266  0.1714
34177W        W47591   1.395   1.782  11.578 -0.2505 -0.0973  0.1739
34178W        W47592  17.536   6.404  10.820 -0.1896 -0.0879 -0.0769
34179W        W47593   2.110   3.785   5.702 -0.0588 -0.1265 -0.1550
34180W        W47594   6.021   0.748   2.256 -0.1702 -0.0628  0.0598
34181W        W47595   7.026   4.901  14.788 -0.3647 -0.0398  0.1377
34182W        W47596  11.760  11.315  12.512  0.0314  0.1692 -0.0144
34183W        W47597  16.440  11.327  11.927  0.0292  0.2137  0.0699
34184W        W47598  17.697  14.914   3.392  0.4205  0.1798  0.1588
34185W        W47599  16.988  15.990  10.984 -0.0506  0.1289 -0.2068
34186W        W47600   9.309   6.321   2.755 -0.0276 -0.2139 -0.0235
34187W        W47601  11.575  11.863  16.003  0.1480  0.1663 -0.0689
34188W        W47602   6.882  15.032   2.727 -0.2335 -0.1153 -0.0462
34189W        W47603   5.360   1.096   5.252 -0.0630 -0.0580  0.0725
34190W        W47604   6.682   8.054   0.958 -0.2113  0.2001  0.1155
34191W        W47605   0.749   6.052   5.136 -0.0345 -0.0418 -0.3589
34192W        W47606   2.089   0.560  12.787 -0.2680  0.0843  0.1984
34193W        W47607  13.124   1.831   1.015 -0.2173 -0.0301 -0.1211
34194W        W47608  17.477  11.688   5.575  0.0438 -0.1489 -0.1278
34195W        W47609  14.216   7.986  14.823 -0.1485 -0.1539 -0.1890
34196W        W47610  14.365   9.906  15.419 -0.1979  0.0620 -0.0839
34197W        W47611   4.468   4.097  11.580  0.0104  0.2021 -0.0316
34198W        W47612   7.805   6.474  12.592  0.2153 -0.2363 -0.0300
34199W        W47613  15.902   7.572  15.945 -0.1330  0.2160  0.3529
34200W        W47614   1.790   3.958  14.520  0.1769 -0.1784  0.2089
34201W        W47615  12.434   5.613   4.404 -0.1812  0.1491 -0.1073
34202W        W47616   5.110  16.201   4.251  0.1893 -0.2462  0.1993
34203W        W47617   8.544   3.041   3.108 -0.0930 -0.0610 -0.0962
34204W        W47618  16.545  16.239  12.948  0.0928 -0.0081 -0.2652
34205W        W47619  16.691  15.274   5.499  0.0255  0.0096 -0.2532
34206W        W47620  17.489   3.124   0.563  0.2844  0.0806  0.2160
34207W        W47621  13.287  12.377  12.861 -0.2980  0.0237  0.2236
34208W        W47622  17.271   1.556   1.649  0.0137 -0.2399 -0.0259
34209W        W47623  13.230   1.566   2.526  0.0573 -0.2118  0.4632
34210W        W47624  10.319  11.867   2.966 -0.2597  0.0188  0.1860
34211W        W47625   5.793   5.484  13.075 -0.0488 -0.1979 -0.0892
34212W        W47626  15.095  12.644  14.263  0.1585 -0.2423  0.0485
34213W        W47627   4.069   6.721  14.385 -0.0774  0.0432 -0.4645
34214W        W47628   7.474  17.836   1.148  0.0100 -0.2972  0.0696
34215W        W47629   4.830  10.976   3.028  0.1426  0.0087 -0.0087
34216W        W47630  17.730  15.693  12.338  0.1232  0.1160  0.4326
34217W        W47631  15.174   7.189   2.174  0.2820  0.0951  0.1675
34218W        W47632   6.775  16.127  14.370 -0.2093 -0.1005 -0.0561
34219W        W47633   7.720   2.840   4.210  0.0827  0.1723 -0.2633
34220W        W47634  14.665  10.903  15.263  0.0230  0.1642  0.0740
34221W        W47635  16.137  16.693   1.618 -0.0310  0.1580 -0.0659
34222W        W47636  12.493  16.700  14.665 -0.0778  0.1243  0.0299
34223W        W47637   7.574   0.269   3.521 -0.3989  0.0070 -0.3886
34224W        W47638   7.656   6.980   4.259 -0.1105 -0.0881  0.0096
34225W        W47639   1.610   8.228   0.873  0.1389 -0.2889 -0.2485
34226W        W47640   9.435  16.754   3.950  0.0685 -0.0907  0.5356
34227W        W47641  17.280   7.370   4.497 -0.1260 -0.1701  0.2581
34228W        W47642  13.471   9.664  13.031 -0.2185 -0.2133 -0.1301
34229W        W47643   0.362  16.855  14.693 -0.0689 -0.2486  0.2580
34230W        W47644  14.127  17.698  13.681 -0.0295 -0.0215  0.2281
34231W        W47645   4.032  11.056  11.529 -0.1517  0.2830  0.1428
34232W        W47646   7.852  14.546  15.821 -0.0510  0.0680 -0.0036
34233W        W47647   4.523   7.363  15.145  0.0356  0.4255 -0.3064
34234W        W47648  16.591  11.786   4.160  0.2257 -0.1277  0.0976
34235W        W47649  11.573   0.420   9.646 -0.2279  0.2837 -0.1123
34236W        W47650   5.244  15.548   0.713  0.1539  0.0782 -0.2275
34237W        W47651  15.585   4.888   4.783  0.2537  0.0360 -0.0922
34238W        W47652   3.495  16.466   1.613  0.3128  0.0505 -0.4953
34239W        W47653   2.443   2.675  14.542  0.2263 -0.2182 -0.1824
34240W        W47654   0.243   2.851  13.509 -0.0888 -0.0965 -0.1790
34241W        W47655  10.324   7.570   0.912  0.1275  0.0868  0.0556
34242W        W47656   5.207   2.912  12.581  0.0599 -0.2948 -0.1769
34243W        W47657   4.336  12.800   1.251 -0.0424 -0.4821  0.0706
34244W        W47658  17.740   7.081   3.235  0.0954  0.0032  0.3143
34245W        W47659   0.256  12.579   4.160  0.1013  0.1105  0.1187
34246W        W47660   4.317   0.386   0.357 -0.0399  0.0588  0.1541
34247W        W47661  14.080  11.554   3.560 -0.2338  0.0971  0.0852
34248W        W47662   9.681  12.302  12.321 -0.3229  0.2733 -0.0272
34249W        W47663   3.504  17.590   2.435 -0.0600  0.0602  0.1986
34250W        W47664   8.354   5.349  15.129  0.3492  0.2230  0.0776
34251W        W47665  16.275  13.794  12.240  0.2888 -0.2362 -0.1647
34252W        W47666  15.991   4.385   3.471  0.0193  0.1829  0.1648
34253W        W47667   1.445   9.840  11.008 -0.3275 -0.1636  0.2238
34254W        W47668  18.321  11.277   0.665 -0.2721  0.0953  0.0511
34255W        W47669  16.954   8.454   5.926 -0.0295 -0.2306  0.0894
34256W        W47670   9.756  14.428  15.487 -0.0585 -0.1438 -0.0572
34257W        W47671  11.197  12.185  13.731  0.4140 -0.1642  0.1223
34258W        W47672  17.874   8.787   0.679 -0.0650 -0.1791  0.3525
34259W        W47673  12.873  12.372  13.135 -0.3875 -0.0772 -0.2096
34260W        W47674  13.481   4.576  13.423  0.1583 -0.0442 -0.2629
34261W        W47675  10.502   5.525  14.898 -0.0139 -0.1952  0.1463
34262W        W47676  18.357  16.574   5.778  0.1231 -0.0409  0.0859
34263W        W47677   9.137   2.373   2.692  0.2859  0.0193 -0.1524
34264W        W47678   6.569   6.014  13.997  0.1494  0.3275  0.6996
34265W        W47679  18.081  18.133  13.247  0.0090  0.2789 -0.1247
34266W        W47680   7.088  15.829  12.776 -0.0446  0.0363  0.1707
34267W        W47681  14.792   8.834   2.654  0.0358 -0.0312 -0.0491
34268W        W47682  10.483  17.772  11.551 -0.0531 -0.1657 -0.0570
34269W        W47683  11.171   2.498   3.027 -0.0859 -0.1474  0.1660
34270W        W47684  10.910  11.342  12.630  0.2377  0.0086  0.2427
34271W        W47685  16.878   6.789  16.201  0.1292 -0.1621 -0.3292
34272W        W47686   2.558   2.385   6.068  0.1344  0.2206 -0.0700
34273W        W47687  15.961   4.539   0.135  0.0910 -0.0953  0.0981
34274W        W47688   7.925  15.750   0.660  0.2083  0.0213  0.2467
34275W        W47689   0.006   5.385  14.242 -0.1629 -0.0799 -0.0656
34276W        W47690  17.408  15.613   0.949  0.1468  0.2885 -0.2291
34277W        W47691   6.267  13.239  11.791  0.2140  0.1952 -0.0831
34278W        W47692  13.133  14.738  11.591  0.0342  0.1228  0.3467
34279W        W47693  13.994   3.948   2.658  0.2634 -0.0377 -0.0043
34280W        W47694  13.407   8.616   3.598  0.1903 -0.0759 -0.0936
34281W        W47695   1.266   1.823   4.197  0.0573 -0.1832  0.0716
34282W        W47696   9.247   1.603   2.113  0.1885  0.2103  0.1474
34283W        W47697   8.085  12.803  14.715 -0.1199  0.1650 -0.2061
34284W        W47698   2.155  17.831   4.790 -0.0960 -0.1032 -0.1276
34285W        W47699   7.364   0.845  12.781 -0.2742 -0.4004 -0.2134
34286W        W47700  13.508   5.753  12.785  0.1242  0.2087  0.1900
34287W        W47701   1.964   7.408   1.124  0.0924  0.0523  0.3574
34288W        W47702  18.182   8.343  16.065  0.0125  0.1734 -0.0679
34289W        W47703   7.591   8.210   2.181 -0.2489 -0.0363  0.1007
34290W        W47704  16.231   3.899  14.950 -0.0458 -0.0803 -0.0639
34291W        W47705   0.194  18.429   3.959  0.1389  0.2308  0.1694
34292W        W47706   5.306   5.723  16.092 -0.1378  0.0287  0.0538
34293W        W47707   5.709   1.185  14.138 -0.1826 -0.1516 -0.0653
34294W        W47708   4.549   5.017  10.053  0.2000 -0.4071  0.2258
34295W        W47709   3.719  13.440  13.172 -0.1736 -0.1193  0.1250
34296W        W47710   3.260  17.944  13.441 -0.0606 -0.0627 -0.1530
34297W        W47711   9.027   3.992   0.990  0.2573  0.0673 -0.0689
34298W        W47712   7.979  14.383  13.503  0.2697 -0.1256 -0.0799
34299W        W47713  10.269  10.015  13.929 -0.0713  0.3298 -0.0215
34300W        W47714  12.526  16.147   2.174  0.2633 -0.3435  0.2356
34301W        W47715   7.221   7.856   4.684  0.1324 -0.0534  0.0703
34302W        W47716   6.156  16.013   4.316 -0.1231 -0.0967 -0.1681
34303W        W47717  16.027  13.898  10.959 -0.1066 -0.0188 -0.4709
34304W        W47718  12.099   5.324  10.208  0.0341 -0.0856 -0.1125
34305W        W47719  11.308  16.266   2.357  0.0969 -0.1116  0.1358
34306W        W47720  13.444  17.883  12.716  0.0284 -0.1353 -0.0482
34307W        W47721  12.544   8.239   5.308 -0.5244  0.0367  0.2758
34308W        W47722   9.167  14.495  14.041  0.0328  0.0506 -0.2797
34309W        W47723   3.065   0.665   0.007 -0.1652 -0.0210 -0.0573
34310W        W47724  16.982  11.190   1.588  0.0062 -0.1987 -0.0656
34311W        W47725   6.796  14.167  14.222 -0.2650  0.1754 -0.0087
34312W        W47726   7.504   9.999   2.855  0.1204  0.0248  0.0875
34313W        W47727   4.425  12.383   5.324 -0.0310 -0.1085  0.1927
34314W        W47728   2.729   6.895  11.978  0.2608  0.0049  0.0255
34315W        W47729  16.475   2.885   2.026  0.1973 -0.2798 -0.4857
34316W        W47730   7.800  16.876  11.137  0.1943  0.1784  0.1220
34317W        W47731  11.686   4.625   3.414 -0.2646 -0.1239  0.1591
34318W        W47732  10.273  13.271  13.599 -0.1140 -0.0701  0.2425
34319W        W47733  12.254  13.237   2.298 -0.1199 -0.1341  0.0440
34320W        W47734   9.184  14.971   3.232 -0.3379  0.0511  0.1515
34321W        W47735  17.006   3.734  14.273  0.0540  0.0253 -0.0421
34322W        W47736  11.150  17.807   4.461  0.1392 -0.2247 -0.1696
34323W        W47737   3.997  10.372   3.982  0.0432  0.1421 -0.4418
34324W        W47738   2.162   7.403  15.037  0.2211 -0.0970  0.0322
34325W        W47739   0.943  15.263  15.969 -0.2109  0.2511  0.2417
34326W        W47740   2.258   3.248  13.745  0.2054 -0.0309 -0.0396
34327W        W47741  15.012   9.352   2.580 -0.0992  0.1877 -0.0945
34328W        W47742  18.242   9.267   3.264  0.1387 -0.1670 -0.0296
34329W        W47743  16.719   9.529   5.399 -0.0689  0.0480 -0.1602
34330W        W47744   6.724   8.578   4.584  0.1008  0.0079  0.2013
34331W        W47745  15.620  12.688  13.603 -0.0005  0.0933 -0.1080
34332W        W47746  18.018   0.669  12.473  0.0347  0.2405 -0.2693
34333W        W47747  13.462  17.656   4.661 -0.1158 -0.1148 -0.1264
34334W        W47748   8.199  17.551   0.053  0.3275  0.2602  0.1863
34335W        W47749  11.446   2.271  16.009 -0.3042  0.1625  0.0279
34336W        W47750   9.008  10.893  13.017  0.2114 -0.0365  0.1252
34337W        W47751  15.187   1.704  15.044  0.0618  0.1400  0.1250
34338W        W47752   1.545   3.497   3.169 -0.2382 -0.2619  0.0104
34339W        W47753  17.198   5.392   2.028 -0.0107  0.1893 -0.3717
34340W        W47754   3.758  16.589   5.262 -0.0702 -0.0633 -0.0598
34341W        W47755   5.364   1.689  11.451 -0.3532 -0.0021 -0.2701
34342W        W47756   4.204   8.828  10.665 -0.1515 -0.0411  0.2898
34343W        W47757  15.128  14.172   2.883 -0.1449 -0.0602  0.1580
34344W        W47758   6.808   2.960   0.827 -0.1793 -0.2410 -0.0454
34345W        W47759   2.720   1.128   5.978  0.2508 -0.2368 -0.1460
34346W        W47760  16.408   7.152  11.416  0.0600 -0.2442  0.3426
34347W        W47761  15.344   1.982   3.257 -0.2645 -0.1082 -0.0053
34348W        W47762  14.038   3.161   5.037 -0.1955  0.0253 -0.0763
34349W        W47763   6.816  15.141  10.650 -0.0501 -0.0241  0.0961
34350W        W47764   2.326  13.875   1.458 -0.0490  0.0497  0.1803
34351W        W47765  13.691  12.344  13.168  0.1583  0.2140 -0.2465
34352W        W47766   3.617   1.129   5.838  0.3289 -0.0961 -0.5452
34353W        W47767   3.000  11.300  11.395 -0.0740  0.3066  0.0094
34354W        W47768   7.286   4.601   3.412 -0.0684 -0.0339 -0.1133
34355W        W47769   3.568  13.007  14.986  0.1958  0.6241  0.0402
34356W        W47770   4.190  15.108   0.799  0.0033  0.0766 -0.0699
34357W        W47771  16.459   6.906   5.381  0.4299 -0.0580 -0.2496
34358W        W47772   9.122  10.872  15.767  0.2824 -0.1835  0.1045
34359W        W47773   8.780   8.350   1.671  0.2001  0.4073 -0.2557
34360W        W47774  15.520   6.074  12.501 -0.0252  0.0315  0.0703
34361W        W47775  10.561   9.154   4.308 -0.1285  0.0095 -0.1503
34362W        W47776   4.560   2.533  14.732  0.0226  0.0733 -0.0687
34363W        W47777   3.169  11.793   5.801  0.2792 -0.0946  0.1674
34364W        W47778   9.238  12.809  12.768 -0.2483 -0.0672  0.1844
34365W        W47779  14.129   7.308  12.149 -0.1322  0.0530 -0.0568
34366W        W47780  10.806   9.749   4.292 -0.0994 -0.0161 -0.0625
34367W        W47781  12.553  15.943  14.367  0.2861 -0.0613 -0.0344
34368W        W47782   3.355  15.960   3.355  0.0647 -0.1536 -0.1195
34369W        W47783   9.908  11.236  11.013  0.0857 -0.0600 -0.1412
34370W        W47784  17.635  12.922  15.595 -0.2144 -0.2084 -0.3897
34371W        W47785  15.871  18.342  14.228 -0.1238  0.2089 -0.1373
34372W        W47786   8.735  18.107   2.079 -0.1096  0.0246 -0.2008
34373W        W47787  15.404  10.900   5.872  0.0982  0.3388 -0.2690
34374W        W47788   3.855   4.610   1.390  0.1974 -0.0224 -0.1384
34375W        W47789   3.152  14.538  14.837  0.3863  0.1924 -0.0480
34376W        W47790   2.418  15.654   5.527  0.2097 -0.0681 -0.0010
34377W        W47791   9.364   4.991  11.170  0.2196  0.3311  0.1408
34378W        W47792  17.007  15.600  12.540 -0.0402 -0.0265 -0.0660
34379W        W47793   2.417  13.380  12.907 -0.2144  0.0898 -0.0099
34380W        W47794   8.683   0.043  10.578  0.3098  0.2651 -0.4348
34381W        W47795  10.037  15.680   3.878 -0.1903 -0.2880  0.1339
34382W        W47796  14.009   6.531  12.857  0.1943 -0.3770  0.2621
34383W        W47797  12.473  17.853   5.866 -0.1377  0.0527  0.1091
34384W        W47798  17.829   1.475   2.778 -0.1502 -0.1973  0.0673
34385W        W47799  12.112   2.863   4.900  0.1522  0.2077  0.0460
34386W        W47800   0.327  16.109   2.847  0.0892 -0.0491  0.1401
34387W        W47801   8.986   8.290   3.485 -0.0216 -0.1462  0.0148
34388W        W47802  13.965  17.601   0.063 -0.1455  0.0188  0.0345
34389W        W47803   1.088   7.518  10.668 -0.0156 -0.2030 -0.1466
34390W        W47804  17.538   0.412  14.140 -0.1377  0.0220 -0.0141
34391W        W47805  10.419  12.857   5.432 -0.0577  0.1403  0.2814
34392W        W47806   8.751   0.777  13.244 -0.2263 -0.0303 -0.1600
34393W        W47807  13.272   1.856  15.477  0.2596 -0.0322  0.4265
34394W        W47808   9.689   6.826  10.765 -0.1991 -0.3930  0.1234
34395W        W47809   8.022   2.480  11.221 -0.3240  0.1997  0.0171
34396W        W47810  12.042   9.869   2.506 -0.0255  0.1636  0.2094
34397W        W47811   2.574   2.615   1.350  0.1124 -0.0432 -0.4524
34398W        W47812  13.715  12.179  12.676  0.0291  0.2276 -0.3235
34399W        W47813  18.196   0.444  14.676  0.1147 -0.3267  0.1348
34400W        W47814   5.610   2.160   3.059  0.1706  0.3983 -0.2794
34401W        W47815  12.121   4.945  14.342  0.0383  0.0127  0.0040
34402W        W47816  10.053  18.124   4.173  0.0360 -0.3597 -0.0716
34403W        W47817  17.618  10.361  13.159 -0.0500 -0.1311  0.1071
34404W        W47818   8.332  17.004  16.225 -0.0129  0.1022 -0.0352
34405W        W47819   3.071   9.415   5.846 -0.2646 -0.0677  0.0019
34406W        W47820   2.393   5.598  13.679 -0.2306 -0.3180 -0.2025
34407W        W47821   3.058   7.029   6.182 -0.0063  0.0783  0.0704
34408W        W47822  15.937  17.214  11.257 -0.0280  0.1349 -0.0466
34409W        W47823  13.219  10.420  14.496  0.0617  0.0564  0.0582
34410W        W47824  15.936  11.286   3.745  0.1183  0.0587  0.1307
34411W        W47825   1.910  15.205   4.953  0.2377 -0.0971 -0.0057
34412W        W47826  12.183   0.890   3.879  0.2389  0.0350  0.0764
34413W        W47827   1.067  11.929  12.113 -0.0998  0.1459 -0.0343
34414W        W47828   4.481  18.202   5.581 -0.0096 -0.3143 -0.2369
34415W        W47829   4.725   9.092  11.908 -0.1093 -0.1314 -0.0393
34416W        W47830  15.084  17.097   4.835 -0.0031 -0.0662 -0.1532
34417W        W47831   9.734   4.969   0.554  0.2209 -0.2492 -0.0791
34418W        W47832  10.330   2.529  11.802 -0.1890 -0.2869  0.0519
34419W        W47833  16.362  11.221  11.466  0.3232  0.1196  0.0880
34420W        W47834   1.976  13.756  13.817 -0.2755 -0.2396 -0.0057
34421W        W47835   9.772  10.690  15.798 -0.0731 -0.2673  0.1865
34422W        W47836   4.468   7.409  15.636  0.0557 -0.1024  0.2560
34423W        W47837  15.859   0.797  14.857 -0.0433 -0.1422  0.4102
34424W        W47838   1.619  12.313   0.726 -0.0112  0.3527  0.1182
34425W        W47839  16.374   4.118  14.375  0.0388  0.0520 -0.1707
34426W        W47840   2.002   1.912  14.125 -0.1507 -0.0777 -0.2801
34427W        W47841  12.099   6.406  16.254  0.0837  0.3636 -0.2371
34428W        W47842  12.377   5.802   3.669  0.1085 -0.2919 -0.1875
34429W        W47843  15.648   5.018   1.332  0.4000  0.0606  0.0080
34430W        W47844   0.211  15.465  15.913 -0.1736  0.1577 -0.0330
34431W        W47845  17.559  16.643  15.985  0.0269  0.1740  0.0269
34432W        W47846   8.918   7.069   3.172  0.0101  0.0227 -0.0550
34433W        W47847   3.977   1.875   2.691 -0.2420  0.0476  0.2000
34434W        W47848   1.024  13.726   1.004 -0.0003  0.0617 -0.0802
34435W        W47849  13.515  10.664  12.707  0.1559  0.1162 -0.0772
34436W        W47850  18.019   6.812  15.122  0.0592  0.0485  0.1339
34437W        W47851   6.958   4.280   3.688  0.0646  0.3638 -0.1658
34438W        W47852  17.127   3.845  15.311  0.2240  0.1195 -0.0203
34439W        W47853   1.039  15.749   1.267 -0.0373  0.0899  0.0419
34440W        W47854  11.967   1.495  13.912 -0.1739  0.0225  0.1540
34441W        W47855  14.651  14.833  15.838  0.0668 -0.0700 -0.2470
34442W        W47856   3.460  10.874  15.727  0.0454  0.0968  0.1671
34443W        W47857   9.689   6.913  16.213 -0.1322  0.1086  0.2824
34444W        W47858   8.275  12.119  14.226  0.1090 -0.1187 -0.2898
34445W        W47859  12.064   9.600   0.683 -0.1118  0.1675 -0.2050
34446W        W47860   4.672   7.164  11.087  0.0082 -0.0604  0.0039
34447W        W47861  17.876   8.947  14.501 -0.2251  0.0317  0.0862
34448W        W47862  14.499  12.880   0.359 -0.3153 -0.3382  0.2964
34449W        W47863   6.448  17.159   4.263  0.2462  0.2715 -0.0375
34450W        W47864   9.086   6.852  13.588  0.0179 -0.0291  0.2005
34451W        W47865   6.120   4.355   4.983  0.1308 -0.1115  0.2636
34452W        W47866  14.272   4.971   6.555 -0.0290  0.0182 -0.0731
34453W        W47867   7.680  16.578  12.752  0.0626 -0.0862  0.1359
34454W        W47868  14.363  10.996   4.722  0.2560  0.0340 -0.0513
34455W        W47869  14.921   2.815  10.255 -0.3919 -0.1294  0.0381
34456W        W47870   8.195   0.021   3.749  0.1401 -0.0881 -0.0908
34457W        W47871   4.814   9.806  16.200 -0.3720  0.0858 -0.1384
34458W        W47872  12.580  16.702  12.556 -0.0180  0.1313 -0.0831
34459W        W47873   3.130  12.831   5.351 -0.2828 -0.3577  0.0653
34460W        W47874   6.759   0.300  15.364 -0.1735  0.2182 -0.1430
34461W        W47875   0.862   2.416  13.711  0.1609  0.2431 -0.2001
34462W        W47876  11.633   5.820   5.649  0.2065  0.1579  0.3514
34463W        W47877   2.170   9.019   3.011  0.0233  0.1499 -0.0369
34464W        W47878  16.053  13.235   2.837  0.2099 -0.2691 -0.0059
34465W        W47879   2.827  11.104   5.372  0.3079 -0.0128 -0.0244
34466W        W47880   1.634  16.073  13.070 -0.0826  0.0764  0.4114
34467W        W47881  16.259   5.332  14.133  0.0668 -0.0467  0.1612
34468W        W47882  16.367   4.847  12.053 -0.5722  0.3545  0.2512
34469W        W47883   9.614   5.924  14.520 -0.0929 -0.3320 -0.0138
34470W        W47884   9.682   8.508   2.643  0.0508 -0.0001 -0.0087
34471W        W47885   3.740  16.800  11.327  0.1256 -0.2173 -0.2845
34472W        W47886   7.066  13.332  15.355 -0.2731  0.0436 -0.3898
34473W        W47887  17.414  13.684   0.030  0.3192 -0.2655 -0.3443
34474W        W47888   6.518  10.299  10.571 -0.0457  0.1853 -0.0556
34475W        W47889  11.339  18.097   0.247 -0.2705 -0.1148  0.2356
34476W        W47890  11.191   1.965   1.147 -0.0932 -0.0077  0.0765
34477W        W47891  15.924   4.245   5.103  0.1586 -0.1187 -0.0618
34478W        W47892  10.093   7.080   0.893 -0.1230  0.0800  0.0931
34479W        W47893  13.852   1.764  12.848  0.2032 -0.1492 -0.1637
34480W        W47894   3.835   3.658  10.897 -0.0807  0.0809 -0.0383
34481W        W47895   3.275  16.061   2.319 -0.1319  0.1214 -0.0145
34482W        W47896   8.211   8.943   4.851  0.1518 -0.2591 -0.1311
34483W        W47897   5.748   4.663  15.826 -0.1997  0.0556  0.0497
34484W        W47898  13.791   9.921   3.819  0.1833  0.1004  0.2810
34485W        W47899   6.505   1.805  12.176 -0.1162 -0.0436  0.2509
34486W        W47900  17.845   3.682   5.715 -0.2212 -0.0514 -0.2837
34487W        W47901  11.053  17.475   2.408 -0.2799 -0.0570 -0.3498
34488W        W47902   0.197  14.467   4.194  0.2394  0.1217  0.2266
34489W        W47903  11.096  14.168   4.559  0.1672 -0.0275 -0.1967
34490W        W47904   3.989   2.090  12.253 -0.2495  0.5463  0.0256
34491W        W47905   2.281   2.039   3.439  0.1513 -0.1978  0.0286
34492W        W47906   2.535  13.455  14.194  0.0870  0.0365  0.1825
34493W        W47907   7.258   8.222  13.394 -0.0595 -0.1458 -0.1398
34494W        W47908   2.909  12.379   1.378 -0.2358  0.0915  0.2789
34495W        W47909   5.899   7.695   0.601  0.0111  0.1784  0.2183
34496W        W47910  10.355   5.548   3.993 -0.0740 -0.1759 -0.0211
34497W        W47911   9.289   5.401   2.810  0.1529  0.1553 -0.0394
34498W        W47912  12.268  14.934  11.423  0.1949 -0.0289  0.4210
34499W        W47913  14.971   0.661   3.488  0.1137 -0.2634 -0.0987
34500W        W47914   6.131   1.393  13.407  0.0118 -0.0011  0.2885
34501W        W47915   7.384   5.058  10.995  0.0918  0.0112 -0.1638
34502W        W47916   7.712   1.328   6.265 -0.0071 -0.0443  0.1112
34503W        W47917  12.554  13.977   1.612  0.1675 -0.0021 -0.0749
34504W        W47918   6.326   0.567  12.798 -0.1658 -0.0208 -0.1647
34505W        W47919   7.867   7.472  11.167  0.4096 -0.1471  0.0871
34506W        W47920   3.551   2.881  15.862 -0.1005 -0.1639 -0.2614
34507W        W47921  13.627  17.032   9.840  0.2650 -0.1413 -0.2116
34508W        W47922   5.602   3.307  12.127 -0.1713  0.1464  0.1827
34509W        W47923   5.896   5.350   4.676 -0.0410 -0.1520  0.0558
34510W        W47924  11.693   6.436   0.249 -0.3945  0.1419 -0.1151
34511W        W47925  17.800   6.790   0.677 -0.0708 -0.1160  0.0935
34512W        W47926   1.673  14.177   3.382 -0.0975 -0.1070 -0.1307
34513W        W47927   6.186  16.223  12.707  0.2449  0.1655 -0.0037
34514W        W47928  18.165   9.699   2.499  0.4300 -0.2123 -0.2908
34515W        W47929  11.756  12.065   1.698 -0.0161 -0.0990 -0.0326
34516W        W47930  16.510  13.620  12.778 -0.1922  0.0193 -0.0893
34517W        W47931   2.500   0.321  13.007 -0.1655 -0.1592  0.0374
34518W        W47932   2.807   0.695   2.994 -0.3195 -0.0346 -0.1089
34519W        W47933   6.534   1.648   9.936  0.0754 -0.0637  0.3475
34520W        W47934   2.477  12.039  14.471  0.0354 -0.4601 -0.1508
34521W        W47935   2.927   4.344  13.461 -0.1565  0.0025 -0.2070
34522W        W47936  14.519   2.894  12.711  0.2587  0.1905 -0.1645
34523W        W47937   9.733  17.597  10.490  0.0719 -0.1828  0.1415
34524W        W47938  18.016  16.568  14.062  0.2595  0.1594  0.0795
34525W        W47939  17.878   2.091   4.369 -0.0104  0.2372 -0.1600
34526W        W47940  18.434  11.678   4.498  0.2820  0.0117 -0.2556
34527W        W47941   1.654   0.584   4.429  0.5027  0.2090 -0.2904
34528W        W47942  17.142   4.470   1.674  0.3147  0.0819  0.1261
34529W        W47943   4.451  16.201   4.853 -0.1874  0.2976 -0.3085
34530W        W47944   4.400  11.767  11.750  0.1786 -0.1158  0.2340
34531W        W47945  10.078  13.707  15.705  0.0607  0.1359  0.0044
34532W        W47946   6.949  15.556   0.377  0.1127  0.0065 -0.2533
34533W        W47947  14.233  13.456   1.899  0.4030 -0.0045  0.1304
34534W        W47948   6.054   4.886  14.919  0.2907 -0.1771  0.0694
34535W        W47949  12.402   4.209   2.694 -0.1000  0.2332 -0.0538
34536W        W47950  15.285  15.364  10.935  0.2509  0.0062  0.1004
34537W        W47951   4.607   8.604  15.452 -0.1489  0.3081 -0.1644
34538W        W47952  14.549  10.725  10.856  0.0338  0.0394 -0.0835
34539W        W47953   4.840   1.341   0.002 -0.2233  0.0925 -0.0154
34540W        W47954   3.200   6.133   3.155 -0.0936 -0.0093  0.1773
34541W        W47955   1.403  15.633   0.053 -0.1531 -0.0591  0.4078
34542W        W47956   3.135   0.846  11.378  0.0362 -0.1336  0.0614
34543W        W47957  12.350  17.115   1.159  0.1576 -0.1226  0.0531
34544W        W47958   1.990   3.167  15.858  0.1227 -0.2516 -0.3218
34545W        W47959  10.103   9.050  12.521 -0.1908 -0.0652  0.0237
34546W        W47960  18.217  13.718   4.586 -0.2952  0.0884 -0.3400
34547W        W47961  17.619  14.493   1.124  0.0355  0.3564  0.0398
34548W        W47962   5.696  17.585   3.739  0.3960 -0.0583 -0.2255
34549W        W47963   5.923   6.108  11.817 -0.2289 -0.1865 -0.0982
34550W        W47964   6.244   7.205   0.359 -0.1721 -0.1845 -0.4964
34551W        W47965  10.762   8.766  14.219  0.0657 -0.0382 -0.2199
34552W        W47966  14.759  17.958  11.591  0.0466 -0.0072 -0.0506
34553W        W47967   1.853   8.291   3.011  0.1360 -0.1132 -0.0164
34554W        W47968  14.164   7.554   3.854  0.0058 -0.1537 -0.0711
34555W        W47969  16.016   5.082   2.884  0.1009  0.0252  0.2589
34556W        W47970  13.614   1.850   1.002  0.0134 -0.2208 -0.0711
34557W        W47971   3.630   1.668   1.088 -0.0290  0.1207  0.1308
34558W        W47972   5.937  12.046   2.076 -0.0798  0.1230 -0.0310
34559W        W47973  17.765   0.932   2.926 -0.2943 -0.1045 -0.0547
34560W        W47974   2.155  16.457   5.819  0.0065  0.0978  0.0552
34561W        W47975  18.154   1.981   1.702  0.4737  0.2852  0.0474
34562W        W47976   5.838  11.703   2.583 -0.0801  0.0118 -0.1654
34563W        W47977  16.960  12.731  15.865  0.1023 -0.1850 -0.1002
34564W        W47978  10.807  11.311  16.110  0.2108 -0.1084 -0.1654
34565W        W47979   5.867   5.592   3.770 -0.2228  0.1229  0.1349
34566W        W47980   7.687   8.453   5.430  0.2473  0.0424  0.1544
34567W        W47981   3.321   9.216   3.606  0.1599 -0.1747 -0.0015
34568W        W47982  17.686  12.220   5.527 -0.0575 -0.3167  0.1167
34569W        W47983  12.272   0.882  12.506  0.1625  0.1976  0.0731
34570W        W47984  10.174  13.841  14.877  0.0337  0.3879  0.2719
34571W        W47985  11.385  12.191  11.571  0.1974  0.3440  0.1120
34572W        W47986   1.212   4.233  12.438  0.1185  0.1317 -0.0867
34573W        W47987   0.915  10.519  15.646  0.0837 -0.2341  0.1160
34574W        W47988  16.159   7.737  14.857 -0.0647 -0.0665  0.0378
34575W        W47989   6.574  10.104   0.276  0.0968  0.0725  0.2972
34576W        W47990  11.348   5.236   2.317 -0.1652  0.0266 -0.2173
34577W        W47991   9.132  17.053   4.275  0.1067  0.0862  0.1176
34578W        W47992   3.282   7.504   3.242 -0.1891 -0.2154 -0.1435
34579W        W47993  16.848  13.062   2.220  0.0698 -0.2635 -0.0415
34580W        W47994   0.475   3.662  11.936 -0.1298 -0.1099 -0.2379
34581W        W47995   3.962   4.918  14.202 -0.1872 -0.1629  0.0493
34582W        W47996   7.679   3.757  10.534  0.0878  0.3070 -0.1635
34583W        W47997   2.015  13.012  16.252 -0.1735  0.1191  0.1213
34584W        W47998   0.932   3.741  12.180 -0.2118 -0.2610 -0.0362
34585W        W47999  11.975  12.855  13.549  0.1879 -0.2068 -0.1974
34586W        W48000   1.524   9.992  14.212  0.0952  0.2652  0.1069
34587W        W48001  16.949   0.938   5.131 -0.0358 -0.1098 -0.2020
34588W        W48002   5.989  17.418   2.376 -0.0726  0.2113  0.1325
34589W        W48003   8.081   8.458   1.560 -0.0762 -0.0226 -0.2348
34590W        W48004  18.095  17.451   1.714  0.3690 -0.2492  0.0461
34591W        W48005   7.073  13.786  11.529 -0.1045  0.0138 -0.2407
34592W        W48006  13.591  14.175  15.625 -0.0084 -0.0021  0.0308
34593W        W48007  16.928  10.628   4.708  0.0402 -0.0555  0.1381
34594W        W48008   2.704   7.902  14.347  0.2848  0.0849  0.2177
34595W        W48009   0.163   2.817   2.988 -0.2282 -0.0170  0.0565
34596W        W48010   5.482  17.039   5.229  0.0776 -0.1094 -0.0445
34597W        W48011  13.598   3.771  12.936  0.2362 -0.1305  0.1257
34598W        W48012   7.823  13.935  12.521 -0.0951 -0.2118  0.0828
34599W        W48013  15.429   3.639   2.855 -0.4584 -0.0279  0.2877
34600W        W48014  17.060  15.193  15.896  0.0857 -0.0141  0.1236
34601W        W48015   8.849  14.781   6.139 -0.4481 -0.3039  0.3094
34602W        W48016  16.285   3.605  13.067  0.2126  0.0618  0.0038
34603W        W48017  11.560   6.279  14.474  0.1216  0.2937  0.0182
34604W        W48018  17.209   9.715   1.499 -0.1544 -0.1272 -0.1476
34605W        W48019  11.373   3.196  15.406  0.0580 -0.0445 -0.3348
34606W        W48020  12.300  12.314   5.023 -0.0857 -0.0696 -0.1863
34607W        W48021  10.851   5.991  11.101  0.1091  0.1169  0.0333
34608W        W48022   2.827  15.230  15.158 -0.0303 -0.2668 -0.0657
34609W        W48023  16.296  10.971   4.388 -0.0670 -0.0301  0.1304
34610W        W48024   5.598  11.819  15.140  0.3504 -0.1285 -0.2241
34611W        W48025   5.051   9.989   4.727  0.0888  0.0134  0.1594
34612W        W48026  17.248  10.569   0.255 -0.0572  0.0771 -0.0511
34613W        W48027  11.793  16.128   4.192  0.0068 -0.1261 -0.0823
34614W        W48028   9.092   4.551   0.092  0.0203 -0.3503  0.0922
34615W        W48029  12.617   9.440   3.239  0.0466  0.1239  0.0591
34616W        W48030   4.911  10.996   5.494  0.2956 -0.0537  0.1147
34617W        W48031   5.651   4.485  13.380 -0.5100 -0.1570  0.0372
34618W        W48032   5.980   2.784   3.744  0.0774 -0.1032 -0.0323
34619W        W48033  17.255  13.954   1.651 -0.1194  0.1858 -0.1089
34620W        W48034   6.161   6.407   4.553 -0.1548  0.0472 -0.0012
34621W        W48035   0.714   1.371   2.897  0.1653  0.0692  0.4189
34622W        W48036   3.294  14.146  11.347  0.2470  0.0781  0.1810
34623W        W48037  15.221  15.483   3.148  0.1587  0.3093  0.0441
34624W        W48038  12.800   6.101  15.052 -0.0670  0.2999  0.0344
34625W        W48039  14.273  11.811  14.098  0.3504 -0.1831  0.0635
34626W        W48040  18.330   7.650  15.543 -0.0347 -0.1935  0.0903
34627W        W48041   4.135  11.175  10.612 -0.1731  0.0342 -0.1958
34628W        W48042   4.068  12.637  14.959 -0.0924 -0.2423 -0.0661
34629W        W48043  16.742  16.558  14.050  0.1895 -0.1916 -0.0139
34630W        W48044   3.035   6.277  13.235 -0.0571 -0.0469  0.1560
34631W        W48045   7.696  13.173  14.892  0.0168  0.1556 -0.1631
34632W        W48046  10.137  15.930  12.305 -0.2364 -0.2137  0.0140
34633W        W48047   9.933   9.583  12.542  0.0502 -0.1598 -0.0973
34634W        W48048   7.986   3.136   9.896 -0.0915 -0.1779  0.1661
34635W        W48049   8.442  18.247  12.964 -0.3419 -0.4247 -0.0339
34636W        W48050   0.729   9.696   2.035 -0.0099  0.2326  0.1228
34637W        W48051  12.939   1.201   2.171  0.1690  0.3024  0.1854
34638W        W48052  10.221  15.734  13.262  0.1619 -0.1843  0.0212
34639W        W48053   8.559   0.802  15.704  0.0326  0.1204  0.0498
34640W        W48054  14.794   4.420   6.019  0.0064  0.0110  0.4093
34641W        W48055   0.751  10.324   5.003  0.0653 -0.1597 -0.3428
34642W        W48056  14.805  11.741  12.566  0.1877 -0.1904 -0.2171
34643W        W48057  10.466   3.727  15.450  0.3586  0.0931 -0.2183
34644W        W48058   0.608   4.555   5.855 -0.1583  0.1430 -0.0357
34645W        W48059   1.339   5.694  14.654  0.1921 -0.0605  0.2656
34646W        W48060  14.666  10.677   0.561  0.1834  0.1012  0.1806
34647W        W48061  13.399   7.795  12.518 -0.3345  0.0831 -0.2970
34648W        W48062   7.157   1.993   2.693 -0.0661  0.0917 -0.1617
34649W        W48063  11.221   5.566  10.059 -0.5962 -0.0239 -0.0635
34650W        W48064   7.246   5.632   4.302  0.1410  0.0620 -0.1340
34651W        W48065  17.528  14.533   1.942  0.4160 -0.1968 -0.1463
34652W        W48066   3.660   4.437  14.508  0.1351 -0.0154  0.1119
34653W        W48067  14.861  11.092   2.951 -0.2317 -0.3185  0.3355
34654W        W48068  13.342  12.363   0.120  0.0880 -0.0278  0.0204
34655W        W48069   8.132  15.478  11.732  0.2471  0.1795 -0.1720
34656W        W48070   1.478   3.643  13.298  0.3033 -0.5087 -0.1003
34657W        W48071  16.643  14.597  13.700  0.0468  0.0880  0.4653
34658W        W48072   1.384   4.006   3.986 -0.0925 -0.1520  0.0088
34659W        W48073   7.155   9.212   3.014  0.1445 -0.0068  0.0744
34660W        W48074   2.276  18.174   6.795  0.2710 -0.2021 -0.4025
34661W        W48075  10.638  15.781   2.754 -0.2639  0.0214 -0.0107
34662W        W48076  14.895   9.392  13.633 -0.0496  0.3338 -0.1535
34663W        W48077  14.918   5.268   5.363 -0.1081 -0.2579 -0.0325
34664W        W48078   6.003   1.987   1.739  0.1088  0.3174  0.2367
34665W        W48079   8.527   7.980   1.841 -0.1968 -0.1557  0.0800
34666W        W48080   1.165  17.431  12.453  0.1284 -0.1153 -0.0667
34667W        W48081  15.218  11.832   3.862  0.1818  0.1662 -0.3355
34668W        W48082   6.783   3.567   2.062 -0.1225 -0.0846 -0.0178
34669W        W48083   3.467  10.402   5.411  0.0247  0.3262  0.3718
34670W        W48084   7.028  13.359   1.003  0.0504  0.0019 -0.2648
34671W        W48085  17.985  17.369  13.599 -0.1247  0.3004 -0.2738
34672W        W48086   8.184  14.749  16.237  0.0947  0.0577 -0.0990
34673W        W48087  16.322  14.808   1.991  0.1329  0.2075  0.3830
34674W        W48088   8.900   3.645  11.408 -0.1236  0.1171 -0.3283
34675W        W48089  10.353  15.201  13.518  0.3539  0.2572  0.1702
34676W        W48090  17.849   8.566  15.429  0.2598  0.0490 -0.1547
34677W        W48091   5.671   2.456   5.598  0.2337 -0.0260  0.0252
34678W        W48092  12.053  11.222  14.642 -0.1544 -0.1008 -0.0992
34679W        W48093  15.256  12.772   2.643 -0.2495 -0.1293 -0.1111
34680W        W48094  10.342  17.569  15.319  0.0764  0.1464 -0.4796
34681W        W48095   1.807   7.530   2.517  0.0502 -0.3004  0.2031
34682W        W48096   9.303   3.236  15.190  0.3036 -0.0469 -0.0188
34683W        W48097  17.018  11.898  13.206  0.1702  0.0623  0.0328
34684W        W48098   9.418   4.139  11.352 -0.0863 -0.2961 -0.0737
34685W        W48099   1.956   9.632  13.981 -0.1392  0.0809 -0.0136
34686W        W48100  15.826  13.941  13.890  0.0225 -0.1324  0.0022
34687W        W48101  13.365  11.580  13.463 -0.1541  0.0509 -0.3613
34688W        W48102   0.020  18.186  14.351 -0.0564  0.1319  0.2919
34689W        W48103  10.587  16.724  12.517  0.0060  0.3609 -0.3698
34690W        W48104  15.410   9.553   0.018 -0.1043  0.1372 -0.0359
34691W        W48105  15.711   5.967  13.763  0.1656  0.0966  0.1381
34692W        W48106  10.313   6.877   3.051  0.1231 -0.1861 -0.3598
34693W        W48107  16.129  13.494  13.919 -0.0724 -0.2455  0.1392
34694W        W48108   6.901  13.215   1.874  0.1918  0.1025 -0.0603
34695W        W48109  14.955  14.149  10.306 -0.0978  0.0967 -0.0423
34696W        W48110   1.311   4.803  11.083 -0.0541 -0.1172  0.0806
34697W        W48111  10.086   3.267   2.545  0.1073 -0.0271 -0.1236
34698W        W48112   9.146  14.962  14.249  0.1642 -0.3687  0.2440
34699W        W48113  13.806   1.992  15.440  0.0717  0.0056  0.3265
34700W        W48114  10.565   0.692   5.243 -0.1274  0.0806 -0.0092
34701W        W48115   8.619   2.648   0.114 -0.0256 -0.3115  0.0579
34702W        W48116   7.061  16.354   4.483  0.1246 -0.2261 -0.3420
34703W        W48117  10.561   3.266   1.705  0.0311 -0.1009 -0.1033
34704W        W48118  10.507   0.341   4.099  0.0025  0.0004  0.3612
34705W        W48119  16.656   8.402  15.156 -0.0987 -0.0210  0.0457
34706W        W48120   6.326   1.061  12.888 -0.0125 -0.2573  0.2799
34707W        W48121  12.866  10.462   2.911  0.0263 -0.0806 -0.2016
34708W        W48122   9.093   8.768  15.041  0.1833  0.0822 -0.2394
34709W        W48123   1.066   7.980  10.768 -0.3456  0.1982 -0.1813
34710W        W48124  15.321   2.351  12.147  0.0214 -0.1812  0.2066
34711W        W48125  16.179   4.975   4.166 -0.1196 -0.4992  0.1634
34712W        W48126   4.681   1.470   4.746  0.0981  0.0340  0.0620
34713W        W48127  12.534  10.079   2.527  0.0589  0.1769  0.3076
34714W        W48128   5.838   8.024   2.115  0.1990  0.1855  0.0766
34715W        W48129   3.857   9.115  10.986 -0.2307 -0.2302  0.1637
34716W        W48130   8.448  12.620   3.145 -0.1267 -0.2033 -0.0063
34717W        W48131  17.915   8.052  10.343  0.2039  0.0074 -0.0760
34718W        W48132  11.151   3.884   3.901 -0.1308 -0.0332  0.0317
34719W        W48133   2.720   7.007   4.790 -0.1554  0.3389 -0.1220
34720W        W48134  15.876  10.280   5.439 -0.1636  0.0574  0.2395
34721W        W48135  12.349   1.727  15.090 -0.2363 -0.1442  0.2163
34722W        W48136   2.662   2.434  15.374 -0.0500  0.0168  0.1848
34723W        W48137   4.249   8.836   2.239  0.1497 -0.1181 -0.1167
34724W        W48138   4.472   8.813  14.132 -0.4145  0.2848  0.2194
34725W        W48139   4.142  18.441   2.566  0.0957 -0.0378 -0.0427
34726W        W48140  17.151  16.183  13.389 -0.1145  0.4598  0.1075
34727W        W48141   3.484  13.765  16.206 -0.0801 -0.3856 -0.1358
34728W        W48142  10.603  13.003   0.669  0.1252 -0.1922  0.2394
34729W        W48143  10.670  14.399   0.668  0.0678  0.0582 -0.1241
34730W        W48144  13.287   2.688  11.304  0.0852 -0.4715 -0.2573
34731W        W48145   6.684   6.708  12.055  0.1685 -0.1141 -0.1378
34732W        W48146  11.958  18.104   2.300 -0.2531 -0.0311 -0.2670
34733W        W48147   3.182  16.238  11.965  0.2145  0.1358 -0.0371
34734W        W48148  13.050   8.679  12.071  0.2129 -0.3626  0.1781
34735W        W48149  16.038   7.868   2.545 -0.0378  0.2046  0.0843
34736W        W48150   4.137  14.478   0.921 -0.0078  0.2918  0.2344
34737W        W48151   6.448   6.267  13.561  0.1599  0.4094 -0.2985
34738W        W48152   9.400   6.158  11.925 -0.1917 -0.0827  0.0093
34739W        W48153  14.594   4.034   3.433  0.0091  0.2307  0.4893
34740W        W48154   1.411   6.824   1.447 -0.1568  0.0663  0.3053
34741W        W48155   6.978   0.014   5.292  0.1706  0.1021 -0.1007
34742W        W48156  17.025  14.151   3.483 -0.2003  0.2182  0.2394
34743W        W48157  14.634  11.770  14.460  0.2770 -0.0186  0.0659
34744W        W48158   4.988   3.269   1.926 -0.4291  0.2834 -0.3243
34745W        W48159   3.746   4.588  16.167 -0.0542 -0.2165 -0.2775
34746W        W48160   3.981  15.757  10.848 -0.0187  0.2384  0.0564
34747W        W48161   2.762   0.653  10.769  0.1272  0.5904 -0.1987
34748W        W48162  15.160  11.699   0.397 -0.0714  0.0494  0.3934
34749W        W48163   4.941  15.233  14.655 -0.2911  0.2568 -0.1038
34750W        W48164  18.210   4.841   0.369  0.1514 -0.0375  0.1343
34751W        W48165  12.222   3.011   0.440 -0.1258  0.0910 -0.0538
34752W        W48166  12.658  13.751  13.424 -0.3003  0.0685 -0.3466
34753W        W48167  10.684   7.826  14.399 -0.0557 -0.1321 -0.1656
34754W        W48168  14.061   9.764   3.363 -0.2710 -0.2792  0.2362
34755W        W48169  14.518   9.955   4.328 -0.2431 -0.0042 -0.1608
34756W        W48170  15.644   6.721  13.133 -0.0897 -0.1414 -0.0422
34757W        W48171   5.968  10.711   1.740 -0.1443  0.0292 -0.1219
34758W        W48172  12.616  13.247  13.298  0.0571  0.2779  0.0650
34759W        W48173  15.344   7.125   3.647  0.1765 -0.2054 -0.0413
34760W        W48174  11.841   3.260   2.318  0.1380  0.0072 -0.0056
34761W        W48175   5.893   1.445   0.970 -0.1970  0.1313  0.1912
34762W        W48176   5.473   4.970  14.268  0.0825  0.0353  0.0332
34763W        W48177  16.602   3.008  14.378 -0.1611 -0.1838  0.0887
34764W        W48178  14.473   5.288  12.636 -0.1355 -0.4409 -0.2812
34765W        W48179  16.038   3.144   0.474  0.2530 -0.3665  0.2653
34766W        W48180  18.367   1.836  12.965 -0.0786 -0.0671 -0.1724
34767W        W48181  15.271   0.811   2.416 -0.0921  0.1744  0.1040
34768W        W48182  10.756   4.109   9.748 -0.0317  0.0883 -0.1815
34769W        W48183  11.801   6.471   5.027  0.0906 -0.0530  0.1516
34770W        W48184   8.043   8.675  11.377  0.4125  0.0209 -0.0671
34771W        W48185   3.789   2.000  13.865 -0.1376 -0.4474 -0.2488
34772W        W48186  17.698   3.067   2.577 -0.1519  0.0810  0.2122
34773W        W48187   4.839   4.870   1.455  0.0014  0.2142  0.0381
34774W        W48188   8.898   8.383  12.266  0.3609 -0.1126  0.3986
34775W        W48189  12.386   3.402  14.903 -0.0708 -0.2811  0.1159
34776W        W48190   5.605  12.576  11.811  0.0677  0.2575  0.3119
34777W        W48191   0.160   1.849  11.582  0.1284  0.1007 -0.1151
34778W        W48192   7.533  14.333  10.339 -0.0719  0.3730 -0.1460
34779W        W48193   8.067   2.968  10.349  0.3312 -0.0484  0.1628
34780W        W48194   4.754   2.173   0.560  0.3172  0.1963  0.1118
34781W        W48195   4.619  11.361   2.305 -0.0694 -0.1270 -0.3156
34782W        W48196  18.100   5.993   2.753  0.1852  0.0349  0.2444
34783W        W48197   0.412   2.157   5.205  0.0609  0.3272 -0.1873
34784W        W48198   5.872   7.814  11.221  0.1226 -0.0506  0.0964
34785W        W48199   2.133   8.106   5.583 -0.0364 -0.0797 -0.2965
34786W        W48200   6.051   9.251  15.459 -0.0790  0.0217 -0.0106
34787W        W48201   4.164   0.212   5.604 -0.1154  0.0791 -0.0025
34788W        W48202  11.352   2.115  14.172 -0.1720 -0.3288 -0.0988
34789W        W48203  10.404  17.598  12.980 -0.1271 -0.0753  0.2110
34790W        W48204   3.030   9.511  11.493  0.2099  0.1918 -0.2979
34791W        W48205  14.701  17.950   9.825 -0.2016  0.1493  0.3770
34792W        W48206   3.698  11.498  15.878  0.2310  0.0030  0.2361
34793W        W48207   7.118  17.715  13.636  0.2856  0.1530 -0.0700
34794W        W48208   8.395   6.686   3.723  0.1314  0.1473 -0.1758
34795W        W48209   7.504  14.932   2.988  0.0067  0.1063  0.2159
34796W        W48210   0.187  16.309  13.220 -0.2790  0.2511  0.0675
34797W        W48211   5.062  12.267   2.117 -0.5205 -0.0187  0.3644
34798W        W48212  15.891   8.850   3.520 -0.1269 -0.1718  0.2316
34799W        W48213   0.810  17.555  16.272  0.0684  0.0437  0.2582
34800W        W48214  13.181   1.075   1.028 -0.2223  0.1061 -0.3255
34801W        W48215   9.478  15.294  11.804 -0.2507  0.0163 -0.3188
34802W        W48216   8.819  16.735   4.525  0.0674 -0.0980  0.0664
34803W        W48217  16.598   3.037  16.101 -0.0271 -0.3628 -0.1425
34804W        W48218   3.779  17.872  11.565  0.0457  0.0293  0.3640
34805W        W48219  12.750   0.714  12.575 -0.1505  0.0609  0.2407
34806W        W48220  12.060  12.224  12.441  0.0880  0.2915  0.1614
34807W        W48221   5.985   8.057  15.906 -0.0032  0.0731  0.0110
34808W        W48222  13.914  10.727   4.392 -0.0035 -0.1752 -0.1169
34809W        W48223   2.093   6.318  12.824 -0.0482  0.0644  0.0571
34810W        W48224  16.421  11.678   1.916 -0.2006 -0.2853  0.3287
34811W        W48225   7.734   7.066   3.004  0.0725  0.0717 -0.1907
34812W        W48226  10.060  12.740   0.034  0.0216  0.1099  0.4100
34813W        W48227   7.589   7.753   0.378  0.2721 -0.1026 -0.1780
34814W        W48228   2.416   9.761   3.517  0.4888  0.1378 -0.2427
34815W        W48229  17.295  12.810   3.497  0.0005 -0.1268  0.2760
34816W        W48230  10.211   7.041   5.327  0.3302 -0.1534 -0.3117
34817W        W48231   8.521   9.003   3.268 -0.1241  0.2394  0.2572
34818W        W48232   9.719   8.464  15.205 -0.2701 -0.1062  0.1112
34819W        W48233  13.888  13.445   2.243 -0.1179  0.0318  0.0280
34820W        W48234  16.934   8.834  11.206 -0.1380  0.2123 -0.0465
34821W        W48235   8.369  16.478  12.113  0.1230  0.1644 -0.1644
34822W        W48236  16.285   9.483  13.758 -0.0499 -0.2873 -0.0684
34823W        W48237   4.026   5.008  12.530 -0.1804 -0.0912 -0.0848
34824W        W48238  16.853  17.093   0.075  0.2799  0.1038  0.1361
34825W        W48239  11.107   2.551  14.578  0.0378  0.1450 -0.2996
34826W        W48240  12.221  16.201   2.618  0.1720 -0.3657 -0.1548
34827W        W48241  11.221   3.461  16.195 -0.0547 -0.0971  0.1450
34828W        W48242   0.325  16.487  11.780 -0.0115  0.0787  0.0754
34829W        W48243   9.313  11.336   5.932  0.1745 -0.0012  0.0435
34830W        W48244  14.383  15.906  14.795 -0.0958  0.1141  0.0737
34831W        W48245   2.590  11.943   2.259 -0.1637  0.0764 -0.1483
34832W        W48246   5.350  12.569  12.400 -0.1481 -0.0233 -0.2360
34833W        W48247  14.631  17.747   5.622 -0.1318  0.0127  0.1974
34834W        W48248   6.948  10.703  13.145  0.1265 -0.1732 -0.2267
34835W        W48249   9.093   1.144  12.243 -0.1270  0.0280 -0.2065
34836W        W48250  14.738   6.528   4.839 -0.0111  0.0506  0.1820
34837W        W48251   3.036  16.145  13.811 -0.2167  0.0746  0.0642
34838W        W48252  12.169   2.865   1.373 -0.2721  0.1755 -0.1267
34839W        W48253   9.035   5.898  12.260  0.0644 -0.1884  0.1395
34840W        W48254  12.435  12.972  14.236  0.0905  0.1478 -0.1796
34841W        W48255  14.664  14.878  14.608  0.0663  0.0360  0.0468
34842W        W48256  13.149  13.107   1.723 -0.1097 -0.0367  0.4513
34843W        W48257   1.391  18.397  11.890 -0.1549  0.0618 -0.2130
34844W        W48258   8.709  12.759  14.611 -0.0516  0.0101 -0.3013
34845W        W48259  13.009  18.270   3.774  0.1628  0.1820 -0.1610
34846W        W48260   5.810  14.539   4.524  0.0778  0.1209 -0.0932
34847W        W48261   9.569  13.413   2.357  0.2597 -0.1022  0.2836
34848W        W48262   5.337   6.735   5.512 -0.2031 -0.2409  0.0813
34849W        W48263  13.139   3.651  15.484 -0.0061  0.0651 -0.0108
34850W        W48264  12.856   8.004   6.697 -0.0313  0.1205 -0.4086
34851W        W48265   7.853   3.214   6.275  0.1644 -0.1226 -0.1784
34852W        W48266  10.066   3.582  15.127  0.1154  0.2576  0.0717
34853W        W48267  18.410  17.758   6.842  0.0153  0.0552  0.3298
34854W        W48268  10.888   4.672  13.079  0.2186  0.3182  0.0791
34855W        W48269  11.994  12.371  13.409 -0.0035 -0.0404 -0.1799
34856W        W48270  11.955   6.464   1.925  0.2400  0.0160 -0.2018
34857W        W48271  14.956  18.095  12.081  0.0929 -0.0932  0.0132
34858W        W48272   2.007  18.052  15.433 -0.2241 -0.2487 -0.0808
34859W        W48273   5.703  16.355  12.828  0.0826 -0.1836  0.0140
34860W        W48274   8.258   6.350  12.419  0.2317  0.2400 -0.0656
34861W        W48275  14.950   0.984  11.715 -0.1407 -0.3304  0.0588
34862W        W48276  13.092   9.651  14.747  0.1860 -0.0268 -0.2376
34863W        W48277   5.613  10.211  12.860  0.1667  0.0547  0.0706
34864W        W48278   0.850   2.787  15.606 -0.0005  0.0457  0.0891
34865W        W48279   2.712   1.291   0.946  0.0708  0.2146 -0.2725
34866W        W48280   6.170  10.347   0.722 -0.1245  0.1104  0.0773
34867W        W48281  12.029  17.680   4.574  0.2426 -0.0500 -0.0402
34868W        W48282   5.727  10.673  13.938  0.0765  0.0394  0.0926
34869W        W48283  14.541  15.563   5.283 -0.2059  0.0591 -0.0122
34870W        W48284  12.802   3.662  10.929 -0.3008 -0.0231 -0.1002
34871W        W48285  11.428   0.385   2.807 -0.0258 -0.0183  0.0864
34872W        W48286  11.577   2.182  12.454  0.1296 -0.0041  0.3242
34873W        W48287  17.473  10.784  16.035 -0.1351  0.1458  0.2902
34874W        W48288   7.190  18.314   4.355  0.0895 -0.2348  0.2831
34875W        W48289  15.789   1.370  13.348 -0.1243  0.0731  0.1067
34876W        W48290  12.162  14.250  11.647  0.0668  0.0257  0.2341
34877W        W48291   0.394   4.236  15.654 -0.0933  0.2842  0.2502
34878W        W48292  11.463   3.095  13.225  0.0381  0.0016 -0.0577
34879W        W48293  11.115   7.384  12.783  0.0991  0.0218 -0.0170
34880W        W48294  10.409   6.538  13.580  0.1695 -0.3653 -0.1909
34881W        W48295   1.056   1.640  14.673 -0.1351 -0.0817  0.1695
34882W        W48296   6.505   1.531  13.086  0.0148  0.0530  0.3022
34883W        W48297   0.687   0.857   3.122 -0.0682 -0.0093 -0.1044
34884W        W48298   7.879   3.800  14.068 -0.1109 -0.0209 -0.2824
34885W        W48299  12.017  17.002   2.706 -0.0626 -0.0851 -0.2106
34886W        W48300   7.015  14.029   3.755  0.0953  0.0670 -0.0359
34887W        W48301   4.474   7.457   0.530 -0.0789  0.0411 -0.0487
34888W        W48302  11.633   6.448   4.546  0.0490 -0.0221  0.1022
34889W        W48303   5.908   5.888  13.441  0.0400  0.0814  0.1621
34890W        W48304   8.465  16.785   2.202 -0.0525 -0.0464 -0.3580
34891W        W48305  11.435   0.598   4.767 -0.0763 -0.0368  0.1242
34892W        W48306   4.466  13.334   1.198  0.2940 -0.0600  0.0537
34893W        W48307  12.448   6.559  12.382 -0.2591  0.4148  0.1682
34894W        W48308   6.728  17.597  11.451 -0.0041  0.3529  0.1142
34895W        W48309   3.455   6.075   4.073  0.1281  0.3465  0.0940
34896W        W48310   1.794   0.336   6.761  0.0982 -0.0826  0.0207
34897W        W48311   5.056   2.994   5.999  0.0674 -0.2252 -0.0501
34898W        W48312  16.985   0.714  14.176  0.0172  0.1325  0.0916
34899W        W48313  13.017   5.577  13.883  0.0308 -0.0670 -0.0012
34900W        W48314   0.340   7.494  12.207 -0.0577 -0.2486 -0.2193
34901W        W48315  10.742  15.643  16.223  0.2512  0.2349  0.0022
34902W        W48316   5.983   8.577   5.930 -0.2373 -0.0697 -0.0860
34903W        W48317  16.779  16.637  14.768 -0.0390 -0.0725  0.1216
34904W        W48318   2.660  12.405   9.811 -0.0586  0.2952 -0.0461
34905W        W48319  13.548  14.178   9.473  0.0322 -0.1526  0.0049
34906W        W48320  10.230  12.420   4.521  0.0771  0.0679  0.0804
34907W        W48321   0.211   4.085   3.432 -0.1436  0.0355 -0.4438
34908W        W48322  17.430   0.969   5.105 -0.1657 -0.0939 -0.2653
34909W        W48323  12.352  11.820  16.148  0.3721  0.0090  0.0571
34910W        W48324   8.453   4.104   4.840 -0.0009 -0.3298 -0.1964
34911W        W48325  11.982   8.234   2.571 -0.1676  0.1856  0.1047
34912W        W48326  13.515   7.046  12.465  0.1358 -0.0105 -0.1007
34913W        W48327   1.514   2.206  15.843  0.1245 -0.1261  0.4436
34914W        W48328  10.131   8.797   5.747  0.4540 -0.0176 -0.0101
34915W        W48329   9.984   0.174  13.649 -0.0896 -0.0332  0.1350
34916W        W48330   1.795  10.843   5.781 -0.0704 -0.0589 -0.2228
34917W        W48331  14.409   0.490  11.275  0.6789 -0.2024 -0.0854
34918W        W48332  18.418  17.755  11.054  0.2204  0.0364  0.0873
34919W        W48333   0.561  18.296   2.801 -0.0350 -0.0416 -0.2225
34920W        W48334   0.324  15.678   9.811  0.0476  0.1336  0.0637
34921W        W48335   5.882  16.819   1.592  0.4518  0.1136 -0.0656
34922W        W48336   6.468  14.615   3.905 -0.0981  0.0263 -0.1468
34923W        W48337   9.785   8.785  13.408 -0.3138  0.3650  0.1519
34924W        W48338  16.638  13.920   5.153  0.0250 -0.0069  0.2536
34925W        W48339  16.900  15.478   3.172 -0.0603 -0.2145  0.1845
34926W        W48340   8.182   5.484  14.115  0.2187 -0.0677  0.0236
34927W        W48341   4.569  12.246   4.013  0.0710 -0.0875  0.1345
34928W        W48342   0.551  17.454   5.640  0.2899 -0.1481  0.1517
34929W        W48343   6.864   7.881   1.463  0.1251 -0.1370 -0.0342
34930W        W48344  15.115  18.111   2.247  0.3379  0.1201 -0.0920
34931W        W48345   4.132  13.490   9.743 -0.1838 -0.0228  0.2330
34932W        W48346   8.743  14.192   2.045 -0.0768 -0.1797  0.0436
34933W        W48347   8.789   8.240   5.268  0.3341  0.1165  0.1041
34934W        W48348   9.570  11.144  15.866 -0.2709 -0.1498  0.1888
34935W        W48349   7.701   9.482   2.853  0.3113  0.1301 -0.1100
34936W        W48350   8.910  11.980   1.598  0.0755 -0.0464  0.0743
34937W        W48351   4.871   2.139   0.008  0.1208 -0.1331 -0.4440
34938W        W48352   2.214   2.115  10.824  0.0160  0.1295 -0.2864
34939W        W48353   0.071  12.759  11.537  0.3228  0.1492 -0.1113
34940W        W48354   8.176   5.570  11.023  0.2097  0.2338  0.1490
34941W        W48355   7.634   7.319   3.912  0.2251  0.1465 -0.0522
34942W        W48356  17.880  15.497   2.147  0.1557  0.0925 -0.2001
34943W        W48357  12.762  17.712  16.093  0.1561  0.1983 -0.0657
34944W        W48358   9.349   0.806   0.561 -0.1191  0.0189 -0.1145
34945W        W48359   5.903  15.069   9.758  0.1386 -0.2095  0.1393
34946W        W48360   2.604   6.299   0.609 -0.1586  0.1691  0.3020
34947W        W48361   0.954   5.087  14.148 -0.0256  0.0743 -0.0962
34948W        W48362   5.685  16.300   0.136 -0.5544  0.2631  0.1345
34949W        W48363   4.758   2.290  15.221  0.0911 -0.0557 -0.1019
34950W        W48364  16.969  11.859  10.933 -0.4923 -0.2084  0.1587
34951W        W48365   1.353  16.754  15.713  0.1664  0.1640 -0.0391
34952W        W48366   7.212   6.950   2.868  0.0711 -0.0232 -0.6127
34953W        W48367  10.012   2.265   0.972 -0.0781  0.2668  0.2172
34954W        W48368   4.006  12.424  15.374  0.2447  0.0155  0.0197
34955W        W48369   1.366   0.990   4.120  0.1991  0.1510 -0.2817
34956W        W48370   8.181  11.519  12.006  0.1640 -0.2729 -0.0708
34957W        W48371   3.407  17.664   4.172  0.2354  0.0445  0.0758
34958W        W48372   8.678   7.269   0.798 -0.1439 -0.4524 -0.0485
34959W        W48373   2.837  10.931  14.394 -0.3865  0.1382  0.2562
34960W        W48374  13.801  12.258  10.734 -0.6592  0.2433 -0.1166
34961W        W48375  10.993  15.936   4.635  0.2709 -0.3304 -0.1010
34962W        W48376  12.449  15.808  15.136 -0.0838  0.1985  0.2405
34963W        W48377  14.733  15.064   1.001  0.1156  0.0307  0.0357
34964W        W48378  11.500   3.478  14.373  0.0274 -0.4007 -0.2569
34965W        W48379   6.509  16.993   3.761  0.1179 -0.0300 -0.3166
34966W        W48380  16.171  15.574  15.059 -0.1293 -0.3151 -0.5087
34967W        W48381  10.549   0.985  15.650 -0.1669 -0.1678 -0.1289
34968W        W48382  17.366   0.899   4.577 -0.1621 -0.2912  0.1455
34969W        W48383   2.415   6.864  12.304 -0.0672 -0.0349 -0.1706
34970W        W48384   2.835  13.021  12.853 -0.0530 -0.1962  0.3981
34971W        W48385   3.107   5.136  10.022 -0.2483  0.3249 -0.0390
34972W        W48386  18.153   5.837   6.022  0.2140  0.1259 -0.2193
34973W        W48387  10.331  10.998  16.258 -0.2039  0.0937  0.0687
34974W        W48388  14.666   7.530  11.384  0.4887 -0.0753  0.0510
34975W        W48389   1.666   6.594  15.882 -0.1184 -0.0911  0.0968
34976W        W48390   2.605  11.668  15.503 -0.2832 -0.2780  0.0420
34977W        W48391   7.405   8.225   3.229 -0.3545 -0.0304 -0.1176
34978W        W48392   6.297  11.093   4.710  0.2542  0.2563  0.0685
34979W        W48393   4.500   4.056  10.905 -0.0461 -0.0766  0.1013
34980W        W48394  14.816   0.999  15.641 -0.0975  0.0258 -0.2259
34981W        W48395  18.052   4.182  11.660 -0.1458 -0.2222 -0.1490
34982W        W48396  16.196   4.463   5.413 -0.0708 -0.3630 -0.2195
34983W        W48397  10.472  16.494  15.148 -0.1142  0.0658 -0.1271
34984W        W48398   4.801   9.025   0.461  0.0376  0.1346 -0.2354
34985W        W48399  17.345  15.210  12.674  0.1543  0.0420 -0.1906
34986W        W48400   9.630  11.087  13.990  0.2027 -0.3078  0.2497
34987W        W48401   9.791  13.001   1.575 -0.0157  0.0958  0.0561
34988W        W48402  16.890  11.473   4.915 -0.0874  0.1615  0.1263
34989W        W48403   1.135   9.523   3.284  0.4265 -0.0415  0.3423
34990W        W48404  17.029   4.308  15.646  0.0924 -0.1174  0.2090
34991W        W48405  13.773  17.903  10.244 -0.0542 -0.1704  0.0363
34992W        W48406  15.185  15.025  10.214 -0.0585 -0.1738 -0.0788
34993W        W48407  14.137   4.878   1.427  0.0729 -0.0255  0.0427
34994W        W48408  14.788   5.488   1.357 -0.1487  0.1778  0.2795
34995W        W48409   0.581   0.777   4.165  0.2839  0.1865  0.1641
34996W        W48410  17.582   6.358  16.065  0.0183 -0.1998 -0.1460
34997W        W48411   8.474   4.797   2.691  0.3202  0.1671 -0.0238
34998W        W48412  13.001   3.356   0.217 -0.3812 -0.1182 -0.3127
34999W        W48413  12.989  13.280   2.897 -0.0114 -0.1109  0.2687
35000W        W48414   6.442  13.077  12.642 -0.0054 -0.1755 -0.3169
35001W        W48415  10.980  15.074  11.120 -0.1547  0.0142 -0.4071
35002W        W48416  15.673  14.674   2.730  0.0782 -0.0279  0.0545
35003W        W48417   7.548   2.885   5.551 -0.0203 -0.2427 -0.0160
35004W        W48418   6.448   8.266  12.893 -0.0733  0.1696  0.0827
35005W        W48419  15.953  10.754  13.057 -0.0282 -0.2609  0.1053
35006W        W48420   9.047  17.747   2.712  0.2737  0.0710 -0.1886
35007W        W48421   4.392  15.381   0.467  0.2823  0.2935 -0.2862
35008W        W48422  11.812  10.332   1.870 -0.0538 -0.0392  0.0415
35009W        W48423   4.706   1.974  10.945 -0.0419  0.0881 -0.2579
35010W        W48424   9.859   2.947  12.171  0.1988  0.1379  0.0707
35011W        W48425  15.888   9.494  14.091 -0.2461  0.0689 -0.0052
35012W        W48426   4.934  17.848   0.079  0.1196 -0.0927  0.3035
35013W        W48427   4.752   7.943   4.720  0.4223 -0.0020 -0.1299
35014W        W48428   8.823  14.800  12.797  0.1200  0.1277 -0.0915
35015W        W48429   8.350  17.999   1.167 -0.1061 -0.1482  0.1053
35016W        W48430  16.777   6.981   2.850  0.2188  0.0868  0.0470
35017W        W48431   3.793   1.276   0.800 -0.3618 -0.0136 -0.1491
35018W        W48432  16.529   6.569  14.122 -0.0031  0.4873 -0.4110
35019W        W48433  11.516  13.895  16.138  0.2037 -0.0396  0.0178
35020W        W48434   2.986   6.228  12.670  0.1476 -0.4071  0.1526
35021W        W48435  13.596  14.989   2.647 -0.4935  0.1237  0.2189
35022W        W48436   3.473  17.343  13.820 -0.0876  0.1309 -0.0530
35023W        W48437  14.584   8.480   3.838  0.2097  0.1307 -0.0432
35024W        W48438   4.006   9.424  12.547  0.0996  0.0914  0.0918
35025W        W48439   8.654  10.317   3.463 -0.0711  0.0664 -0.0439
35026W        W48440   5.739   4.552   1.817  0.0812  0.0922 -0.0730
35027W        W48441  13.282   8.077  11.354 -0.1716 -0.1164  0.0657
35028W        W48442  13.288  12.537   4.027 -0.0915  0.1749  0.0630
35029W        W48443   0.884   2.175  14.673 -0.1009 -0.1900  0.0357
35030W        W48444  14.548   3.210  10.882  0.2213  0.2455 -0.2811
35031W        W48445  13.067  11.890   5.186  0.0403  0.1183 -0.2709
35032W        W48446   6.004   1.268   3.063 -0.1287  0.5484 -0.0477
35033W        W48447   3.933   1.635  10.459 -0.1666  0.2637  0.0672
35034W        W48448  14.025  15.203   1.378 -0.3672  0.0847 -0.0187
35035W        W48449   2.648   2.543  12.910  0.2085 -0.0376 -0.1072
35036W        W48450   8.948   1.687  15.457 -0.0193 -0.2581  0.0211
35037W        W48451  15.400  10.228  12.695 -0.0177  0.1482  0.1619
35038W        W48452  13.359  14.619   4.105  0.2343  0.1511 -0.0968
35039W        W48453   2.309  10.371  16.104 -0.0154 -0.1173 -0.2448
35040W        W48454  12.650   0.860   1.943  0.1250 -0.0222  0.0190
35041W        W48455   4.770  17.841   1.306  0.2927  0.2706 -0.0473
35042W        W48456   0.063  17.739   2.428 -0.2319  0.3459  0.1385
35043W        W48457  17.966   5.654  15.014  0.3152 -0.1903  0.1696
35044W        W48458   4.118  18.229  13.807  0.2307 -0.0433  0.2204
35045W        W48459  11.527   1.706  13.886  0.0418 -0.5380  0.1043
35046W        W48460  18.077  10.318   0.757 -0.1358  0.0153  0.0413
35047W        W48461  16.582  16.983   1.342  0.2180 -0.1823 -0.0963
35048W        W48462   2.088  14.856  10.448 -0.2316  0.3256  0.0625
35049W        W48463  14.756   3.130   3.874  0.1026 -0.2796  0.0598
35050W        W48464  17.822   6.945   1.230  0.0724 -0.3838  0.3754
35051W        W48465   6.187   4.983   2.525  0.1274 -0.0780 -0.0205
35052W        W48466  10.298  14.567  11.814  0.0211  0.1320 -0.1371
35053W        W48467  13.956   9.029   2.928  0.1654  0.0796  0.0816
35054W        W48468   5.979  16.523   4.527  0.2328  0.1361  0.1084
35055W        W48469  16.756  17.520  13.490 -0.0584 -0.0940  0.0649
35056W        W48470   9.231   3.646  14.846 -0.2303  0.0035 -0.0156
35057W        W48471  13.672  13.648  10.979 -0.0319 -0.0594  0.0753
35058W        W48472   8.849  11.155   3.494  0.1642  0.2029 -0.0851
35059W        W48473  11.524   5.142  14.272 -0.3309 -0.0900 -0.0275
35060W        W48474   7.971   5.839   3.564 -0.1567  0.2479 -0.1848
35061W        W48475  11.130  11.723   0.415 -0.2668  0.1195 -0.2697
35062W        W48476   8.431  17.072  12.206 -0.1354 -0.1086 -0.1994
35063W        W48477  14.396   2.443   0.960  0.2618  0.0697 -0.3025
35064W        W48478   6.333   7.334   5.300 -0.0744 -0.2166 -0.0046
35065W        W48479  15.593   5.286  16.101  0.0025 -0.3012  0.5871
35066W        W48480   4.996  15.460   1.446 -0.1293  0.0903  0.2171
35067W        W48481   9.228  13.760  15.764  0.1690 -0.0734  0.0440
35068W        W48482  11.855   7.607   5.104 -0.0950 -0.2191  0.0769
35069W        W48483   8.594   1.293  13.128 -0.1852 -0.1174 -0.1261
35070W        W48484  15.552  10.767  12.713  0.2050 -0.1176 -0.1006
35071W        W48485   4.884   5.872  12.300  0.0036  0.1555 -0.0181
35072W        W48486  13.728   4.597   5.815 -0.4164 -0.1445  0.0657
35073W        W48487   1.189   5.849   0.130  0.1386 -0.1697 -0.2154
35074W        W48488  18.336   9.330  11.495 -0.1409 -0.1310  0.0615
35075W        W48489  10.076   6.134  14.279  0.4239  0.1813 -0.1731
35076W        W48490   4.812   8.191  11.687  0.0661 -0.1610 -0.0111
35077W        W48491   8.829  11.276   0.720 -0.1832 -0.0314  0.1659
35078W        W48492   4.487   3.425   1.134  0.1283 -0.2616  0.1954
35079W        W48493   9.784  17.160  12.238 -0.1511 -0.1856 -0.2066
35080W        W48494  12.973   5.006   3.943 -0.0886  0.0695  0.1178
35081W        W48495   9.349   5.796  10.682  0.1563  0.1855  0.1767
35082W        W48496   4.012  10.303  15.157 -0.0194  0.2293 -0.0702
35083W        W48497   6.211  10.872   0.787  0.0461 -0.1623  0.0510
35084W        W48498   0.393  18.397   1.019  0.0145  0.1000 -0.1109
35085W        W48499   8.964   6.345  11.953  0.0508  0.0522 -0.2278
35086W        W48500   6.637   7.694  12.780  0.1251 -0.2569 -0.0061
35087W        W48501   2.505   9.027   3.997  0.2958  0.1456  0.3471
35088W        W48502   7.308  11.761  14.598 -0.2516 -0.0091  0.0221
35089W        W48503  10.038  12.053  14.278 -0.0431  0.0937 -0.1833
35090W        W48504  11.145   8.403   0.210 -0.4210  0.2181 -0.2271
35091W        W48505  15.165  15.826   1.930  0.0785  0.1091  0.3489
35092W        W48506   9.384   1.479  11.439  0.0913  0.2206 -0.0989
35093W        W48507  16.827   9.891  11.103 -0.1272  0.0918 -0.0014
35094W        W48508   9.212   9.163   3.819  0.1482 -0.0470  0.0643
35095W        W48509   0.277   9.118  15.026  0.3221  0.0498 -0.1024
35096W        W48510  16.247  18.049  14.148 -0.0501 -0.0362 -0.0476
35097W        W48511   7.024   5.848  11.417 -0.1098  0.1313 -0.0576
35098W        W48512  13.833   4.864  13.202 -0.0339 -0.0277  0.3281
35099W        W48513   9.560   3.523   9.206 -0.2091 -0.3685 -0.0002
35100W        W48514   1.631  17.370  12.228  0.1340  0.1354  0.1416
35101W        W48515   9.651   3.461  15.604 -0.2115  0.0175  0.1943
35102W        W48516   5.346  10.148  15.315 -0.1569 -0.1591  0.2883
35103W        W48517   1.262   9.475  11.350  0.0566 -0.1352  0.0608
35104W        W48518  15.655   3.652  14.586  0.0108 -0.2736 -0.3725
35105W        W48519  11.112   0.887   3.604  0.2334 -0.1544  0.2485
35106W        W48520   6.997   1.081   4.637  0.0406  0.0518  0.0162
35107W        W48521   2.054  11.576   0.220 -0.1895 -0.3403 -0.2402
35108W        W48522   0.036   2.423  11.577  0.0570 -0.1079  0.4081
35109W        W48523  17.094   3.737   3.161 -0.0783 -0.0060 -0.0716
35110W        W48524   1.303   5.916   5.196  0.0873 -0.3124  0.1347
35111W        W48525  14.687   9.261  12.673  0.1353 -0.0270  0.4603
35112W        W48526   5.697  14.273   0.029  0.1606  0.1573 -0.1247
35113W        W48527  15.265   4.417  11.580  0.1895 -0.5353 -0.2218
35114W        W48528   6.461   0.685  11.808 -0.2913 -0.2616 -0.0867
35115W        W48529  18.065  17.111   3.856  0.1896  0.0150 -0.2218
35116W        W48530   6.495  15.516   3.623  0.1271 -0.4096  0.1010
35117W        W48531  17.383   5.590  15.258  0.1211 -0.2705  0.2401
35118W        W48532   4.762   8.946   3.380 -0.0581 -0.5360  0.1505
35119W        W48533   6.187   7.928   4.718  0.1522  0.0345  0.1225
35120W        W48534   8.695  12.344  13.261  0.3779  0.0220 -0.1925
35121W        W48535  12.345   1.575  10.487  0.0028  0.0795  0.1924
35122W        W48536  11.844   6.864   4.336  0.1620  0.1190  0.1805
35123W        W48537   7.203  10.462  13.555  0.2044 -0.2107 -0.1994
35124W        W48538  14.943   5.658   4.979  0.1291 -0.2541  0.0701
35125W        W48539  16.742   6.568  15.359  0.0910  0.0446 -0.1723
35126W        W48540   7.168  12.249   3.338  0.2025 -0.2123 -0.1927
35127W        W48541   8.933   5.162  15.537 -0.3370  0.2642  0.1063
35128W        W48542  12.399  17.302  11.982 -0.1578  0.3802  0.0124
35129W        W48543   9.848   2.374   3.070  0.1766 -0.2000  0.0492
35130W        W48544   6.988   9.046   6.111 -0.2196  0.1713  0.3661
35131W        W48545   0.501  16.025  14.739  0.0476  0.1051 -0.1125
35132W        W48546  15.281   3.340  14.373 -0.0690  0.2744  0.1423
35133W        W48547  17.431   9.514   3.391  0.1651 -0.0037 -0.0226
35134W        W48548  10.094  14.877  15.592  0.0254  0.0015 -0.0976
35135W        W48549   4.245   3.591  11.794 -0.1779  0.1295  0.0864
35136W        W48550   7.315   2.231   5.022  0.0063 -0.1172 -0.0366
35137W        W48551  14.950   7.036  14.840  0.0027  0.0066 -0.1143
35138W        W48552   6.356   7.199   3.746  0.1692  0.0252 -0.1095
35139W        W48553  15.662   6.086  11.035 -0.0143 -0.1321  0.2681
35140W        W48554  14.310   8.295   0.207  0.3488 -0.2396 -0.1111
35141W        W48555  14.039  14.590   2.057  0.0821 -0.0625  0.1855
35142W        W48556   1.552  17.398  13.033 -0.2519 -0.2261  0.0252
35143W        W48557   3.495   9.421  12.238 -0.0179 -0.0847  0.0378
35144W        W48558   4.010  10.371  13.559 -0.0546  0.1565  0.1811
35145W        W48559  14.654  13.436   2.242  0.2342 -0.2266  0.2552
35146W        W48560  12.694  12.689  14.576 -0.0187  0.1793 -0.1500
35147W        W48561   7.041   2.992  12.057 -0.3598 -0.0438 -0.1489
35148W        W48562  14.305   7.155   4.292 -0.2044  0.1639  0.1067
35149W        W48563   9.241   9.536  15.572  0.3723  0.0419  0.2526
35150W        W48564   1.786  15.302  14.707 -0.3935  0.1788 -0.3150
35151W        W48565  12.452  13.770   5.664 -0.0269 -0.0931 -0.1260
35152W        W48566   4.185  18.054  11.853  0.4382  0.0424  0.0907
35153W        W48567   6.507   4.387   3.758 -0.1888 -0.0416 -0.3823
35154W        W48568   4.889   3.251  15.341 -0.0317 -0.2714  0.1219
35155W        W48569  15.345  13.040  12.245  0.2583 -0.1011 -0.0173
35156W        W48570  14.310  17.510   0.468  0.0587  0.2264  0.2873
35157W        W48571   1.037   7.319   2.952  0.4768  0.0484 -0.2471
35158W        W48572   0.118   9.343   6.078  0.0356 -0.3324  0.0007
35159W        W48573   5.607  16.794   9.895  0.1370  0.2250  0.0071
35160W        W48574   1.003  17.069   4.283  0.1348 -0.0522  0.1219
35161W        W48575  15.123  14.036  13.245  0.0546 -0.2123 -0.3033
35162W        W48576   8.633   4.861  13.799  0.1880  0.0407  0.0455
35163W        W48577   4.567   8.108  14.745 -0.0785 -0.1512  0.0558
35164W        W48578   1.833  10.358   2.852 -0.1965 -0.0859  0.2727
35165W        W48579   9.991   0.617  11.149  0.1464  0.0079  0.0485
35166W        W48580   2.920   2.513   3.658  0.3335 -0.2222  0.0731
35167W        W48581  11.636  17.282   5.295  0.1445  0.0837 -0.2513
35168W        W48582   8.762  17.894   9.348  0.1315  0.0481  0.0424
35169W        W48583   3.934   4.130  15.312  0.1513 -0.0594 -0.1015
35170W        W48584   1.979  10.090  15.342  0.2786 -0.2091 -0.2652
35171W        W48585   7.660   6.369  13.191 -0.0377 -0.0493 -0.0642
35172W        W48586  16.784  14.592  11.066  0.2928 -0.1893 -0.0666
35173W        W48587  13.727   3.737   6.193 -0.0647  0.1379  0.4406
35174W        W48588   5.505  16.843  15.379  0.1701  0.4139 -0.2877
35175W        W48589   6.317  11.037   2.959  0.2053  0.2577  0.2534
35176W        W48590   4.181   1.288  10.803  0.0037  0.2494 -0.1326
35177W        W48591  14.859  11.756   2.825  0.0906  0.2568  0.2336
35178W        W48592   4.075  11.323  13.266 -0.1921  0.1452 -0.0878
35179W        W48593   5.976  17.048   3.882 -0.1308  0.0198  0.1909
35180W        W48594   1.062   7.814   4.099  0.1561  0.1303  0.3144
35181W        W48595  15.304  14.753  12.644 -0.1310  0.2914  0.0235
35182W        W48596  11.426   0.332  11.226  0.1032  0.1842  0.2023
35183W        W48597  13.937  13.835   5.486  0.0866 -0.0548 -0.3642
35184W        W48598   3.825   7.228  14.379 -0.0181 -0.3657 -0.0121
35185W        W48599  13.541  12.636  14.793  0.0966 -0.2576 -0.2173
35186W        W48600   1.556  15.588   5.484 -0.3602 -0.3184 -0.1165
35187W        W48601   0.922  14.798   1.160  0.0100 -0.2549 -0.2299
35188W        W48602  12.392  16.676  11.721  0.0447  0.0537  0.2001
35189W        W48603   2.682   9.372  14.471  0.0100  0.1006  0.3927
35190W        W48604   8.530  17.685  14.246 -0.0875  0.1263  0.2761
35191W        W48605   5.089   7.203   2.870  0.0506 -0.1753 -0.0485
35192W        W48606   2.281   5.324   3.914 -0.0351  0.2309 -0.1071
35193W        W48607   3.159  15.950   0.153 -0.1572 -0.0852  0.2621
35194W        W48608   9.373  14.055  16.196 -0.0201 -0.1086 -0.4425
35195W        W48609   0.195  10.531   1.186 -0.1379 -0.1164  0.0755
35196W        W48610  16.211   7.316  15.565  0.0241  0.2228 -0.2554
35197W        W48611  15.889   6.296  16.001 -0.0373 -0.0226 -0.0213
35198W        W48612  13.512   9.432  14.088  0.1106  0.2233 -0.1811
35199W        W48613   2.233  13.272  15.557  0.1659  0.1222 -0.1250
35200W        W48614  17.166  10.521  15.695  0.4008  0.0009  0.1237
35201W        W48615   6.447  16.589  15.021 -0.0561 -0.2430 -0.1788
35202W        W48616  16.522  15.897  11.279 -0.0565 -0.0421  0.4477
35203W        W48617  17.138   6.267  11.954  0.0147 -0.1004  0.0758
35204W        W48618   1.195  16.064  12.316 -0.2759  0.0275  0.0641
35205W        W48619  13.068   7.211   1.869 -0.0627 -0.1424 -0.0958
35206W        W48620  11.598   5.199   0.538 -0.0685  0.1075 -0.3736
35207W        W48621  15.940  14.048   4.961 -0.3804  0.1270  0.1071
35208W        W48622  10.824   2.611  11.108 -0.2300  0.0864  0.1584
35209W        W48623  16.606   2.909   6.346 -0.1745  0.3523  0.1879
35210W        W48624   6.687  10.265   3.508 -0.2874 -0.1576  0.3109
35211W        W48625  17.779  11.313  13.149 -0.3504 -0.1784  0.0785
35212W        W48626   8.347  13.899   0.153 -0.0482 -0.0342 -0.0866
35213W        W48627   4.803   6.527  15.939  0.2873  0.2308  0.0228
35214W        W48628  10.813   8.838  13.326 -0.1458 -0.3740  0.2912
35215W        W48629  15.457  15.937  16.168  0.3340  0.4474 -0.0213
35216W        W48630   9.059   4.196   5.269 -0.1666 -0.0676  0.2186
35217W        W48631   8.242  13.047   4.719 -0.0060 -0.0141  0.3185
35218W        W48632   3.519  16.569  12.308 -0.2071  0.0505 -0.0740
35219W        W48633   8.211  13.842  12.803 -0.0745  0.1292 -0.0783
35220W        W48634   9.620   5.398  10.924  0.1329 -0.1151 -0.1805
35221W        W48635  16.851  12.882  13.709 -0.3086  0.1727 -0.0861
35222W        W48636  16.646  10.211  13.248  0.2387 -0.0090  0.3040
35223W        W48637  15.854   9.958   5.924  0.0749  0.0137  0.0903
35224W        W48638  16.591  17.685   4.920  0.0974  0.1341 -0.0606
35225W        W48639   2.945  13.248   5.096 -0.0678 -0.1527 -0.0527
35226W        W48640   5.077   0.426  14.589  0.1250  0.2455 -0.2039
35227W        W48641   1.566  12.751  12.539  0.2010 -0.0538  0.1041
35228W        W48642   2.059   5.080  11.492 -0.2568 -0.1069 -0.2683
35229W        W48643   7.195  15.382   3.596 -0.2887 -0.1206  0.2895
35230W        W48644   9.030   4.147  13.279 -0.3907  0.1599 -0.0499
35231W        W48645   5.557  10.461   5.142  0.1354 -0.0944  0.0333
35232W        W48646  10.110  12.126   1.811 -0.0066  0.0743 -0.0535
35233W        W48647   2.118   0.337   0.107 -0.0461 -0.0677 -0.0042
35234W        W48648   3.562  17.378  15.863 -0.1999 -0.2183  0.2383
35235W        W48649  15.747   2.146   5.562 -0.0871  0.2789  0.3022
35236W        W48650   9.315   5.371   5.468  0.0635 -0.1497 -0.3301
35237W        W48651   6.100  17.051   1.968  0.0503 -0.3283 -0.0080
35238W        W48652   1.434   0.459   3.937  0.0758 -0.1720 -0.4995
35239W        W48653   2.002  11.625  14.769 -0.0959 -0.0752  0.0472
35240W        W48654  15.208  15.498   4.738  0.4728  0.0133 -0.2448
35241W        W48655   6.327   1.221   0.229 -0.2947 -0.1052 -0.1791
35242W        W48656  10.395  11.734  14.044 -0.0201  0.0181  0.1468
35243W        W48657   0.890   8.090   1.732 -0.5927  0.0618 -0.0229
35244W        W48658   1.707   9.453  11.154 -0.1236 -0.1338 -0.1209
35245W        W48659   3.051  16.011   4.283 -0.1605 -0.3742 -0.0211
35246W        W48660   5.294   2.396   1.832 -0.0127  0.4042  0.0305
35247W        W48661  17.287   5.898   4.473 -0.1994 -0.0455 -0.5260
35248W        W48662  10.478   1.112   1.454 -0.1721  0.3850  0.3137
35249W        W48663  11.347   4.614  11.514 -0.3069  0.2173 -0.2944
35250W        W48664   3.875   6.703   1.751  0.1080  0.1395 -0.3147
35251W        W48665   0.293  15.025  12.725 -0.0580 -0.0782 -0.2824
35252W        W48666  12.061  10.129   5.491  0.1546  0.1082 -0.1419
35253W        W48667   8.658   6.467  15.464  0.0152 -0.2696  0.0409
35254W        W48668   2.637   9.323   0.774  0.3257  0.1700  0.1786
35255W        W48669   1.097  14.117  12.294  0.1998  0.2673  0.1319
35256W        W48670   6.852  18.222   5.830  0.0397 -0.3615 -0.1376
35257W        W48671   2.160  16.501  11.542 -0.0342 -0.0383 -0.3783
35258W        W48672  10.926   1.855  15.237 -0.1000  0.1125 -0.1506
35259W        W48673   8.663   1.903   4.114  0.1752 -0.0423  0.0103
35260W        W48674   5.413  18.015   0.104 -0.4397  0.3969 -0.0233
35261W        W48675  12.220   1.488  15.505 -0.1772  0.0572 -0.2123
35262W        W48676  11.016  17.302   1.092 -0.0389 -0.0537 -0.1000
35263W        W48677  13.144  14.144   2.239  0.0934  0.3077  0.1766
35264W        W48678   4.318   8.446   5.488  0.0249  0.0428 -0.1633
35265W        W48679  11.966   1.377   9.673 -0.2058  0.2032  0.0980
35266W        W48680   7.529   4.004   4.696 -0.3599  0.2558 -0.1999
35267W        W48681   4.224   0.153   6.456 -0.1859  0.2293  0.3863
35268W        W48682   3.768   5.153   4.543 -0.1311 -0.1884  0.1272
35269W        W48683   4.186   5.164  15.075  0.0995 -0.0358  0.4440
35270W        W48684  15.578  15.496   1.191 -0.1878 -0.1764 -0.0151
35271W        W48685   6.261   2.130   4.102  0.0411  0.2452 -0.1269
35272W        W48686   4.896   6.938   5.561 -0.0810 -0.0482  0.1270
35273W        W48687  15.190   0.442   1.832 -0.1089  0.0620 -0.1788
35274W        W48688  18.301   2.377   2.166 -0.3205  0.3587  0.1836
35275W        W48689  16.654   3.971  14.765 -0.0854  0.5627  0.1346
35276W        W48690  10.929   6.670   6.203  0.0127  0.1878  0.2295
35277W        W48691   3.476  10.079   5.814  0.0574  0.2498 -0.0518
35278W        W48692   5.680   3.159  11.202  0.0218 -0.2326  0.0831
35279W        W48693   5.647  13.300   1.235 -0.2351  0.0951  0.2628
35280W        W48694  16.559  12.604  11.957 -0.0565  0.0926  0.2435
35281W        W48695   4.298  14.697   2.294 -0.3947 -0.2412  0.0629
35282W        W48696  15.650  10.380  13.120  0.0357 -0.2586  0.4743
35283W        W48697  15.728   5.782   4.284  0.2481 -0.1048 -0.0390
35284W        W48698   3.496  14.389   1.422 -0.1974  0.1275  0.0822
35285W        W48699   0.463  14.897   3.069 -0.0321 -0.1454  0.0649
35286W        W48700  12.481  14.654   1.262  0.0956  0.3391 -0.0704
35287W        W48701   1.622  11.099   1.658  0.0917  0.2212  0.0693
35288W        W48702  18.365   9.053   4.645 -0.1902 -0.0513 -0.1724
35289W        W48703   4.200  12.505   2.613 -0.1541 -0.1651  0.3394
35290W        W48704  17.914  18.365   2.105 -0.4717 -0.3611  0.2097
35291W        W48705  17.689  13.094  12.336 -0.1496 -0.0420  0.3300
35292W        W48706  17.539   0.269   1.962  0.2340  0.2522 -0.1973
35293W        W48707  15.651   9.087  10.976 -0.1977  0.1253 -0.1021
35294W        W48708  17.994  12.520   2.929  0.0275 -0.0263  0.0842
35295W        W48709  10.469  10.132  11.246 -0.1739 -0.2122  0.1472
35296W        W48710   7.901   9.206   5.715 -0.5673  0.3588 -0.2120
35297W        W48711   2.251  14.317  12.135  0.1983  0.0768 -0.1959
35298W        W48712  10.332   7.378  15.540  0.0186  0.2999  0.0199
35299W        W48713  13.437  16.406   2.365  0.1101 -0.2775  0.2101
35300W        W48714  10.751  16.429   1.266  0.1317 -0.3063  0.1892
35301W        W48715   0.828  14.485  14.086  0.1716 -0.0528 -0.0955
35302W        W48716  18.214   3.933   0.077  0.1273  0.0387 -0.3778
35303W        W48717  12.690  11.112  13.717  0.0225 -0.1333  0.5747
35304W        W48718   8.920  16.846   3.828  0.0021 -0.3643  0.0448
35305W        W48719  15.707   5.187  13.178  0.0779 -0.0341 -0.0939
35306W        W48720  13.946   1.666  16.144  0.1453 -0.2356 -0.0699
35307W        W48721   7.129   2.707   2.209  0.0683  0.1726  0.0629
35308W        W48722   5.540   7.309   0.995 -0.1580  0.4600  0.1708
35309W        W48723   9.054   9.811   2.870  0.1256 -0.0171  0.0881
35310W        W48724   9.828   4.532  14.656 -0.0065 -0.2882 -0.1021
35311W        W48725   2.124   3.603  16.140 -0.1441  0.3070 -0.2821
35312W        W48726  18.209  11.863   0.090  0.0835 -0.1450  0.1093
35313W        W48727   6.223  12.600  14.001  0.0690 -0.0484 -0.0948
35314W        W48728  17.420   1.919   4.200 -0.1095 -0.2808  0.2719
35315W        W48729   0.056  16.429  13.864  0.1015  0.2148 -0.1210
35316W        W48730  14.162  14.616   3.519  0.1775 -0.0854 -0.0986
35317W        W48731  16.838  12.727   4.595  0.1172  0.1108 -0.1116
35318W        W48732   7.210   2.887  11.575 -0.1920 -0.2086 -0.0295
35319W        W48733   2.081   2.804  12.264  0.3438 -0.1876  0.3795
35320W        W48734   4.279   2.714  14.284  0.0597 -0.0606 -0.2673
35321W        W48735   5.850  17.934   5.415 -0.0959 -0.1966 -0.1509
35322W        W48736   7.226   8.598   5.380 -0.2719 -0.0904  0.0925
35323W        W48737   5.434  10.749   4.458 -0.0776  0.1765 -0.1921
35324W        W48738  12.501   1.034   0.100 -0.1841  0.2685 -0.3704
35325W        W48739   5.488   6.594   0.375  0.1933 -0.0262 -0.0773
35326W        W48740   9.593   7.199   1.060 -0.0754 -0.0894  0.0680
35327W        W48741   0.663   2.953   3.326 -0.0749  0.2188  0.0042
35328W        W48742  16.613   8.757  13.498 -0.0725 -0.2381  0.1272
35329W        W48743   5.131   1.235   3.865 -0.0308 -0.3069  0.1811
35330W        W48744  15.750   2.166  11.884 -0.3259 -0.3436 -0.0490
35331W        W48745   4.628   1.033  12.488  0.1013  0.2601 -0.2090
35332W        W48746   3.954   9.253  13.403  0.1733  0.0736  0.1366
35333W        W48747   9.342  10.840   2.734 -0.1260 -0.0737 -0.1136
35334W        W48748  16.796   2.733   2.980  0.1730  0.0275 -0.2511
35335W        W48749  16.570   2.751   5.822  0.1462  0.1108 -0.0327
35336W        W48750   4.216  18.331   4.322 -0.2113 -0.0082 -0.2272
35337W        W48751  16.763   2.622  12.966  0.1134  0.2547 -0.1892
35338W        W48752   9.798  10.310  10.263  0.3669  0.1438 -0.3725
35339W        W48753  12.412  14.023  13.064 -0.0798 -0.0254 -0.2020
35340W        W48754  18.104   9.887  13.194  0.0573 -0.1896  0.0620
35341W        W48755   4.393   3.686  12.613 -0.2173 -0.1337  0.2589
35342W        W48756   9.280   9.976  13.912 -0.1263  0.0785  0.0742
35343W        W48757  18.356  12.790   5.919  0.0594  0.0837 -0.1755
35344W        W48758   0.262  16.761  12.327  0.1098 -0.1174  0.3202
35345W        W48759   6.609   8.986   5.481  0.0771 -0.0151  0.0004
35346W        W48760  16.003   2.096   4.216 -0.0046 -0.0104  0.1897
35347W        W48761  18.108  11.802  13.738  0.1251 -0.1429 -0.1794
35348W        W48762   9.046   0.287  13.206 -0.0397  0.2699 -0.0852
35349W        W48763   1.097  11.529   0.697 -0.0526 -0.1347  0.0642
35350W        W48764   7.512  10.093   0.277  0.0330  0.1284  0.1300
35351W        W48765   2.008   7.214   5.907  0.2502 -0.2317 -0.0120
35352W        W48766  13.182   4.438   5.729  0.0377 -0.0326  0.0410
35353W        W48767   5.614  16.048  11.314  0.0471  0.1196 -0.0142
35354W        W48768   8.033   6.069  15.892 -0.0023  0.3052 -0.0485
35355W        W48769   4.980   9.925   9.893 -0.2751  0.4101  0.0374
35356W        W48770  13.753   8.551   4.289  0.2992  0.0160 -0.3136
35357W        W48771   0.673  11.611  10.700 -0.2128 -0.0633 -0.1380
35358W        W48772  15.569  17.895  16.252 -0.2330 -0.0453 -0.0894
35359W        W48773   5.969   7.931   4.235  0.1180  0.2244 -0.0867
35360W        W48774   7.860   2.164  15.957 -0.1061  0.0339  0.0872
35361W        W48775   3.398  10.060   3.846  0.0333 -0.2314  0.0574
35362W        W48776   7.666  13.597   2.525 -0.2779 -0.0637  0.1819
35363W        W48777  14.705  12.404  10.460  0.4512 -0.2514 -0.2666
35364W        W48778   5.571  16.824   3.653 -0.1864 -0.0408 -0.0933
35365W        W48779  10.544  11.729   2.443 -0.0202 -0.0863 -0.0232
35366W        W48780  14.037   2.576   2.434 -0.1506 -0.0580  0.1763
35367W        W48781  15.185  10.084  15.895  0.0119 -0.1606 -0.0080
35368W        W48782  12.814   1.995  13.781  0.0953  0.4390  0.0138
35369W        W48783  14.542  18.212  12.408  0.1316  0.2453 -0.1094
35370W        W48784  12.172   2.533   4.513  0.2061  0.1383 -0.4782
35371W        W48785   8.877   7.227  10.285  0.0656 -0.1658  0.0380
35372W        W48786   5.901   3.729   5.384 -0.2889  0.2049 -0.0914
35373W        W48787  13.135  13.429  10.319  0.1861  0.0060  0.2025
35374W        W48788   9.575  14.922  15.595 -0.4044 -0.0613  0.5501
35375W        W48789  17.920  15.325   5.419  0.0611 -0.1995  0.3245
35376W        W48790   8.926  10.244   3.055 -0.2386 -0.0108 -0.1614
35377W        W48791  17.468   2.010   6.031 -0.1198 -0.0564  0.0623
35378W        W48792  15.990   3.618   4.431  0.0482 -0.0471 -0.1959
35379W        W48793   4.491   1.145   5.514 -0.3850  0.1659 -0.0113
35380W        W48794  17.581   1.574   5.184 -0.1159 -0.0990 -0.2269
35381W        W48795  13.214   8.210  12.309 -0.0859 -0.0821 -0.0775
35382W        W48796   8.489  17.657  13.785 -0.3949  0.1802  0.2018
35383W        W48797  15.567  15.290   9.957 -0.4193 -0.0692  0.1483
35384W        W48798   6.135  11.376  13.287 -0.2553 -0.0178  0.2821
35385W        W48799  10.785  14.584   2.066  0.3638 -0.1685 -0.0180
35386W        W48800  13.915  16.838   2.116 -0.0767 -0.0091  0.2956
35387W        W48801  16.529   2.967  13.456  0.1933 -0.1389  0.2392
35388W        W48802  12.889  11.466   5.821 -0.3071 -0.2145  0.1449
35389W        W48803   8.160   8.420   5.264  0.0431 -0.1789 -0.0227
35390W        W48804   6.525  17.487   3.166  0.2273 -0.1180  0.0298
35391W        W48805   5.544   2.753  12.180 -0.0417  0.1015 -0.0552
35392W        W48806  14.348   0.911  15.505 -0.3426 -0.1871  0.1557
35393W        W48807   7.116   2.852  14.343 -0.1216 -0.1791 -0.0968
35394W        W48808  14.601   0.054  14.694  0.1876  0.0891 -0.2374
35395W        W48809  11.326  10.472  15.938  0.0722 -0.2566  0.0522
35396W        W48810   5.639  13.781   1.119 -0.0086 -0.3901 -0.1508
35397W        W48811   7.492  14.741  12.043  0.0206  0.0301 -0.1639
35398W        W48812  15.461  11.276  13.561  0.1213  0.0038  0.3529
35399W        W48813   8.724  16.061  15.280  0.1226  0.1163  0.1173
35400W        W48814   4.244  14.898  15.762  0.4948 -0.2323  0.1374
35401W        W48815  11.882  13.603  10.897  0.0619 -0.2718 -0.1234
35402W        W48816  18.207  11.016   1.980 -0.2917 -0.0509  0.1491
35403W        W48817   0.798  14.654  15.048 -0.0393 -0.1746 -0.1086
35404W        W48818   3.374  10.632   0.296  0.1015 -0.0527 -0.1957
35405W        W48819  14.852   8.430   0.184 -0.0326 -0.0065  0.0779
35406W        W48820   2.911   2.711  15.769  0.0338 -0.1197 -0.0055
35407W        W48821  16.435  13.651  11.759  0.1022 -0.2798 -0.0232
35408W        W48822  18.382   6.904   1.319  0.0565  0.1371 -0.0808
35409W        W48823   0.598  12.991  14.584  0.2462 -0.1595 -0.2106
35410W        W48824   7.099   7.699   5.818  0.1192 -0.0734  0.1902
35411W        W48825   1.036   8.698   4.054  0.1673  0.0220 -0.0538
35412W        W48826   7.749  15.338   1.590 -0.2471  0.2279  0.1676
35413W        W48827   2.570   0.933   5.459 -0.0511  0.3156 -0.0563
35414W        W48828   6.732  17.984   0.014  0.0208  0.0219  0.1386
35415W        W48829  16.300   1.904  11.260  0.3635  0.1672  0.1827
35416W        W48830  11.159   2.593  10.526  0.0063  0.2888 -0.0701
35417W        W48831  12.430  17.498  11.158 -0.0935  0.0265  0.0805
35418W        W48832  17.544  12.063   2.286  0.1739 -0.2825 -0.3126
35419W        W48833  10.119   6.238   4.742 -0.1064  0.2331  0.1738
35420W        W48834  17.178   9.462  15.798 -0.1222 -0.0367  0.4433
35421W        W48835   3.481  11.978   9.955 -0.2372 -0.2011  0.1055
35422W        W48836  12.758   2.201   0.814  0.1003  0.1525  0.2685
35423W        W48837   2.980  14.336  16.035  0.1736 -0.3396  0.0832
35424W        W48838  17.451   2.786   0.980  0.1128 -0.1370  0.3369
35425W        W48839   6.307  15.090  15.778  0.1329 -0.1177 -0.2915
35426W        W48840  10.404  16.492   0.240  0.1439 -0.0561  0.1848
35427W        W48841   2.412   8.009  13.374  0.1374 -0.2729  0.1000
35428W        W48842   1.820   6.687   4.931 -0.0076  0.2194  0.0197
35429ION     NA48843   1.204   6.532   0.778 -0.1578 -0.1174  0.3712
35430ION     NA48844   8.450  12.067   5.164 -0.2161  0.0135  0.0575
35431ION     NA48845  11.119  14.064  11.382  0.1398 -0.4940 -0.1327
35432ION     NA48846   1.364   3.416  15.130 -0.1592  0.1552  0.1541
35433ION     NA48847   3.793   3.031   0.405 -0.2254 -0.5892 -0.0872
35434ION     NA48848   0.066  13.453   9.898  0.3246 -0.1012  0.0367
35435ION     NA48849   6.131   5.909   4.608  0.2659  0.2393 -0.0054
35436ION     NA48850  11.205  12.748  14.300  0.2068 -0.1654  0.0937
35437ION     NA48851  17.453   0.067   2.426  0.1837  0.1596  0.1543
35438ION     NA48852  11.071  13.707   5.913  0.1123  0.5058 -0.0060
35439ION     NA48853  13.517  10.139  12.850 -0.1995  0.2177  0.1403
35440ION     NA48854  15.382  17.294   1.948 -0.2122  0.0693 -0.3036
35441ION     NA48855  16.937  10.060   2.455 -0.0480  0.2603 -0.1238
35442ION     NA48856  11.221  10.593   1.176 -0.1238  0.1694 -0.2685
35443ION     NA48857   9.990   3.831  15.602 -0.0426 -0.0637  0.1769
35444ION     NA48858   8.360  17.200  14.352 -0.1455  0.0258 -0.1864
35445ION     NA48859   2.043   7.831   6.521  0.1596  0.0404 -0.1857
35446ION     NA48860   9.307  11.730   1.864 -0.0299  0.0126  0.3976
35447ION     NA48861  11.609   7.666  13.403  0.1018  0.1206  0.1424
35448ION     NA48862  11.036  17.022   9.982 -0.1592 -0.2678  0.0988
35449ION     NA48863   8.879  14.159   9.756  0.0636 -0.0028  0.1973
35450ION     NA48864  17.896   8.476  11.530  0.1934  0.1090 -0.2683
35451ION     NA48865   4.199   4.126  12.457  0.1863 -0.1033  0.0533
35452ION     NA48866   5.560  13.854   9.829  0.1688  0.0327 -0.2430
35453ION     NA48867   5.764   4.980   3.392  0.2104 -0.1152  0.1739
35454ION     NA48868  13.071   8.927  16.152 -0.0495  0.2248  0.1615
35455ION     NA48869   5.248   2.646  10.028 -0.0296 -0.3036  0.0636
35456ION     NA48870  10.194  14.049   4.303  0.2296 -0.0298  0.2953
35457ION     NA48871   4.155  14.107  15.575 -0.0487  0.2687 -0.1172
35458ION     NA48872  10.042  15.969   1.877  0.1402 -0.0716 -0.0033
35459ION     NA48873  18.203  10.426   0.200  0.0706  0.1373 -0.0615
35460ION     NA48874   2.908   2.811  12.067 -0.2409 -0.0397 -0.1074
35461ION     NA48875  11.690  15.140   5.916  0.0650 -0.1502  0.1242
35462ION     NA48876   0.898   9.540   3.969  0.1002  0.3731  0.2453
35463ION     NA48877  16.879   7.864  10.810  0.0505 -0.0295 -0.1720
35464ION     NA48878   5.986   9.667   6.137  0.0124  0.0289 -0.0099
35465ION     NA48879   2.480   5.790   6.228 -0.1104  0.2180  0.0242
35466ION     NA48880   4.083   0.201   2.128 -0.0355 -0.0547  0.1381
35467ION     NA48881   4.877   7.464   5.724  0.0528  0.1428 -0.0909
35468ION     NA48882   9.874   2.534  12.562  0.2618  0.0714  0.0292
35469ION     NA48883   1.777   3.458  11.579  0.1543 -0.3385  0.1217
35470ION     NA48884  16.690  10.792   2.518  0.0917 -0.3722  0.4773
35471ION     NA48885  12.217   9.346   1.631  0.1280 -0.2395 -0.1466
35472ION     NA48886   6.897   6.802   5.682  0.0093 -0.1077 -0.0394
35473ION     NA48887  16.629  12.120  11.832 -0.1741 -0.0629 -0.0489
35474ION     NA48888  17.333  17.004   5.938 -0.1450  0.4319 -0.2541
35475ION     NA48889   8.967  14.480   0.045  0.1231 -0.0577 -0.0354
35476ION     NA48890   3.398   3.249   6.029 -0.0450 -0.1039  0.0698
35477ION     NA48891   0.704  12.188  11.899  0.2443  0.0280 -0.0329
35478ION     NA48892   3.191   5.686  15.470 -0.1236 -0.2332  0.1187
35479ION     NA48893   8.731   8.629   4.481  0.0512  0.0108 -0.0626
35480ION     NA48894  12.689  14.266  12.598  0.0606  0.1468 -0.2304
35481ION     NA48895  12.025   6.304  15.550 -0.1155  0.2493 -0.1017
35482ION     NA48896   6.761  17.788  14.653 -0.2654  0.2139 -0.0787
35483ION     NA48897  14.112   0.327   9.732 -0.1082  0.1865 -0.0515
35484ION     NA48898  16.604   4.377  15.217  0.1688  0.3542  0.2385
35485ION     NA48899   3.912   8.724  12.715  0.0338  0.0219 -0.2061
35486ION     NA48900   4.717  11.376   4.560  0.1375 -0.0417 -0.2888
35487ION     NA48901  17.315   4.612  14.803  0.1608 -0.1376  0.0890
35488ION     NA48902   9.921   1.241  10.743  0.3445  0.1641 -0.1128
35489ION     NA48903   6.035  16.969   5.064  0.0532 -0.1299  0.2252
35490ION     NA48904  15.390  14.209  15.438 -0.0050 -0.1990 -0.1363
35491ION     NA48905  12.630   3.522   1.070 -0.1241 -0.0258  0.3760
35492ION     NA48906   0.519   1.757  12.484  0.2657 -0.0256 -0.0764
35493ION     NA48907   0.590  10.223   5.606 -0.1089  0.1087  0.0809
35494ION     NA48908  16.353  11.127  15.854  0.0951 -0.2835  0.0812
35495ION     NA48909   9.941   1.609   1.039 -0.2894  0.2101  0.0070
35496ION     NA48910   9.207  16.354   9.796 -0.0762 -0.2678 -0.2507
35497ION     NA48911   6.854   4.746   0.342 -0.1646 -0.1790  0.1390
35498ION     NA48912  13.680   4.073   4.471  0.3274 -0.4327 -0.0347
35499ION     NA48913   3.494  11.120   6.261 -0.0533  0.1882 -0.3503
35500ION     NA48914   2.448   3.376  10.636  0.1832  0.1962  0.2356
35501ION     NA48915   8.368   0.650  12.157 -0.0187 -0.3184 -0.1783
35502ION     NA48916   7.363  13.063   6.103 -0.0410 -0.0534  0.3037
35503ION     NA48917   7.660  14.888  10.851 -0.2653 -0.0478  0.0617
35504ION     NA48918  14.197   1.056   6.138 -0.1567 -0.1727 -0.3073
35505ION     NA48919  14.522  16.170  11.580  0.0086 -0.2333 -0.2696
35506ION     NA48920   0.337   2.979  12.352 -0.0296 -0.0977  0.0268
35507ION     NA48921   2.942   5.611  11.200  0.0023 -0.2586  0.3741
35508ION     NA48922  10.556  17.598   9.545  0.1119  0.1519  0.0723
35509ION     NA48923   8.190  10.068  11.540  0.0918  0.1789  0.0207
35510ION     NA48924   0.872  17.021   1.490 -0.0996  0.1096 -0.1055
35511ION     NA48925   8.541   5.982   2.784 -0.3010  0.1647 -0.1726
35512ION     NA48926  11.112  17.226  16.039 -0.0612  0.1608  0.0212
35513ION     NA48927  15.488   7.009  10.466  0.1126 -0.2662  0.0542
35514ION     NA48928   7.920   6.785   3.432 -0.3732  0.0423  0.3421
35515ION     NA48929   0.594  16.792  10.328  0.2330  0.0404  0.1414
35516ION     NA48930   4.339   9.990   0.398  0.2837  0.1743  0.1381
35517ION     NA48931   2.520   3.957   3.903 -0.1400 -0.2313 -0.0794
35518ION     NA48932   9.738   1.575  15.439  0.0737  0.1142 -0.2830
35519ION     NA48933   7.507   0.334   4.042  0.0198  0.2079  0.1735
35520ION     NA48934   4.506   3.995   1.044 -0.0211  0.1701 -0.0705
35521ION     NA48935  15.806   6.912  13.574 -0.2822  0.1854 -0.1724
35522ION     NA48936  17.956  15.520   4.988 -0.1123 -0.2781 -0.0810
35523ION     NA48937  14.629   4.096  10.444  0.0236 -0.0978 -0.1968
35524ION     NA48938   3.388   4.339  10.124 -0.1018  0.2815 -0.0753
35525ION     NA48939  10.107  16.928  13.630  0.0197  0.0091  0.0541
35526ION     NA48940   6.691  17.475  13.335 -0.0297  0.1990  0.0218
35527ION     NA48941   7.949  12.602   0.521  0.0584  0.1269 -0.1526
35528ION     NA48942  15.825  16.459  11.359 -0.0977  0.0868 -0.1055
35529ION     NA48943   6.543   3.200   4.302  0.1222 -0.0152 -0.0939
35530ION     NA48944   7.262  15.385   1.505 -0.0195  0.0640 -0.0733
35531ION     NA48945   8.390   0.919  11.421  0.1871  0.0178  0.2866
35532ION     NA48946   0.708   4.519   6.360  0.0180  0.0441  0.0319
35533ION     NA48947  15.883   9.586  10.483 -0.0502 -0.0949  0.1545
35534ION     NA48948   2.551  16.177  13.131  0.1034 -0.0587  0.0664
35535ION     NA48949   4.463  11.302   6.095  0.1447 -0.0520 -0.3394
35536ION     NA48950  15.816   7.260   0.611 -0.0230  0.0335 -0.2365
35537ION     NA48951  11.974   9.736   6.300  0.0127 -0.0897  0.0611
35538ION     NA48952   2.641   2.828  16.243  0.1057  0.3032  0.1411
35539ION     NA48953   8.332  11.846   9.873  0.1714  0.0997  0.0523
35540ION     NA48954  14.705  10.774  11.594 -0.2285 -0.1358  0.2659
35541ION     NA48955  10.026   6.017  10.151  0.0441  0.1589  0.1256
35542ION     NA48956   9.726  11.655   5.691 -0.2047  0.2414  0.1039
35543ION     NA48957   1.746   4.324   6.291  0.2398  0.4769 -0.0773
35544ION     NA48958   6.698   3.482  10.959  0.1345  0.3084  0.0372
35545ION     NA48959   7.773   4.187   5.804 -0.0474  0.0666 -0.1162
35546ION     NA48960   7.008  18.354  15.592  0.3082  0.1587 -0.0336
35547ION     NA48961  13.252  16.820   0.133 -0.0634  0.0174 -0.4415
35548ION     NA48962  10.334  16.480  10.198 -0.4560  0.1223  0.0832
35549ION     NA48963   2.812  17.615   1.670  0.3816 -0.2556 -0.3913
35550ION     NA48964   3.349   2.065   0.771 -0.1444 -0.1858 -0.0834
35551ION     NA48965   0.157  11.781   9.930  0.0686  0.0721 -0.1337
35552ION     NA48966  12.143   2.767   9.887  0.0831  0.3076  0.0281
35553ION     NA48967  12.736  15.523   9.656  0.1364  0.1595 -0.0261
35554ION     NA48968   9.671   4.664   6.025  0.0657 -0.4133  0.1312
35555ION     NA48969   7.870   2.849  12.134  0.0033 -0.1453 -0.1868
35556ION     NA48970  11.405   7.138  14.646 -0.1465  0.1808  0.0456
35557ION     NA48971  15.376  17.070   9.925  0.1331 -0.1820 -0.0524
35558ION     NA48972  13.557   9.018   2.592 -0.4157  0.0290 -0.3043
35559ION     NA48973  10.947   8.875  12.329  0.1844 -0.0821 -0.0252
35560ION     NA48974   2.387   7.817   3.234 -0.1507 -0.3246 -0.1318
35561ION     NA48975   3.294   6.636  13.833 -0.1423  0.0198 -0.1030
35562ION     NA48976  13.866  16.594   9.953  0.2161 -0.0655  0.6298
35563ION     NA48977  10.923  15.125   1.139 -0.1054 -0.2405  0.0184
35564ION     NA48978  11.881  17.048  15.000 -0.1584 -0.0944 -0.0562
35565ION     NA48979   2.705   8.436  14.503 -0.0408 -0.0087 -0.1238
35566ION     NA48980   0.568   7.046   0.523  0.0847  0.3045  0.0021
35567ION     NA48981  11.024   7.806   5.481  0.2253  0.4820 -0.0386
35568ION     NA48982  15.936   3.402   5.753 -0.0574 -0.1761  0.1479
35569ION     NA48983   3.447   9.098   4.145 -0.0320 -0.1576  0.0231
35570ION     NA48984   1.545   3.247  10.425 -0.2678 -0.1287 -0.2291
35571ION     NA48985  17.546   4.705   3.260 -0.0741 -0.0138  0.1280
35572ION     NA48986   1.694   8.076  15.447  0.1363  0.2437 -0.2980
35573ION     NA48987  18.059   2.695   6.668 -0.0430  0.2756 -0.1608
35574ION     NA48988   1.198  13.970   9.938  0.1750 -0.3140 -0.1484
35575ION     NA48989   6.164   8.326  13.369  0.0803  0.1453 -0.2066
35576ION     NA48990  16.319   5.546  10.556 -0.0745 -0.1906 -0.4213
35577ION     NA48991   7.419  15.086  12.424 -0.0701 -0.2453 -0.2073
35578ION     NA48992  15.977  13.521  15.980  0.2844  0.0758 -0.4662
35579ION     NA48993   8.726   8.717  14.632  0.0907 -0.4147 -0.1053
35580ION     NA48994   2.685   5.013  10.388  0.0714  0.3360  0.3564
35581ION     NA48995  16.351   9.121  11.871 -0.2126  0.3516 -0.1098
35582ION     NA48996  11.997   1.395   0.532  0.1415 -0.1995 -0.0466
35583ION     NA48997   4.184  14.332   9.991 -0.2312 -0.4007 -0.0762
35584ION     NA48998   2.377  17.394   4.699 -0.0414 -0.0435 -0.1854
35585ION     NA48999   6.402  17.476  16.024  0.0721  0.1161 -0.2522
35586ION     NA49000  15.148   8.436  10.678  0.3421  0.0449 -0.3426
35587ION     NA49001  18.313   3.289   1.864 -0.2112  0.1923 -0.0765
35588ION     NA49002   2.285   3.360  12.808  0.1224  0.2150  0.1485
35589ION     NA49003  15.583   1.390  16.152 -0.1276  0.3589 -0.2072
35590ION     NA49004  16.041   0.714  12.894 -0.1242  0.0188  0.1698
35591ION     NA49005  17.270  14.825  14.543  0.2828  0.3833 -0.1464
35592ION     NA49006   8.620   9.037  10.251  0.0284 -0.4241 -0.0922
35593ION     NA49007  12.158   3.365   5.161  0.1396 -0.0267  0.1036
35594ION     NA49008   3.053   1.975  16.126  0.0631  0.0947  0.1375
35595ION     NA49009   5.468  13.734   6.069 -0.1572 -0.1033 -0.0184
35596ION     NA49010  16.852   6.473   1.338 -0.0360 -0.3068 -0.1274
35597ION     NA49011  15.772   1.518   6.299  0.2812  0.1311 -0.0158
35598ION     NA49012   5.838   7.582   9.954  0.1414  0.1584  0.0635
35599ION     NA49013  17.002   0.612  15.882 -0.2250 -0.0551  0.0920
35600ION     NA49014   4.815   0.679  14.881  0.2746 -0.0224 -0.2183
35601ION     NA49015  17.283   2.332   6.455  0.2990 -0.2989  0.1415
35602ION     NA49016   0.345   8.364  15.400  0.1993  0.0080  0.0570
35603ION     NA49017   5.307  13.848   2.378  0.2875  0.3443  0.4314
35604ION     NA49018  10.858   6.698   0.658  0.1034  0.2868  0.4819
35605ION     NA49019  10.473   4.175  12.010 -0.0561 -0.2398 -0.2270
35606ION     NA49020   9.163  11.269   4.374 -0.0863  0.2794  0.1841
35607ION     NA49021  11.154   1.229   9.954 -0.0340 -0.0990 -0.0503
35608ION     NA49022  14.940  12.501   5.508 -0.1191 -0.0925  0.2568
35609ION     NA49023  14.084   9.657   0.328 -0.1464 -0.2548 -0.0985
35610ION     NA49024  17.967  10.649   2.699 -0.4825  0.0543 -0.0009
35611ION     NA49025  17.795  16.116  10.551  0.0628  0.0370 -0.0628
35612ION     NA49026  17.042  13.747   9.919 -0.1740 -0.1085 -0.0773
35613ION     NA49027  11.994  13.061  11.097  0.1858 -0.0022 -0.1687
35614ION     NA49028  14.848   5.785   7.028 -0.1600 -0.1310 -0.0917
35615ION     NA49029   6.638  17.156   2.763 -0.1805 -0.2305 -0.2096
35616ION     NA49030  13.049   5.284  10.550 -0.2065  0.1396 -0.0371
35617ION     NA49031   9.792  13.171   3.409 -0.1987  0.1056  0.1643
35618ION     NA49032   6.012  15.891  14.597 -0.0387  0.2266  0.1544
35619ION     NA49033   5.378   9.728  10.391 -0.2666 -0.2122 -0.0816
35620ION     NA49034   4.631   7.301   1.910  0.2575 -0.2507  0.0008
35621ION     NA49035   3.169  10.561  11.563 -0.1049 -0.2131 -0.1670
35622ION     NA49036  15.603  18.290   0.474 -0.2604 -0.2238  0.2274
35623ION     NA49037   9.788  17.210   5.556  0.1672  0.0263  0.1054
35624ION     NA49038  14.383   7.541   6.804  0.0102  0.0053  0.2270
35625ION     NA49039   3.144   0.869   5.863 -0.0591  0.1653  0.3076
35626ION     NA49040   1.083   8.560  14.779 -0.0880 -0.3184 -0.1894
35627ION     NA49041  12.245  12.386   5.517 -0.0369 -0.0999  0.2344
35628ION     NA49042  11.320   6.950  15.604  0.1659  0.0513  0.1822
35629ION     NA49043   1.974   3.324   4.449  0.0245 -0.0976 -0.0574
35630ION     NA49044   1.662   2.404   0.011  0.0647 -0.2752 -0.0023
35631ION     NA49045  16.805   0.770  10.722  0.2756 -0.0433  0.1114
35632ION     NA49046  14.268   4.987   1.882  0.4804 -0.2626 -0.1654
35633ION     NA49047   2.759  11.781   6.049  0.2255 -0.2534 -0.0146
35634ION     NA49048   2.314   8.572  10.340  0.1059 -0.0284  0.0505
35635ION     NA49049   6.274  11.471   5.775  0.0083 -0.1126  0.2136
35636ION     NA49050   0.256   9.417   0.075 -0.1589 -0.1912 -0.0290
35637ION     NA49051  15.602   6.477   2.019  0.0205  0.2908 -0.0424
35638ION     NA49052  17.235  11.566  12.193  0.0724  0.1353 -0.0898
35639ION     NA49053  14.438   6.765  12.762  0.0310 -0.0452 -0.1631
35640ION     NA49054  17.089   4.943  10.466  0.0101 -0.0300  0.1509
35641ION     NA49055  15.285   3.338   0.077 -0.2918 -0.0838 -0.1100
35642ION     NA49056  17.535   5.997  10.494  0.0968 -0.1753 -0.4932
35643ION     NA49057   0.687   7.226  10.410 -0.1860  0.0465  0.4312
35644ION     NA49058   1.556  15.541   4.949 -0.2512 -0.0537 -0.2609
35645ION     NA49059  13.842  10.408  16.023 -0.0867 -0.3105 -0.0929
35646ION     NA49060   5.270  12.322   5.662  0.0176  0.0010 -0.1426
35647ION     NA49061   5.083   4.218   0.183  0.0498  0.0878 -0.1209
35648ION     NA49062   9.375   6.937   0.484 -0.0465  0.1688  0.0752
35649ION     NA49063  14.355   9.335  14.618 -0.0298  0.2356  0.2464
35650ION     NA49064  11.812   5.157   1.048  0.0177 -0.2724  0.1879
35651ION     NA49065  15.009   3.414  15.402 -0.1304  0.2468  0.1496
35652ION     NA49066   5.504   6.678   9.997 -0.0768 -0.1218  0.1766
35653ION     NA49067   1.256   7.573   5.251 -0.1005  0.0906 -0.1140
35654ION     NA49068   2.080  17.133  10.449  0.0303 -0.2812 -0.0018
35655ION     NA49069  15.228  13.015   6.111  0.2037 -0.1937  0.1925
35656ION     NA49070  10.602   4.591   2.300 -0.1458  0.0303  0.0873
35657ION     NA49071   0.608   6.392  10.445  0.0794  0.1161 -0.0910
35658ION     NA49072   5.612  10.758   1.393 -0.0696  0.2545 -0.1028
35659ION     NA49073  18.086  14.644   3.355 -0.2774  0.1576 -0.0428
35660ION     NA49074  17.821   9.968   6.063 -0.3529 -0.0947  0.2645
35661ION     NA49075   0.620  14.741   4.390 -0.0564  0.1419 -0.1527
35662ION     NA49076  13.358  13.271  15.776  0.2573 -0.1729 -0.1618
35663ION     NA49077  18.053   3.934  12.766 -0.1582  0.2849  0.1858
35664ION     NA49078   5.241  14.393   5.912 -0.0856 -0.0967 -0.0719
35665ION     NA49079  11.768   2.511   5.523  0.1885  0.0589  0.0612
35666ION     NA49080   4.958   9.262  15.239  0.1771 -0.1411 -0.0084
35667ION     NA49081   3.951  10.753   6.157  0.2688 -0.0617 -0.0485
35668ION     NA49082   2.633  13.655  11.538 -0.0877 -0.2821 -0.0252
35669ION     NA49083  17.304  13.870   2.619 -0.3096 -0.2479 -0.1346
35670ION     NA49084  16.490  14.759   4.699 -0.2418  0.0138  0.2471
35671ION     NA49085   4.856   9.336   4.146  0.0543  0.2390  0.3568
35672ION     NA49086   8.500  17.662   9.705  0.1253  0.4140  0.2308
35673ION     NA49087   0.723  13.738   3.288 -0.3332 -0.1105  0.3577
35674ION     NA49088  18.048  15.830  10.156 -0.0778 -0.0526 -0.0275
35675ION     NA49089   0.652   8.877   2.722  0.0774  0.3086 -0.1260
35676ION     NA49090   0.591  18.207  10.625 -0.1013  0.0252  0.2837
35677ION     NA49091   4.289   5.466   5.331  0.1271 -0.5207 -0.1659
35678ION     NA49092  12.650   0.012  10.973 -0.0198  0.0008 -0.3183
35679ION     NA49093  12.932  14.978   0.055  0.1841 -0.0611 -0.0641
35680ION     NA49094   3.005  14.051   3.739 -0.0369 -0.3974 -0.3905
35681ION     NA49095   5.137   0.259  10.645 -0.1998  0.0911  0.0565
35682ION     NA49096   3.473  17.975   3.248  0.1677  0.2901 -0.0591
35683ION     NA49097   1.296   6.221   6.414 -0.1185  0.2507  0.2004
35684ION     NA49098   4.269   5.830   1.602 -0.0751 -0.2373 -0.1207
35685ION     NA49099   9.105  13.920   3.249  0.1026 -0.1496  0.0868
35686ION     NA49100  17.120  14.522  13.506  0.2783 -0.0009 -0.0050
35687ION     NA49101  17.937   5.452   6.387  0.2412 -0.0507 -0.1378
35688ION     NA49102   7.813   9.606   5.955 -0.0189  0.0373  0.0134
35689ION     NA49103  13.066   2.469   9.805 -0.1155 -0.1831  0.1596
35690ION     NA49104  13.145  14.175   6.101 -0.1349 -0.0733  0.0586
35691ION     NA49105  13.834  15.477  11.727 -0.2958  0.1416  0.0311
35692ION     NA49106  13.214  12.883   6.218  0.1102  0.0231 -0.3570
35693ION     NA49107   1.301  13.041   5.445 -0.0490 -0.2515 -0.0393
35694ION     NA49108   7.800  14.757   5.555 -0.3632  0.0392 -0.2443
35695ION     NA49109  16.876   6.779   6.714  0.2774 -0.4002  0.3104
35696ION     NA49110  11.876   3.196  15.203  0.1262 -0.0920 -0.3335
35697ION     NA49111   8.564   4.067  11.592  0.0144 -0.0932  0.0878
35698ION     NA49112   6.369  10.683  13.908 -0.0961  0.0703 -0.0159
35699ION     NA49113  11.870  16.495   3.827 -0.0941  0.5545  0.1269
35700ION     NA49114   9.975   0.465   9.797 -0.0113 -0.1618  0.1548
35701ION     NA49115   3.459   2.154  14.186 -0.1050  0.2463 -0.0926
35702ION     NA49116  15.311   9.213   0.384 -0.3392  0.0305 -0.1452
35703ION     NA49117   4.772   0.267   1.503  0.1495 -0.1084  0.1840
35704ION     NA49118   9.685   9.355   3.353  0.0818  0.2071  0.0057
35705ION     NA49119  11.369  11.314  12.774  0.0637 -0.1360 -0.1226
35706ION     NA49120  17.031   7.043   4.863 -0.0632 -0.1197  0.0435
35707ION     NA49121   0.693  18.041   1.439 -0.0671  0.2523 -0.0178
35708ION     NA49122   7.981   6.615  15.931 -0.3784  0.2223 -0.0019
35709ION     NA49123  13.449   6.441   2.736 -0.2466 -0.0332  0.1437
35710ION     NA49124   2.142   2.449   6.321  0.0836 -0.0419 -0.0014
35711ION     NA49125  12.320   7.739   5.372  0.1426  0.2219  0.0498
35712ION     NA49126   8.145   0.457  10.310  0.0034  0.1369 -0.3792
35713ION     NA49127   4.992  10.416  10.047  0.0154  0.0125 -0.1971
35714ION     NA49128   3.365   1.014   6.303  0.0384  0.1951  0.1207
35715ION     NA49129   5.533  17.761   5.819 -0.2300 -0.2417 -0.1524
35716ION     NA49130  12.419  11.643  10.395  0.1372  0.0191 -0.0141
35717ION     NA49131  12.052  14.038   2.264 -0.2555 -0.0233 -0.0953
35718ION     NA49132   6.652   0.845   6.323  0.1023  0.1318  0.0887
35719ION     NA49133   4.213   3.421  14.619  0.0529 -0.0010 -0.3798
35720ION     NA49134   9.874   3.432   9.639 -0.1324 -0.0690  0.0515
35721ION     NA49135  13.116  12.083  13.983  0.0376  0.2858 -0.0765
35722ION     NA49136  13.946  16.669  11.519  0.3308 -0.0255 -0.1912
35723ION     NA49137   8.073   8.127  10.532  0.0990  0.1205 -0.0201
35724ION     NA49138  13.642  12.785   4.878  0.0140  0.2044 -0.0195
35725ION     NA49139   8.992  12.997   5.895  0.1314 -0.0835 -0.2298
35726ION     NA49140   3.627  11.816   1.102  0.0656 -0.0650  0.0851
35727ION     NA49141   2.097   5.737  12.755  0.0869 -0.1574 -0.1094
35728ION     NA49142  13.959  11.887  15.109  0.2543 -0.0714  0.1225
35729ION     NA49143  10.802  11.575  13.670 -0.0238 -0.0145 -0.0510
35730ION     NA49144  11.743  10.002  10.735  0.1556  0.0486  0.0495
35731ION     NA49145  11.020   9.614   0.928  0.3374  0.1910  0.2355
35732ION     NA49146   8.767   1.470   1.200 -0.1394  0.2995  0.2004
35733ION     NA49147   2.236   9.947   2.528 -0.0844  0.0479  0.1430
35734ION     NA49148  17.025  17.922  13.292 -0.0361  0.0057 -0.0737
35735ION     NA49149  10.560   6.045   2.867  0.1111  0.0567  0.1306
35736ION     NA49150  11.208  11.458   6.083 -0.1975 -0.0472 -0.1003
35737ION     NA49151   6.425   2.003   6.028 -0.0290 -0.3858  0.0949
35738ION     NA49152   4.080  14.277  11.560  0.0441  0.0252 -0.1397
35739ION     NA49153  10.377  13.884   5.281  0.1090 -0.0047 -0.3305
35740ION     NA49154   1.811  11.662  15.589 -0.0858  0.0441 -0.2276
35741ION     NA49155   5.275   2.911  14.050 -0.1977 -0.0094 -0.0170
35742ION     NA49156  13.394  17.990   1.814 -0.0209  0.0923 -0.0318
35743ION     NA49157   3.229  17.666  10.339 -0.0371  0.3954  0.3445
35744ION     NA49158  13.468  10.783   1.831 -0.2010  0.1798  0.1996
35745ION     NA49159  11.360  11.776   0.891 -0.1599 -0.6912 -0.1840
35746ION     NA49160   2.116   8.752  13.989 -0.0007  0.1678  0.0121
35747ION     NA49161   6.906  11.586  10.436  0.2925  0.1681  0.1637
35748ION     NA49162   6.525   4.965  12.299  0.1078 -0.0092 -0.1552
35749ION     NA49163   5.007  13.498  13.491  0.1261  0.2554  0.0673
35750ION     NA49164  11.454  15.716   4.700 -0.0492  0.0916 -0.2154
35751ION     NA49165  16.067   9.695   4.563  0.0149  0.1820  0.0259
35752ION     NA49166  13.478   9.459   6.122  0.1549  0.1506 -0.0409
35753ION     NA49167   9.416  14.837   9.984 -0.4434 -0.1746 -0.2062
35754ION     NA49168   6.652   8.682   2.787  0.0004  0.0702 -0.2673
35755ION     NA49169   9.219  11.013  14.478 -0.1007  0.1341 -0.1003
35756ION     NA49170   8.039   4.486   9.877 -0.1290  0.0943  0.1463
35757ION     NA49171   7.234  14.110   5.929  0.2747 -0.0914  0.0989
35758ION     NA49172  13.241   8.496  13.189 -0.1967 -0.0432 -0.1883
35759ION     NA49173   0.107   7.961   6.489  0.0744 -0.2787 -0.0261
35760ION     NA49174  10.824   3.819   3.491 -0.1732  0.0548  0.4023
35761ION     NA49175   5.975  11.885   1.108  0.1171 -0.2053 -0.1890
35762ION     NA49176  12.045  18.051  14.657 -0.0119 -0.1202 -0.0037
35763ION     NA49177  11.442  12.857   6.271 -0.1129 -0.0782 -0.2032
35764ION     NA49178   2.228   6.759  10.220  0.3095 -0.1946 -0.0853
35765ION     NA49179   7.739   0.708   0.916  0.2508  0.0646 -0.1348
35766ION     NA49180  11.660   5.303  15.441 -0.0374 -0.1081  0.0703
35767ION     NA49181  14.835  12.240   6.376 -0.1012  0.1854 -0.2108
35768ION     NA49182   4.452  13.192   5.013  0.2692  0.0891  0.2375
35769ION     NA49183   3.277  10.292  16.206 -0.0444 -0.2440 -0.1070
35770ION     NA49184  10.757  16.860   3.591  0.5806 -0.2765  0.1046
35771ION     NA49185  10.435   7.969   0.536  0.0855  0.1338  0.2249
35772ION     NA49186  16.164   1.390  15.024  0.1787  0.2491  0.1224
35773ION     NA49187   3.306  13.452  14.884  0.1233  0.0708  0.4129
35774ION     NA49188  13.192  10.358   3.373  0.0687 -0.3585 -0.1293
35775ION     NA49189   7.177   2.616  14.755  0.1581 -0.0179  0.0976
35776ION     NA49190  10.204  16.900  11.363  0.0931 -0.2158 -0.0154
35777ION     NA49191   7.414  15.604   5.712 -0.3388  0.0635 -0.1509
35778ION     NA49192   1.294   9.331   6.424  0.1440  0.0860  0.0151
35779ION     NA49193  18.293  15.065  14.064  0.2616  0.1235  0.2154
35780ION     NA49194  13.038  12.724   1.283 -0.2337  0.1887 -0.0527
35781ION     NA49195   9.648   2.545  14.368 -0.0918  0.0708 -0.0681
35782ION     NA49196  11.156   5.222   5.142  0.1315  0.1841 -0.2694
35783ION     NA49197   1.218  15.676   6.167 -0.2086  0.1770  0.1580
35784ION     NA49198   7.689   2.367   0.163  0.0277  0.4955  0.0000
35785ION     NA49199  17.421   1.198   0.166  0.3463  0.2122 -0.2159
35786ION     NA49200  17.541  16.687   1.573  0.2061  0.3788  0.2982
35787ION     NA49201   5.531   4.838  10.455  0.0857  0.1219  0.4045
35788ION     NA49202  17.777  15.618  15.380  0.2416 -0.0595  0.0735
35789ION     NA49203   9.946   3.986  10.016 -0.1957  0.0212  0.0284
35790ION     NA49204   8.597   0.409   5.075 -0.0212  0.0030 -0.0189
35791ION     NA49205  10.882   4.772   3.810 -0.2267  0.1389  0.0936
35792ION     NA49206  16.274  13.877   5.956  0.1558 -0.0376  0.0495
35793ION     NA49207   9.462   0.777  15.499  0.1272 -0.1733  0.1112
35794ION     NA49208   8.964   1.172  10.727 -0.3313 -0.0705 -0.1559
35795ION     NA49209  11.300  17.961   9.580  0.0104 -0.1207 -0.0254
35796ION     NA49210  10.711  10.470   1.886  0.0624  0.1820  0.3506
35797ION     NA49211  12.618  10.704  11.789 -0.2916 -0.2555  0.2119
35798ION     NA49212   8.014  17.972  13.183  0.2822  0.3004  0.2934
35799ION     NA49213  14.651   1.136   5.395  0.3325 -0.1698 -0.1723
35800ION     NA49214  14.142  12.942   6.229  0.1954  0.0418  0.0900
35801ION     NA49215   1.412   4.772  15.039 -0.1364  0.1361  0.0240
35802ION     NA49216  14.385  16.960   3.614  0.2979 -0.0951  0.0140
35803ION     NA49217  14.824  16.380  13.926  0.1102  0.0801 -0.2128
35804ION     NA49218   4.996  15.235   6.024 -0.1159  0.0232 -0.1541
35805ION     NA49219  17.933  12.480  10.101 -0.4489  0.0977 -0.0161
35806ION     NA49220  14.593  15.825   9.757 -0.3234  0.0950 -0.2282
35807ION     NA49221   9.979  12.583   9.917 -0.0093 -0.4956  0.1904
35808ION     NA49222   2.192   6.097  16.178  0.2354 -0.0285 -0.0408
35809ION     NA49223   7.067   6.505   4.694  0.0996 -0.3010  0.1527
35810ION     NA49224   9.905  15.927   5.579  0.1034 -0.1642 -0.3286
35811ION     NA49225  14.491  18.302  10.131  0.1111  0.1002  0.0307
35812ION     NA49226  10.170   6.096   0.911 -0.1422  0.2909  0.0150
35813ION     NA49227   7.491  13.124   9.956  0.1945 -0.0329  0.1032
35814ION     NA49228   4.419  11.899  10.037 -0.0975 -0.1011 -0.0490
35815ION     NA49229   7.751   0.348  16.039  0.0215 -0.2327  0.0694
35816ION     NA49230  17.120  10.951   4.365 -0.1586  0.1411  0.1132
35817ION     NA49231   6.169  17.223   3.466 -0.0886 -0.0526 -0.0244
35818ION     NA49232  14.027  15.728   5.301 -0.1563  0.0454  0.0762
35819ION     NA49233   0.208  14.484   5.963 -0.0716 -0.1761  0.0880
35820ION     NA49234  12.590   7.558  11.014  0.2137  0.2592 -0.3217
35821ION     NA49235  17.605  13.483   4.604 -0.2285  0.0337 -0.3525
35822ION     NA49236  11.026   8.118  14.582  0.0799  0.0369  0.1773
35823ION     NA49237  16.052  16.252   3.335 -0.1886  0.0569  0.2598
35824ION     NA49238  16.706   3.512  15.002  0.1758 -0.4307  0.0676
35825ION     NA49239   3.651  10.380  14.836  0.0781  0.2241 -0.0411
35826ION     NA49240  16.195   2.117   1.479 -0.0091 -0.1554  0.0232
35827ION     NA49241   6.751  14.203  11.540  0.1028 -0.1085  0.0442
35828ION     NA49242  16.958  14.965   3.102 -0.1183  0.4577  0.0107
35829ION     NA49243   3.162   8.563  10.657  0.1303 -0.0138 -0.2492
35830ION     NA49244  12.881  12.254  10.412 -0.0177 -0.0699  0.2230
35831ION     NA49245   1.341  16.157   1.993 -0.1970  0.2022 -0.1199
35832ION     NA49246  16.670   3.531  16.176 -0.4743  0.0195 -0.0626
35833ION     NA49247  11.401  12.197  12.727 -0.3357  0.0245 -0.1636
35834ION     NA49248   9.238  15.701  15.372  0.1431 -0.4191  0.1777
35835ION     NA49249   2.886   2.783  14.197 -0.0863  0.2147 -0.3856
35836ION     NA49250   9.870   8.742  10.456  0.0415 -0.1309 -0.0723
35837ION     NA49251   8.151  10.904   9.981  0.1509  0.1905  0.0615
35838ION     NA49252   8.875   5.025   1.482  0.1199 -0.1922  0.1728
35839ION     NA49253  16.673   7.962  14.883 -0.0879  0.2124 -0.1369
35840ION     NA49254  17.057   2.534   5.684  0.3407 -0.0565  0.0537
35841ION     NA49255   1.976   6.379   4.552 -0.5390 -0.0889  0.2200
35842ION     NA49256   4.469   1.976   1.910  0.0653 -0.0975 -0.2400
35843ION     NA49257   4.034   1.341   5.432  0.0241  0.0170  0.1690
35844ION     NA49258  10.095  15.666   2.310  0.0992 -0.3194  0.1852
35845ION     NA49259  14.082   8.427  10.690 -0.0649  0.2410  0.1935
35846ION     NA49260   6.046   5.465   6.026 -0.1917  0.2164  0.2196
35847ION     NA49261   9.377  12.621   3.476  0.2278 -0.0458  0.1029
35848ION     NA49262  17.986  11.339   0.249  0.3109 -0.3043  0.1047
35849ION     NA49263   3.973  12.232  12.764 -0.1988 -0.0344 -0.2906
35850ION     NA49264  14.941   2.320  15.693 -0.0152 -0.0277  0.1856
35851ION     NA49265  17.703   0.585  10.365  0.4249  0.2276 -0.1629
35852ION     NA49266   2.659   8.321   6.611  0.0056  0.2349  0.1922
35853ION     NA49267  12.338   3.312  14.126 -0.0412  0.0815  0.1098
35854ION     NA49268   7.427  14.668   9.958  0.0290  0.1716 -0.3570
35855ION     NA49269   7.038   8.887  15.139 -0.2634  0.1564  0.3303
35856ION     NA49270  12.971   4.139  16.253 -0.1566 -0.0598 -0.1717
35857ION     NA49271  14.734   7.573   1.277  0.1366 -0.2094 -0.2799
35858ION     NA49272  14.511   2.955  10.438  0.0489  0.1207  0.1623
35859ION     NA49273   8.971   0.363   1.435  0.0140 -0.2102  0.2285
35860ION     NA49274  17.200   8.512   6.361  0.1695  0.0668  0.1394
35861ION     NA49275  15.602   2.856  11.854 -0.1226  0.1151  0.3195
35862ION     NA49276   1.313   2.710   6.735 -0.2172 -0.0131 -0.4325
35863ION     NA49277  10.347   1.896  13.643  0.1067  0.3027  0.0922
35864ION     NA49278   0.137   8.451   0.060 -0.0163  0.0652  0.0210
35865ION     NA49279  10.806  14.538   5.905 -0.1319 -0.1688  0.2323
35866ION     NA49280  11.097   6.055   5.540  0.2170 -0.1482  0.5667
35867ION     NA49281   9.745   8.674   0.372  0.1135 -0.0053  0.0285
35868ION     NA49282   8.312   3.101  14.042  0.1229 -0.0832  0.2520
35869ION     NA49283   5.261   8.958   6.203 -0.1312  0.0040 -0.2726
35870ION     NA49284   0.780   6.324   3.488  0.0706  0.0255  0.3130
35871ION     NA49285   8.148  13.310  15.171  0.0500  0.1582  0.3176
35872ION     NA49286   7.326   8.248  10.658 -0.2221  0.3150 -0.0390
35873ION     NA49287   0.803  17.443   4.580  0.1688 -0.1527  0.0041
35874ION     NA49288   3.131  16.141   1.561  0.2362 -0.1701  0.1987
35875ION     NA49289   8.199  15.326   9.751 -0.1974  0.5221 -0.0715
35876ION     NA49290  16.022   8.053  13.155 -0.1024 -0.0898 -0.0829
35877ION     NA49291   3.027   4.960   6.177 -0.2551  0.2514  0.0236
35878ION     NA49292   7.152  16.094   4.049  0.1997 -0.1354 -0.0561
35879ION     NA49293  13.602   8.093   0.257 -0.1795 -0.0117  0.0602
35880ION     NA49294  13.769   9.072   6.516  0.1620  0.0499  0.4234
35881ION     NA49295   3.405   8.054   6.147  0.0780 -0.3553 -0.1235
35882ION     NA49296  11.271   7.752   3.173 -0.2613  0.1541  0.3167
35883ION     NA49297  14.391  12.866   2.907  0.0778 -0.2473  0.0280
35884ION     NA49298   0.039   4.629   6.652  0.3162  0.0363 -0.1089
35885ION     NA49299   7.341   0.388   6.203  0.0145  0.0070 -0.1150
35886ION     NA49300   9.284   4.647   5.274 -0.1697  0.1467  0.1055
35887ION     NA49301  13.334   7.579   1.451 -0.0280  0.1579  0.0076
35888ION     NA49302   8.327   9.219  16.062  0.1656  0.2000 -0.0541
35889ION     NA49303   2.128  11.381  10.267  0.0727  0.0769  0.3930
35890ION     NA49304   5.462   3.373  14.233 -0.1266  0.0797  0.0074
35891ION     NA49305  10.543  12.022  10.059 -0.4810  0.3945  0.1124
35892ION     NA49306   9.365   7.741   5.925  0.2934  0.1756 -0.0305
35893ION     NA49307   6.110   0.880   3.511  0.1083  0.0271  0.0337
35894ION     NA49308   3.009  10.597  10.233 -0.1529  0.0034 -0.2360
35895ION     NA49309   5.250  12.311   2.590  0.2307  0.2708  0.0484
35896ION     NA49310  15.796   0.543  15.610 -0.4375 -0.0178  0.1324
35897ION     NA49311   5.943   8.462   4.744  0.2667 -0.1066  0.2914
35898ION     NA49312   8.431  13.416  13.188  0.1333 -0.2702 -0.0969
35899ION     NA49313  16.336   5.766   6.278 -0.1153 -0.1477  0.0031
35900ION     NA49314   2.205  16.050   2.493 -0.0469  0.2938  0.0152
35901ION     NA49315   2.232  10.819  10.287 -0.0585 -0.2500  0.2625
35902ION     NA49316  10.323  10.425  10.103  0.1217 -0.1035 -0.0936
35903ION     NA49317   6.324   1.832  15.208 -0.3173 -0.0964  0.1166
35904ION     NA49318   2.728  10.440   1.616  0.0259  0.0570  0.1987
35905ION     NA49319  13.493  17.047  13.421 -0.0557  0.0795 -0.0039
35906ION     NA49320   8.317  15.668   3.422  0.3592  0.0116 -0.3295
35907ION     NA49321   8.493  14.221  14.927 -0.2307 -0.2799  0.1966
35908ION     NA49322  10.843   6.926   6.607 -0.1586 -0.1435 -0.1111
35909ION     NA49323  16.762  13.152  14.347 -0.2383 -0.2715  0.0564
35910ION     NA49324   4.649   7.185   4.185 -0.3334  0.0687  0.3221
35911ION     NA49325   9.479  14.573  11.310 -0.0535 -0.0144  0.1238
35912ION     NA49326   0.782   3.801   0.827  0.1682 -0.0074  0.1301
35913ION     NA49327   2.328  16.559   3.735  0.0840  0.1135  0.1150
35914ION     NA49328  12.706   0.443   9.676  0.1987  0.2231  0.0316
35915ION     NA49329   3.005  18.143   0.368  0.1106 -0.0774 -0.2124
35916ION     NA49330  11.174  18.431   5.527 -0.0543 -0.1076 -0.0272
35917ION     NA49331  10.394  14.475  14.123  0.2712 -0.0632 -0.2050
35918ION     NA49332  10.160  17.681   0.851  0.1486  0.1166 -0.1966
35919ION     NA49333   2.283   3.409   3.104 -0.3455  0.1567 -0.1187
35920ION     NA49334  11.195   2.687   5.950 -0.1299 -0.0033 -0.2609
35921ION     NA49335  15.748   6.446  14.633 -0.0380 -0.2045  0.0681
35922ION     NA49336  14.452  15.322   5.707  0.0016 -0.1783  0.0540
35923ION     NA49337  11.340   3.883  14.183 -0.0412  0.0770  0.1666
35924ION     NA49338  17.123   9.338  13.909 -0.1145 -0.2738  0.0133
35925ION     NA49339  15.557   6.727  16.018  0.2295 -0.1291 -0.3064
35926ION     NA49340  14.697  17.166   1.746 -0.0532  0.0772  0.0922
35927ION     NA49341   5.799   6.811  11.056 -0.2911  0.3147 -0.0470
35928ION     NA49342  11.740  12.801   1.891  0.2073 -0.0678 -0.0602
35929ION     NA49343   6.775   3.917  11.801 -0.0427  0.2558  0.2433
35930ION     NA49344   3.737   1.879   3.301 -0.0166  0.2369  0.0314
35931ION     NA49345  16.260  18.077  13.162  0.0707 -0.0070  0.0804
35932ION     NA49346  15.841  12.874  12.104  0.0231 -0.0112 -0.2610
35933ION     NA49347  17.957   2.751   2.237  0.1063  0.3590 -0.0708
35934ION     NA49348  11.443   7.304  10.298 -0.0173  0.0011 -0.2060
35935ION     NA49349   5.731   7.507   2.923 -0.0709 -0.1745  0.5514
35936ION     NA49350  16.349   8.758  13.904  0.3048  0.0595  0.2744
35937ION     NA49351  12.405   4.538   2.256 -0.0042  0.1715  0.0904
35938ION     NA49352   4.027  17.204   3.630 -0.0060  0.4091  0.3192
35939ION     NA49353  17.888   3.732  11.826  0.2076  0.2519 -0.2919
35940ION     NA49354   9.026   1.007   5.702  0.1016 -0.1516  0.0843
35941ION     NA49355  17.105   0.129   6.462  0.0233  0.3292 -0.0063
35942ION     NA49356   7.714   7.434  14.482 -0.0643 -0.1297 -0.1837
35943ION     NA49357   2.469   3.263   6.065  0.1833  0.2932  0.1327
35944ION     NA49358  15.655  10.692   6.371 -0.1677  0.0600  0.0627
35945ION     NA49359   6.561   6.370  15.809  0.0626  0.2325  0.0536
35946ION     NA49360  13.284  11.772  12.633 -0.1887 -0.2340 -0.0749
35947ION     NA49361   3.697  11.057  12.903  0.0430 -0.2306  0.0127
35948ION     NA49362   1.247   0.953  11.037  0.1022  0.0391  0.0719
35949ION     NA49363   5.722  14.877   2.491 -0.0913 -0.0021  0.0227
35950ION     NA49364  11.647   2.165   9.910  0.3830 -0.1619 -0.3677
35951ION     NA49365  16.563  15.101  13.824  0.0364  0.0739 -0.1278
35952ION     NA49366  10.015   7.247   6.302 -0.2734 -0.0505 -0.0830
35953ION     NA49367  18.363   7.146   6.577  0.0238  0.1788 -0.1741
35954ION     NA49368   1.249  16.110   5.411 -0.0974 -0.5310 -0.1579
35955ION     NA49369  13.616  11.645   3.410  0.2257 -0.2453  0.1473
35956ION     NA49370   4.346   3.619  10.722  0.3649 -0.0366 -0.0427
35957ION     NA49371   4.810   3.545   5.921  0.1452  0.0287 -0.3349
35958ION     NA49372   4.454   0.298   2.966  0.2164  0.4948  0.0944
35959ION     NA49373   6.469  16.101  11.613 -0.2135 -0.2193  0.0320
35960ION     NA49374   1.995  13.155   9.892  0.0537  0.1350 -0.0220
35961ION     NA49375  12.485   3.651   5.840 -0.1557  0.0686  0.0771
35962ION     NA49376   0.792   9.540  12.646  0.0287 -0.0759  0.2028
35963ION     NA49377  13.133   4.545   1.538  0.1661 -0.0414  0.3843
35964ION     NA49378   1.772  12.695  15.982 -0.1041  0.1543 -0.1572
35965ION     NA49379  12.659   9.255   6.493  0.3805  0.1564 -0.0378
35966ION     NA49380  17.602  15.420  13.530  0.0778 -0.0389 -0.4074
35967ION     NA49381   6.434   7.244   2.435 -0.0414  0.1686  0.0935
35968ION     NA49382  10.556   6.343   6.118 -0.0910 -0.0438  0.0518
35969ION     NA49383  17.535   3.782   1.815 -0.0623 -0.1870  0.0655
35970ION     NA49384   2.771   5.527  14.075 -0.1866 -0.3002  0.1093
35971ION     CL49385  14.414   0.352   4.791 -0.2157  0.1180 -0.1421
35972ION     CL49386  17.908  14.057   2.186 -0.2275  0.0279 -0.1244
35973ION     CL49387  14.971   2.534  16.146  0.1490 -0.2037 -0.0016
35974ION     CL49388   9.833  12.776   3.697  0.0783 -0.1299 -0.0014
35975ION     CL49389  13.247  18.126  14.888 -0.3207  0.1511 -0.3738
35976ION     CL49390  11.288  12.292  13.193 -0.1035 -0.0688 -0.2083
35977ION     CL49391  13.458   8.523   0.034  0.0266 -0.1226  0.1228
35978ION     CL49392   8.772  12.065   4.729  0.2007  0.0237  0.0395
35979ION     CL49393   9.456  15.462  14.952  0.1519 -0.3246  0.2048
35980ION     CL49394  16.168  16.724  12.019  0.1560 -0.0936 -0.1593
35981ION     CL49395  17.847  14.514   2.963  0.3273  0.1796  0.1356
35982ION     CL49396  11.123   5.388  14.377  0.0607 -0.1378  0.0887
35983ION     CL49397   6.068   7.491  12.969  0.1360  0.2034 -0.2903
35984ION     CL49398  11.950  12.389   2.020  0.0191 -0.1427 -0.0201
35985ION     CL49399  17.392   1.342   2.968 -0.2002 -0.0900  0.1238
35986ION     CL49400   7.112   3.961  14.918 -0.2243  0.1269 -0.0339
35987ION     CL49401  17.066  16.720   1.807  0.1374 -0.4693 -0.1275
35988ION     CL49402   7.835   0.432  10.689 -0.0579 -0.0436 -0.3607
35989ION     CL49403  10.017  15.471   1.838 -0.0794  0.0186  0.0689
35990ION     CL49404  10.906  13.024  14.608 -0.0754 -0.2901 -0.1379
35991ION     CL49405  16.491  13.138  13.924  0.0768  0.1088 -0.1202
35992ION     CL49406   8.824   1.175  11.247 -0.2503 -0.0658 -0.0858
35993ION     CL49407   2.653  16.203   1.399  0.0110  0.1072  0.1876
35994ION     CL49408   2.686   5.998   4.603 -0.0629 -0.0596  0.4574
35995ION     CL49409  10.825   1.163   1.839  0.2765 -0.1368 -0.0368
35996ION     CL49410  17.122   1.666  14.848  0.0182  0.2271  0.0600
35997ION     CL49411   3.173   8.278  14.844  0.1260 -0.2447 -0.0507
35998ION     CL49412  11.981   2.269  12.882  0.0377  0.0345  0.1440
35999ION     CL49413  14.195  16.476  11.923 -0.1450 -0.1879  0.1397
36000ION     CL49414   2.254  14.841   3.130 -0.1937 -0.3426  0.1084
36001ION     CL49415  16.550  10.363   2.652  0.1785 -0.0263  0.4399
36002ION     CL49416   1.014   1.154   5.752 -0.1820  0.1823 -0.2026
36003ION     CL49417  15.581   5.945  14.759  0.0640  0.0234 -0.1113
36004ION     CL49418  16.194  14.736  13.906 -0.1615  0.0351  0.1705
36005ION     CL49419   4.068  13.742   2.980  0.2924 -0.2861  0.0667
36006ION     CL49420  15.381   6.993   0.641 -0.0898 -0.1111  0.1402
36007ION     CL49421  11.672  15.950  13.732 -0.0705 -0.0998  0.2197
36008ION     CL49422  10.838  11.922   6.041  0.1719  0.2149  0.2153
36009ION     CL49423  16.043  15.793   3.526 -0.1438 -0.2039  0.2180
36010ION     CL49424  14.322  15.709  11.587  0.1561 -0.1364  0.1012
36011ION     CL49425   0.170   2.167  12.017  0.0312 -0.3001  0.0562
36012ION     CL49426   1.679   4.261   4.976  0.0838  0.2145 -0.0714
36013ION     CL49427  15.439   7.145  14.759  0.2333  0.0432  0.1505
36014ION     CL49428  13.671   1.619   2.173 -0.1405  0.0604 -0.0749
36015ION     CL49429   4.726   3.855  10.412  0.0942 -0.0085 -0.0505
36016ION     CL49430  16.273   6.897  13.747 -0.0162  0.0182  0.2223
36017ION     CL49431  11.621  17.063  15.660 -0.0946  0.2128 -0.1213
36018ION     CL49432  14.084  16.039   4.779  0.2565 -0.0193  0.1326
36019ION     CL49433  10.965   8.652  14.698 -0.1977  0.0269  0.0210
36020ION     CL49434  17.881  15.171  13.834  0.0197  0.0886 -0.1870
36021ION     CL49435  15.188   8.777  11.029  0.1866 -0.2053 -0.1998
36022ION     CL49436  16.743   3.289  15.480  0.0812 -0.2238 -0.3544
36023ION     CL49437   8.872   1.906   4.788  0.1393 -0.3086 -0.1596
36024ION     CL49438  11.449   8.314   5.509  0.2719 -0.0436  0.3074
36025ION     CL49439  15.050   2.775   0.868  0.1864 -0.0512  0.0721
36026ION     CL49440  15.934  13.125   2.363  0.1381  0.0904  0.2907
36027ION     CL49441   1.679   0.092  11.478 -0.0349  0.1702  0.0117
36028ION     CL49442   9.915   2.123  13.592  0.1286  0.0539 -0.1072
36029ION     CL49443   6.022   7.073   2.231  0.0705  0.0560  0.0618
36030ION     CL49444   1.158   7.335  14.309  0.2414  0.0318  0.0972
36031ION     CL49445   6.101   8.043  13.815 -0.1301  0.0323 -0.0947
36032ION     CL49446  14.035   6.830  12.429  0.2363 -0.0656  0.0703
36033ION     CL49447   3.654  12.223  11.201  0.0394 -0.0450  0.0117
36034ION     CL49448  13.942  10.436   5.285 -0.3372 -0.0300  0.1097
36035ION     CL49449   2.923   4.508   6.011  0.3184  0.1347  0.0262
36036ION     CL49450  10.407   8.800   0.505 -0.1931  0.0212 -0.1239
36037ION     CL49451   0.296   2.681   0.807  0.0968  0.0501 -0.2012
36038ION     CL49452  13.573   7.272   1.838  0.1335  0.0578 -0.0870
36039ION     CL49453  11.707   3.007   5.187 -0.2534  0.3802 -0.0112
36040ION     CL49454   5.780   7.177  10.681 -0.0336  0.0550  0.1277
36041ION     CL49455  11.050  10.666   0.699 -0.0795  0.0848 -0.2310
36042ION     CL49456   2.643   4.472   3.997 -0.1680  0.2002  0.1230
36043ION     CL49457   8.567   4.898   1.127 -0.0220  0.1297  0.1238
36044ION     CL49458   9.383  14.077   2.773  0.0706  0.2737  0.0136
36045ION     CL49459  18.367   6.539  11.301 -0.1219  0.1480  0.3139
36046ION     CL49460  17.998  13.302  15.412 -0.0345  0.0482  0.2931
36047ION     CL49461  17.926   3.158   5.792  0.3002 -0.4197 -0.0209
36048ION     CL49462  16.132   0.147  15.782 -0.1169  0.1084 -0.1924
36049ION     CL49463  17.107   7.415   0.421  0.2882  0.1740  0.2792
36050ION     CL49464  10.932  14.594  11.119 -0.0855  0.4954 -0.1065
36051ION     CL49465  14.519  12.962   3.386  0.4298 -0.0804 -0.2368
36052ION     CL49466  16.643  17.802  13.057 -0.2176  0.1626 -0.1018
36053ION     CL49467   9.350  13.468   3.363  0.1661  0.0777 -0.1647
36054ION     CL49468  15.151  10.242   4.867  0.0017 -0.0838 -0.2946
36055ION     CL49469  14.547  15.712  16.190 -0.0938  0.0962  0.0203
36056ION     CL49470   7.019   3.365   4.414 -0.0324  0.1545 -0.0974
36057ION     CL49471   9.736  13.822   4.388 -0.1390  0.0171  0.0744
36058ION     CL49472   5.004  12.578   1.055 -0.2671  0.2991 -0.4014
36059ION     CL49473   7.025  11.511   0.373  0.1904 -0.0684 -0.0620
36060ION     CL49474  14.057  17.317   2.088 -0.0232 -0.0340 -0.3216
36061ION     CL49475   5.945  16.420  10.998 -0.0496  0.1237  0.1307
36062ION     CL49476   0.425  17.609   1.671 -0.1563  0.1736  0.1641
36063ION     CL49477   2.866  10.254  11.442 -0.0131  0.0445  0.0348
36064ION     CL49478  15.746   9.089   0.104  0.4285 -0.0357  0.3085
36065ION     CL49479  11.269   5.501   5.563 -0.1262  0.0946 -0.1961
36066ION     CL49480   6.747   7.960   4.542  0.1681 -0.0419  0.2453
36067ION     CL49481  10.250   3.678  16.028 -0.1284 -0.1413 -0.2438
36068ION     CL49482   4.918  11.912  10.796 -0.0537  0.0989 -0.1783
36069ION     CL49483   9.240   0.724  10.689 -0.0267  0.1653  0.0161
36070ION     CL49484   3.270  10.412  15.749  0.2374  0.0631 -0.0024
36071ION     CL49485   1.220   8.809  15.619  0.0851 -0.4141  0.1789
36072ION     CL49486  17.857  12.221   0.035 -0.3608  0.2101 -0.1945
36073ION     CL49487   4.411   0.093   1.769  0.2813  0.0042 -0.1169
36074ION     CL49488  17.760   2.720   0.363  0.0068 -0.0787  0.0221
36075ION     CL49489   2.303   2.914   2.897  0.3688 -0.0039  0.0437
36076ION     CL49490   2.642  13.096  11.641 -0.2666  0.0306 -0.1234
36077ION     CL49491   2.872  10.923  11.835 -0.0939  0.0549  0.1638
36078ION     CL49492   8.679  15.857   3.186 -0.2454 -0.3833 -0.1999
36079ION     CL49493  16.933   1.057   0.337 -0.1218  0.1184  0.0556
36080ION     CL49494  13.969   9.374   2.593 -0.0260 -0.1431 -0.0160
36081ION     CL49495  15.972   9.036   5.271  0.0210 -0.0022 -0.0621
36082ION     CL49496   2.229   4.133  11.846  0.0104 -0.2239 -0.3061
36083ION     CL49497  13.516  16.784  12.950 -0.1713 -0.1494 -0.1863
36084ION     CL49498   8.148   4.129   0.973 -0.1692 -0.1291 -0.1385
36085ION     CL49499   7.809  13.053   0.492 -0.2921 -0.3294 -0.0218
36086ION     CL49500  18.125   3.234   2.333 -0.3215  0.0218 -0.0811
36087ION     CL49501   9.171   1.971  11.307  0.0336 -0.0627 -0.2936
36088ION     CL49502  11.956   8.950  16.272 -0.0243 -0.0433 -0.4561
36089ION     CL49503   1.354  17.210   1.450 -0.2100  0.0305  0.0272
36090ION     CL49504   3.075  12.926  13.530  0.0793 -0.0256 -0.0773
36091ION     CL49505   6.981   8.930   2.501 -0.3212 -0.0653 -0.0335
36092ION     CL49506   6.272   2.882  12.643  0.1881  0.3264 -0.0334
36093ION     CL49507  10.562   0.972  10.615  0.0038  0.0821  0.2610
36094ION     CL49508  16.000   7.012  11.743 -0.2859 -0.2047 -0.0368
36095ION     CL49509   6.584  15.223   3.180  0.1025 -0.2643  0.0101
36096ION     CL49510  13.988  13.143   4.856  0.1984  0.3222 -0.0247
36097ION     CL49511   2.865   6.861  14.035  0.0557 -0.2114  0.0968
36098ION     CL49512   5.861   5.374  10.470 -0.1317 -0.1734  0.1030
36099ION     CL49513   2.999   3.907   3.837 -0.1650  0.1332 -0.0643
36100ION     CL49514   7.387   0.093  15.798  0.0222 -0.1479 -0.1877
36101ION     CL49515  12.663   3.588   5.188 -0.2904 -0.0944 -0.0300
36102ION     CL49516  11.825  15.622   4.349  0.1892 -0.2776 -0.1930
36103ION     CL49517   3.737   6.423  13.661 -0.3437 -0.0768 -0.2713
36104ION     CL49518  13.736   6.336   3.201  0.1926  0.2007  0.4311
36105ION     CL49519   2.887   1.723   0.707  0.2323  0.0907 -0.0368
36106ION     CL49520  17.290  10.238  16.117 -0.1285  0.2776 -0.0216
36107ION     CL49521   8.864  13.998   0.141  0.1206 -0.2689  0.0354
36108ION     CL49522   5.985   8.343  12.865 -0.2402 -0.0433  0.3164
36109ION     CL49523  10.493  10.041   2.090 -0.2180  0.1192  0.0299
36110ION     CL49524  13.479  16.511  10.382  0.2967  0.5108  0.1125
36111ION     CL49525   0.306  10.576   0.273  0.1635 -0.1638  0.2747
36112ION     CL49526   2.574  16.866  13.709 -0.2866 -0.0939 -0.0481
36113ION     CL49527   3.093   2.968  16.183 -0.2983 -0.1360 -0.2671
36114ION     CL49528   0.716   9.298   2.359  0.1232  0.0782  0.1179
36115ION     CL49529  17.717   5.954   6.406  0.1809  0.1685 -0.3238
36116ION     CL49530   2.924   5.752  13.657 -0.1387 -0.1661  0.0395
36117ION     CL49531  16.120   3.055  11.907 -0.0981 -0.1048  0.1182
36118ION     CL49532   5.282  11.736  13.425 -0.4148 -0.0980  0.1301
36119ION     CL49533   9.925  14.493  13.860 -0.3131 -0.3273  0.0376
36120ION     CL49534  16.484  13.699  15.988  0.0672  0.3253  0.3165
36121ION     CL49535   5.878   8.756  14.449 -0.2938  0.0333  0.3319
36122ION     CL49536   3.911   0.244   2.978  0.1053  0.3228 -0.1109
36123ION     CL49537  13.978   7.557   2.261  0.0259 -0.1355 -0.0739
36124ION     CL49538  15.129   1.097   5.284 -0.1046  0.1740  0.1386
36125ION     CL49539  13.982   4.851   2.323 -0.0653  0.1574 -0.0559
36126ION     CL49540   8.391  14.750  14.343  0.2132  0.3295 -0.1104
36127ION     CL49541  12.802  12.276  13.591 -0.0747  0.1760 -0.1987
36128ION     CL49542   8.140   6.093   0.500  0.0251 -0.0473  0.1514
36129ION     CL49543   8.159   0.955  11.838 -0.2102  0.3593 -0.1021
36130ION     CL49544   0.187  13.926   3.261 -0.0682 -0.0781  0.0353
36131ION     CL49545  12.650   7.534   5.855  0.2333 -0.1145 -0.2971
36132ION     CL49546   5.702  17.243  13.511 -0.0810 -0.0043  0.0990
36133ION     CL49547  17.906  16.175   5.285  0.2312  0.2173  0.0147
36134ION     CL49548   5.948   0.337   3.394 -0.0514 -0.2006  0.3022
36135ION     CL49549   0.676   8.441   0.183  0.1012  0.1909 -0.4804
36136ION     CL49550   4.049   3.157  10.653 -0.1210  0.0425  0.0562
36137ION     CL49551  14.941  10.270  10.735 -0.1475 -0.2165 -0.1891
36138ION     CL49552   4.560   6.239   1.423 -0.3808  0.0387  0.1171
36139ION     CL49553  15.286  17.561   4.589 -0.3312 -0.1075  0.3231
36140ION     CL49554  18.082  16.476   1.754 -0.2634  0.0096  0.3160
36141ION     CL49555  10.954   3.820  11.726  0.1516 -0.1681  0.2117
36142ION     CL49556  16.523   5.211   5.224  0.1326  0.1087  0.1167
36143ION     CL49557  10.044   6.345   0.496  0.1538  0.2541  0.1638
36144ION     CL49558   6.662   3.582  11.433  0.0549  0.1268  0.2713
36145ION     CL49559   9.971   4.235  12.077 -0.2643  0.5254 -0.2547
36146ION     CL49560   7.723   0.724   3.874  0.0877 -0.0920 -0.3085
36147ION     CL49561  13.598  11.270   1.977 -0.0222 -0.0342 -0.0599
36148ION     CL49562  13.348  10.257   2.942 -0.2231 -0.2912  0.1747
36149ION     CL49563   6.391  16.835   4.699  0.4109  0.0938 -0.0253
36150ION     CL49564   5.588  14.560  10.591 -0.2339 -0.0326 -0.1489
36151ION     CL49565  13.275  17.886   1.345  0.0546 -0.2649 -0.1657
36152ION     CL49566   9.753   0.428  11.709 -0.1669 -0.1035 -0.1641
36153ION     CL49567   5.927  11.519   0.792  0.1610  0.0309 -0.0811
36154ION     CL49568  14.956   3.674  16.194  0.1359  0.2742 -0.2013
36155ION     CL49569  10.599  11.500  13.121  0.2442 -0.2995  0.1567
36156ION     CL49570  17.821   0.205   3.647 -0.1001  0.0075 -0.3196
36157ION     CL49571   1.876   2.709   0.425  0.1478 -0.0664  0.1528
36158ION     CL49572   4.562  15.065  10.778 -0.0711  0.0118  0.1317
36159ION     CL49573  10.967   0.391   3.336 -0.0641 -0.0264 -0.3127
36160ION     CL49574  17.543   3.042  11.532  0.1295  0.1242  0.2481
36161ION     CL49575  16.504   4.284  15.692  0.2026 -0.1229  0.1606
36162ION     CL49576   9.428   2.631   3.081  0.1948  0.4759 -0.0379
36163ION     CL49577  13.161   7.354   0.501  0.2448 -0.0807 -0.3586
36164ION     CL49578  15.858   2.191   1.934 -0.3509  0.1089  0.2940
36165ION     CL49579  16.594   2.307   5.616 -0.0941 -0.2245 -0.2768
36166ION     CL49580   7.799   7.670   1.180 -0.0066 -0.0433  0.4947
36167ION     CL49581  11.165   7.120  14.202  0.1013  0.1285 -0.2430
36168ION     CL49582   8.610  14.408   1.635 -0.1463  0.0570  0.0763
36169ION     CL49583  17.296  13.826   4.485  0.2094  0.1157 -0.0403
36170ION     CL49584   1.668  16.045  10.494  0.1712  0.1202  0.1063
36171ION     CL49585   3.269  13.940   2.346 -0.1902  0.2197  0.2582
36172ION     CL49586  11.030   3.562   1.737  0.2773  0.0681  0.1410
36173ION     CL49587  10.609  10.406   3.744  0.0557  0.2927  0.3184
36174ION     CL49588   2.645  16.248  12.220 -0.0530 -0.2212 -0.3028
36175ION     CL49589  10.224  10.414   1.000 -0.1426  0.2349  0.1563
36176ION     CL49590   4.236   9.764   3.764 -0.1345  0.1909 -0.1110
36177ION     CL49591  17.039  12.803  14.700  0.1232  0.0867 -0.3791
36178ION     CL49592  14.014  11.378   3.145  0.0415 -0.4388  0.3145
  18.44756  18.44756  16.27264
