INSANE! Membrane UpperLeaflet>PSPI:POPI:POPS:YOPS:POPE:YOPE:POPC:YOPC:ERGO=6.0:14.0:21.0:9.0:9.0:21.0:12.0:48.0:60.0 LowerLeaflet>PSPI:POPI:POPS:YOPS:POPE:YOPE:POPC:YOPC:ERGO=6.0:14.0:21.0:9.0:9.0:21.0:12.0:48.0:60.0
49592
    1PSPI    C1    1  15.069   8.876  10.134  0.0721 -0.0067 -0.0697
    1PSPI    C2    2  14.735   8.756  10.318 -0.0399  0.0611 -0.2273
    1PSPI    C3    3  15.073   8.547  10.363 -0.0575  0.0939  0.0789
    1PSPI   PO4    4  14.824   8.988   9.877  0.0788  0.2197  0.1656
    1PSPI   GL1    5  14.744   8.950   9.485 -0.2235 -0.2292 -0.2618
    1PSPI   GL2    6  14.461   8.688   9.386  0.1016  0.0525 -0.3165
    1PSPI   C1A    7  14.853   8.682   9.151 -0.2127  0.0252 -0.0343
    1PSPI   C2A    8  14.863   8.595   8.825 -0.1945  0.1062 -0.4700
    1PSPI   C3A    9  15.071   8.651   8.546  0.1945 -0.0477 -0.2130
    1PSPI   C4A   10  15.516   8.612   8.556  0.0319 -0.1407 -0.0051
    1PSPI   C1B   11  14.325   8.526   8.974 -0.0811  0.0053  0.1011
    1PSPI   C2B   12  14.265   8.504   8.566  0.0802 -0.5171 -0.1208
    1PSPI   C3B   13  14.293   8.562   8.177  0.3582 -0.0427 -0.0871
    1PSPI   C4B   14  14.434   8.587   7.728 -0.0232 -0.2185  0.2470
    2PSPI    C1   15   5.428  14.064   9.643 -0.1568  0.1701  0.0379
    2PSPI    C2   16   5.735  14.038   9.897 -0.0685  0.0097 -0.0834
    2PSPI    C3   17   5.490  13.726   9.848 -0.1257  0.0639 -0.1443
    2PSPI   PO4   18   5.474  14.271   9.508  0.1327 -0.1112  0.3659
    2PSPI   GL1   19   5.744  14.405   9.120  0.0135 -0.0404  0.1941
    2PSPI   GL2   20   5.817  14.730   9.252 -0.2627  0.3388  0.2549
    2PSPI   C1A   21   5.790  14.461   8.689  0.0104  0.0626  0.3041
    2PSPI   C2A   22   5.903  14.630   8.254 -0.0679 -0.4226 -0.0168
    2PSPI   C3A   23   5.896  14.599   7.790 -0.2339 -0.1316 -0.1256
    2PSPI   C4A   24   5.831  14.455   7.514  0.0990  0.1508  0.2418
    2PSPI   C1B   25   5.696  14.999   8.998  0.1247  0.1939  0.0919
    2PSPI   C2B   26   5.718  15.108   8.527 -0.1895 -0.0253  0.1316
    2PSPI   C3B   27   5.673  15.189   8.108 -0.4287 -0.1494  0.2992
    2PSPI   C4B   28   5.628  15.198   7.703 -0.3207  0.2063  0.2076
    3PSPI    C1   29   4.803  16.994  10.320 -0.0248  0.1049 -0.0846
    3PSPI    C2   30   4.951  17.306  10.521 -0.0958  0.0983 -0.0213
    3PSPI    C3   31   4.884  16.960  10.710  0.0182  0.0327 -0.0996
    3PSPI   PO4   32   4.938  17.108  10.092  0.3738 -0.0136  0.1548
    3PSPI   GL1   33   4.863  16.918   9.662 -0.0356  0.0025 -0.0127
    3PSPI   GL2   34   4.661  17.162   9.640  0.0457  0.0432  0.3278
    3PSPI   C1A   35   5.009  16.923   9.228 -0.0768  0.2230 -0.1582
    3PSPI   C2A   36   5.163  16.952   8.792 -0.2316 -0.0229 -0.0267
    3PSPI   C3A   37   5.280  17.058   8.565 -0.2329 -0.3891  0.3658
    3PSPI   C4A   38   5.267  17.284   8.179  0.4305  0.3525 -0.1329
    3PSPI   C1B   39   4.479  17.374   9.208  0.2061  0.0794 -0.0639
    3PSPI   C2B   40   4.388  17.647   8.736  0.0980 -0.2713  0.0858
    3PSPI   C3B   41   4.370  17.776   8.320 -0.2229  0.1904  0.0035
    3PSPI   C4B   42   4.040  18.037   8.020 -0.0292 -0.0239  0.0016
    4PSPI    C1   43   4.720  14.855  10.017  0.0599 -0.1309 -0.0771
    4PSPI    C2   44   4.638  14.465  10.052 -0.1112 -0.1056 -0.1800
    4PSPI    C3   45   4.428  14.733  10.262  0.0542 -0.0724 -0.0546
    4PSPI   PO4   46   4.725  14.830   9.742  0.1976 -0.0426 -0.0818
    4PSPI   GL1   47   4.908  14.750   9.382  0.0223  0.1027  0.1450
    4PSPI   GL2   48   4.707  14.445   9.360  0.0429  0.2043  0.2760
    4PSPI   C1A   49   5.119  14.935   9.076  0.0919  0.0559 -0.1900
    4PSPI   C2A   50   5.114  15.046   8.729 -0.3232 -0.0110  0.1783
    4PSPI   C3A   51   5.137  15.171   8.322 -0.0854  0.0595 -0.0607
    4PSPI   C4A   52   4.823  15.360   8.055 -0.2814  0.3278  0.0027
    4PSPI   C1B   53   4.782  14.525   8.879 -0.0061 -0.1709 -0.1252
    4PSPI   C2B   54   4.876  14.689   8.475 -0.0246  0.1913 -0.1270
    4PSPI   C3B   55   4.916  14.838   8.089 -0.0802 -0.1815  0.2143
    4PSPI   C4B   56   4.882  14.985   7.623  0.0972  0.0099 -0.0425
    5PSPI    C1   57   8.752  12.985   9.896  0.1545 -0.2316  0.0654
    5PSPI    C2   58   8.604  13.081  10.255  0.0177  0.3457 -0.1352
    5PSPI    C3   59   8.434  12.789  10.040  0.0595  0.0419  0.2354
    5PSPI   PO4   60   8.864  13.256   9.775 -0.0489  0.4150  0.1898
    5PSPI   GL1   61   9.084  13.361   9.368  0.2447  0.1890 -0.1651
    5PSPI   GL2   62   8.914  13.551   9.237 -0.1067 -0.0196  0.0854
    5PSPI   C1A   63   9.288  13.293   9.043  0.1984 -0.1158 -0.1059
    5PSPI   C2A   64   9.382  13.438   8.681 -0.3010 -0.2143 -0.0588
    5PSPI   C3A   65   9.315  13.277   8.313  0.1674 -0.3087  0.1706
    5PSPI   C4A   66   9.005  13.314   8.045  0.2786 -0.0946  0.1681
    5PSPI   C1B   67   8.964  13.591   8.800  0.0908 -0.0559  0.1870
    5PSPI   C2B   68   8.827  13.534   8.422 -0.3546 -0.0352 -0.0497
    5PSPI   C3B   69   8.490  13.378   8.079  0.0457  0.3670  0.4568
    5PSPI   C4B   70   8.104  13.287   7.854 -0.2746  0.0144 -0.1699
    6PSPI    C1   71   5.193   1.652  10.360 -0.0093 -0.1441 -0.0461
    6PSPI    C2   72   5.363   2.014  10.380  0.1659 -0.2228 -0.0936
    6PSPI    C3   73   4.965   1.979  10.394  0.1413 -0.0164 -0.2420
    6PSPI   PO4   74   5.368   1.509  10.137  0.0377  0.2304 -0.1528
    6PSPI   GL1   75   5.219   1.260   9.865 -0.1048 -0.1099 -0.1426
    6PSPI   GL2   76   4.997   1.185   9.732  0.1136 -0.2352 -0.1165
    6PSPI   C1A   77   5.394   1.296   9.338  0.0460 -0.0896 -0.1204
    6PSPI   C2A   78   5.274   0.983   9.043  0.1379  0.3357  0.0646
    6PSPI   C3A   79   5.162   0.913   8.600  0.0026 -0.1926  0.0267
    6PSPI   C4A   80   5.296   1.147   8.274  0.0270  0.0980 -0.3505
    6PSPI   C1B   81   4.886   1.055   9.420  0.1173  0.1240  0.1713
    6PSPI   C2B   82   4.790   1.094   8.974  0.0150  0.0766 -0.3321
    6PSPI   C3B   83   4.488   0.994   8.605  0.1810 -0.0858 -0.3153
    6PSPI   C4B   84   4.314   0.821   8.242  0.2142 -0.1315 -0.3787
    7PSPI    C1   85  17.891  18.373  10.209 -0.0674 -0.0289 -0.1055
    7PSPI    C2   86  17.784  18.143  10.518  0.0449  0.0245 -0.0262
    7PSPI    C3   87  17.504  18.315  10.290 -0.0407 -0.2329 -0.1182
    7PSPI   PO4   88  18.051  18.223  10.041  0.1337 -0.0056 -0.0960
    7PSPI   GL1   89  18.126  18.101   9.669 -0.1833 -0.1938  0.0104
    7PSPI   GL2   90  18.164  17.725   9.772 -0.0120  0.0790 -0.1165
    7PSPI   C1A   91  17.858  18.160   9.365  0.1394 -0.5399  0.2017
    7PSPI   C2A   92  17.872  18.132   8.895 -0.1882  0.1565 -0.1249
    7PSPI   C3A   93  17.835  18.132   8.391 -0.1318 -0.0541 -0.1591
    7PSPI   C4A   94  17.655  18.437   8.050 -0.1801 -0.1899  0.2279
    7PSPI   C1B   95  18.220  17.471   9.472 -0.2755  0.0152  0.1011
    7PSPI   C2B   96  18.321  17.490   9.071  0.3188 -0.0058  0.1260
    7PSPI   C3B   97  18.490  17.778   8.723 -0.1028 -0.0929 -0.0172
    7PSPI   C4B   98  18.291  17.870   8.404 -0.0792 -0.1938 -0.0491
    8PSPI    C1   99   8.112  10.165  10.368  0.2338 -0.2174 -0.0406
    8PSPI    C2  100   7.993   9.908  10.651  0.2095  0.0283  0.1772
    8PSPI    C3  101   7.747  10.199  10.529  0.3303  0.1067  0.1187
    8PSPI   PO4  102   8.415  10.078  10.293 -0.0029  0.1457  0.2278
    8PSPI   GL1  103   8.729  10.191  10.044  0.1096  0.0215  0.4393
    8PSPI   GL2  104   9.042  10.189   9.914  0.1473  0.0389 -0.4053
    8PSPI   C1A  105   8.553  10.148   9.682  0.1293 -0.1048  0.2015
    8PSPI   C2A  106   8.578  10.030   9.314 -0.0744  0.1671  0.1298
    8PSPI   C3A  107   8.744   9.720   9.031  0.0762 -0.3173  0.3313
    8PSPI   C4A  108   8.706   9.556   8.638 -0.0863 -0.2665  0.2836
    8PSPI   C1B  109   9.002  10.257   9.482  0.0549  0.1401 -0.2316
    8PSPI   C2B  110   8.986  10.179   8.944 -0.0068  0.2107 -0.1328
    8PSPI   C3B  111   8.788  10.057   8.602 -0.0756  0.0307 -0.0533
    8PSPI   C4B  112   8.591   9.928   8.216 -0.3352 -0.5750  0.0646
    9PSPI    C1  113  15.884   0.080  10.432  0.0398 -0.1177  0.0784
    9PSPI    C2  114  15.709  -0.277  10.482 -0.1393 -0.0572 -0.1019
    9PSPI    C3  115  15.738  -0.023  10.790  0.0667 -0.2599  0.0491
    9PSPI   PO4  116  16.069   0.001  10.139 -0.0856 -0.1896 -0.1450
    9PSPI   GL1  117  16.260  -0.149   9.702  0.2961 -0.1036  0.3823
    9PSPI   GL2  118  16.661  -0.274   9.703 -0.2033 -0.1741 -0.0794
    9PSPI   C1A  119  15.944  -0.151   9.522  0.0409  0.0033  0.2800
    9PSPI   C2A  120  15.804  -0.164   9.083 -0.3293 -0.5051 -0.1844
    9PSPI   C3A  121  15.743  -0.162   8.717  0.0856  0.1039 -0.3079
    9PSPI   C4A  122  15.827  -0.349   8.323 -0.1381  0.0575  0.2864
    9PSPI   C1B  123  16.752  -0.344   9.274  0.1584  0.2161 -0.0505
    9PSPI   C2B  124  16.880  -0.399   8.901  0.1666  0.1443  0.0238
    9PSPI   C3B  125  17.181  -0.392   8.527  0.4267  0.0972 -0.0533
    9PSPI   C4B  126  17.409  -0.528   8.146  0.2476  0.2184 -0.1644
   10PSPI    C1  127  13.087   2.769  10.710  0.0822 -0.0371 -0.0010
   10PSPI    C2  128  12.770   2.795  10.952  0.1673 -0.1873  0.1286
   10PSPI    C3  129  12.958   3.127  10.832 -0.0880 -0.0925 -0.0161
   10PSPI   PO4  130  12.981   2.600  10.532  0.1333  0.0192 -0.3234
   10PSPI   GL1  131  13.071   2.422  10.152  0.1065  0.2626 -0.0878
   10PSPI   GL2  132  12.804   2.682  10.086 -0.4043  0.0813 -0.4930
   10PSPI   C1A  133  13.166   2.423   9.685  0.4017  0.2315  0.2447
   10PSPI   C2A  134  13.136   2.640   9.214  0.1509 -0.4591 -0.2323
   10PSPI   C3A  135  12.935   2.713   8.728 -0.0636 -0.0658  0.3653
   10PSPI   C4A  136  12.971   3.073   8.392 -0.1303 -0.0190 -0.1268
   10PSPI   C1B  137  13.020   2.886   9.712  0.0453 -0.0695 -0.2427
   10PSPI   C2B  138  12.917   3.121   9.196 -0.0467 -0.5347 -0.2441
   10PSPI   C3B  139  13.158   3.417   8.958  0.1262  0.0719  0.2237
   10PSPI   C4B  140  13.090   3.520   8.584 -0.0834  0.1136  0.1558
   11PSPI    C1  141   0.017  15.894  10.168  0.2015  0.0723  0.1751
   11PSPI    C2  142  -0.093  16.250  10.023 -0.0785 -0.0057  0.1904
   11PSPI    C3  143  -0.366  15.962  10.074  0.1560 -0.2437  0.1218
   11PSPI   PO4  144   0.335  15.923  10.073  0.0502  0.1313  0.0207
   11PSPI   GL1  145   0.504  15.913   9.703  0.2059 -0.0384 -0.0772
   11PSPI   GL2  146   0.180  16.096   9.602 -0.1483 -0.1524 -0.0672
   11PSPI   C1A  147   0.743  16.038   9.367 -0.1667 -0.0765 -0.2269
   11PSPI   C2A  148   0.955  15.991   9.045 -0.1444 -0.1355  0.3653
   11PSPI   C3A  149   1.260  15.906   9.118 -0.0671  0.0894 -0.1273
   11PSPI   C4A  150   1.604  16.120   9.409  0.1208  0.0864 -0.1485
   11PSPI   C1B  151   0.309  16.075   9.160  0.1790  0.3726 -0.2159
   11PSPI   C2B  152   0.291  16.117   8.724 -0.0596 -0.3154  0.0269
   11PSPI   C3B  153   0.088  16.172   8.384  0.0955 -0.0530  0.0064
   11PSPI   C4B  154   0.162  16.287   7.952  0.1700 -0.1752 -0.0113
   12PSPI    C1  155   2.579  18.276  10.370  0.0965 -0.0218  0.2629
   12PSPI    C2  156   2.899  18.150  10.573  0.1388 -0.1155  0.1399
   12PSPI    C3  157   2.531  18.056  10.700  0.1616 -0.0705  0.2402
   12PSPI   PO4  158   2.631  18.493  10.290 -0.1328  0.1812  0.0203
   12PSPI   GL1  159   2.785  18.731  10.063  0.1016 -0.2112  0.0919
   12PSPI   GL2  160   2.601  18.847   9.815  0.1267 -0.0653  0.0440
   12PSPI   C1A  161   2.981  18.571   9.583  0.1509 -0.0837 -0.1394
   12PSPI   C2A  162   2.842  18.594   9.113 -0.1661 -0.0005 -0.1355
   12PSPI   C3A  163   2.777  18.530   8.682 -0.2698 -0.1051  0.2476
   12PSPI   C4A  164   2.828  18.557   8.268  0.1301  0.0566  0.4520
   12PSPI   C1B  165   2.753  18.991   9.432 -0.2122 -0.0989  0.1698
   12PSPI   C2B  166   2.853  19.333   9.150 -0.0719  0.0533  0.1234
   12PSPI   C3B  167   3.095  19.386   8.870  0.3180  0.0583  0.0637
   12PSPI   C4B  168   3.085  19.482   8.437  0.0503 -0.1408 -0.3986
   13PSPI    C1  169  12.689  10.667  10.486 -0.1865  0.0104  0.0215
   13PSPI    C2  170  12.491  10.331  10.398 -0.0542 -0.2233  0.5779
   13PSPI    C3  171  12.292  10.650  10.533 -0.1730 -0.0884  0.1027
   13PSPI   PO4  172  12.889  10.666  10.127  0.0531  0.0938  0.2002
   13PSPI   GL1  173  13.181  10.949   9.861  0.1517  0.0428  0.3359
   13PSPI   GL2  174  13.381  11.211   9.947  0.2257  0.2468 -0.0055
   13PSPI   C1A  175  13.067  11.015   9.412  0.0844 -0.1177  0.0215
   13PSPI   C2A  176  12.998  11.073   8.961 -0.0525 -0.3072  0.6317
   13PSPI   C3A  177  13.292  11.350   8.719 -0.2789  0.0228 -0.1099
   13PSPI   C4A  178  13.423  11.634   8.455 -0.2134 -0.1141  0.0272
   13PSPI   C1B  179  13.233  11.433   9.516  0.1476  0.1383  0.0546
   13PSPI   C2B  180  13.109  11.556   9.164  0.2580 -0.0851  0.2484
   13PSPI   C3B  181  12.802  11.676   8.874  0.0380 -0.2487 -0.1670
   13PSPI   C4B  182  12.495  11.930   8.572 -0.1375  0.1652 -0.1027
   14PSPI    C1  183  12.003  11.058  10.723 -0.0089 -0.1344 -0.0247
   14PSPI    C2  184  11.748  10.750  10.714 -0.0995 -0.0685  0.2247
   14PSPI    C3  185  11.662  11.075  10.931  0.1116  0.0303  0.1625
   14PSPI   PO4  186  12.081  11.060  10.394  0.3237  0.0173 -0.2845
   14PSPI   GL1  187  12.027  11.014   9.944 -0.3446  0.0060  0.0461
   14PSPI   GL2  188  12.344  10.875  10.024 -0.1758  0.0708  0.3238
   14PSPI   C1A  189  11.747  10.840   9.614  0.0323 -0.0223  0.2019
   14PSPI   C2A  190  11.699  10.883   9.131 -0.1874  0.3480  0.1174
   14PSPI   C3A  191  11.726  10.630   8.780  0.0557 -0.1527  0.1467
   14PSPI   C4A  192  11.938  10.223   8.574  0.1086  0.4917  0.0373
   14PSPI   C1B  193  12.623  11.078   9.742 -0.1135  0.0192  0.1014
   14PSPI   C2B  194  12.560  11.132   9.290 -0.0457  0.1429 -0.0176
   14PSPI   C3B  195  12.518  11.234   8.907 -0.1785  0.1893  0.2761
   14PSPI   C4B  196  12.267  11.346   8.657  0.5255  0.1730 -0.3855
   15PSPI    C1  197  18.489  10.205  10.806  0.2427 -0.0684 -0.0393
   15PSPI    C2  198  18.331  10.427  11.098 -0.1437  0.0206 -0.3074
   15PSPI    C3  199  18.457  10.055  11.175 -0.0296  0.1233  0.0181
   15PSPI   PO4  200  18.304  10.159  10.623 -0.0763  0.1111 -0.0134
   15PSPI   GL1  201  18.140  10.195  10.233  0.0291 -0.2096  0.2534
   15PSPI   GL2  202  18.081  10.481  10.228 -0.2921 -0.0067 -0.0755
   15PSPI   C1A  203  18.111  10.213   9.786  0.1003  0.2551  0.1912
   15PSPI   C2A  204  18.219  10.474   9.417 -0.2603  0.2041 -0.2861
   15PSPI   C3A  205  18.109  10.433   8.909  0.1864 -0.0929  0.0391
   15PSPI   C4A  206  17.760  10.422   8.663  0.0227 -0.0675  0.0162
   15PSPI   C1B  207  17.965  10.772   9.850  0.0278  0.3894  0.2170
   15PSPI   C2B  208  18.099  11.041   9.665  0.0332 -0.0334 -0.1115
   15PSPI   C3B  209  17.920  11.031   9.231 -0.1970  0.2380  0.0541
   15PSPI   C4B  210  17.616  11.064   9.020  0.2901 -0.1823 -0.1288
   16PSPI    C1  211   3.090  12.491  10.212  0.0288 -0.0685 -0.0553
   16PSPI    C2  212   3.324  12.807  10.282 -0.1239  0.0266  0.0302
   16PSPI    C3  213   3.030  12.716  10.537 -0.2331 -0.0429 -0.1195
   16PSPI   PO4  214   3.257  12.358  10.017  0.3656  0.2096  0.1957
   16PSPI   GL1  215   3.253  12.312   9.589  0.1035  0.0183 -0.1039
   16PSPI   GL2  216   3.137  12.037   9.411  0.0220  0.1137  0.0818
   16PSPI   C1A  217   3.029  12.423   9.186  0.1739 -0.1377 -0.0412
   16PSPI   C2A  218   3.048  12.305   8.691  0.0297 -0.0819 -0.0194
   16PSPI   C3A  219   2.885  12.516   8.474  0.0687 -0.2086  0.1160
   16PSPI   C4A  220   2.721  12.700   8.061 -0.3073  0.3676  0.0870
   16PSPI   C1B  221   3.146  11.972   9.062  0.1325 -0.0250 -0.2639
   16PSPI   C2B  222   3.302  11.633   8.891 -0.3342 -0.2812  0.0618
   16PSPI   C3B  223   3.481  11.289   8.531  0.4361  0.0033  0.0842
   16PSPI   C4B  224   3.452  10.838   8.414 -0.0071 -0.0222 -0.2296
   17PSPI    C1  225   8.958  15.613   9.968 -0.1469 -0.1008 -0.0331
   17PSPI    C2  226   8.987  15.432  10.323 -0.0063 -0.1330 -0.0602
   17PSPI    C3  227   8.859  15.810  10.302  0.1267 -0.0820  0.0391
   17PSPI   PO4  228   8.768  15.514   9.827  0.0726  0.2191 -0.0161
   17PSPI   GL1  229   8.633  15.720   9.458  0.4946 -0.0320 -0.1398
   17PSPI   GL2  230   8.411  15.953   9.503 -0.1966  0.3073 -0.1651
   17PSPI   C1A  231   8.588  16.015   8.988 -0.0662  0.1082 -0.0079
   17PSPI   C2A  232   8.591  16.116   8.545 -0.1658  0.2078  0.0267
   17PSPI   C3A  233   8.494  16.117   7.994  0.1181  0.1847  0.2204
   17PSPI   C4A  234   8.627  16.324   7.559  0.1430 -0.0072  0.0603
   17PSPI   C1B  235   8.104  15.939   9.052  0.0734  0.3051  0.0374
   17PSPI   C2B  236   8.158  15.783   8.710 -0.3545 -0.1977 -0.0521
   17PSPI   C3B  237   8.178  15.873   8.301 -0.2961 -0.2101 -0.2761
   17PSPI   C4B  238   8.304  15.534   7.959 -0.1573  0.1547  0.1700
   18PSPI    C1  239  12.539  12.771  10.579  0.4741 -0.0995 -0.4018
   18PSPI    C2  240  12.429  13.134  10.451  0.0366 -0.0133  0.1701
   18PSPI    C3  241  12.733  13.096  10.709  0.1866 -0.0757 -0.0127
   18PSPI   PO4  242  12.591  12.653  10.425 -0.2387 -0.1889  0.2335
   18PSPI   GL1  243  12.590  12.757  10.012 -0.2405 -0.0097 -0.0444
   18PSPI   GL2  244  12.899  12.625  10.042 -0.0339 -0.1198 -0.0207
   18PSPI   C1A  245  12.509  12.572   9.626  0.4904 -0.2648 -0.1173
   18PSPI   C2A  246  12.572  12.562   9.240  0.3476  0.3180  0.2133
   18PSPI   C3A  247  12.588  12.693   8.809 -0.1526 -0.0043 -0.1080
   18PSPI   C4A  248  12.506  13.111   8.479  0.3402 -0.1558  0.2972
   18PSPI   C1B  249  13.052  12.642   9.661  0.0003  0.0138 -0.2162
   18PSPI   C2B  250  13.076  12.609   9.313 -0.0089 -0.3381 -0.0480
   18PSPI   C3B  251  13.028  12.566   8.910  0.1429 -0.0562  0.4027
   18PSPI   C4B  252  12.908  12.585   8.474 -0.3451  0.0852  0.1242
   19PSPI    C1  253   4.006   8.886  10.252  0.0624  0.0525 -0.1802
   19PSPI    C2  254   4.161   9.108  10.547  0.1963 -0.1868 -0.0675
   19PSPI    C3  255   3.814   8.916  10.601  0.1620 -0.1359 -0.1074
   19PSPI   PO4  256   4.130   9.012  10.044 -0.2853  0.1587 -0.1527
   19PSPI   GL1  257   4.325   8.716   9.736  0.1150 -0.1888 -0.2133
   19PSPI   GL2  258   4.327   8.409   9.605 -0.2000 -0.3258 -0.2516
   19PSPI   C1A  259   4.137   9.100   9.414 -0.3380  0.0791  0.0418
   19PSPI   C2A  260   4.223   9.150   9.061  0.2004  0.2526 -0.3424
   19PSPI   C3A  261   4.226   8.944   8.728 -0.0559 -0.2756 -0.0312
   19PSPI   C4A  262   4.028   8.668   8.349  0.0462  0.2674  0.0912
   19PSPI   C1B  263   4.313   8.477   9.169 -0.1047 -0.0146 -0.0962
   19PSPI   C2B  264   4.370   8.412   8.687  0.2285 -0.0254 -0.0967
   19PSPI   C3B  265   4.524   8.311   8.334  0.1220  0.3121  0.0974
   19PSPI   C4B  266   4.476   8.166   7.853  0.0542 -0.1917 -0.3324
   20PSPI    C1  267   2.063   0.108  10.490 -0.0174 -0.2376  0.0687
   20PSPI    C2  268   2.364   0.358  10.406 -0.1629 -0.0634  0.0599
   20PSPI    C3  269   2.176   0.383  10.758 -0.0553 -0.2865  0.1351
   20PSPI   PO4  270   1.883   0.078  10.300 -0.1101 -0.4080 -0.1135
   20PSPI   GL1  271   1.615  -0.152  10.050 -0.0748 -0.0249 -0.0904
   20PSPI   GL2  272   1.732  -0.405   9.924 -0.0698  0.0718 -0.1304
   20PSPI   C1A  273   1.495  -0.203   9.545 -0.0904  0.1598 -0.1980
   20PSPI   C2A  274   1.463  -0.184   9.135 -0.2064 -0.2460 -0.1830
   20PSPI   C3A  275   1.533  -0.373   8.697  0.0029 -0.0560 -0.0714
   20PSPI   C4A  276   1.369  -0.635   8.323 -0.3140 -0.2189  0.0938
   20PSPI   C1B  277   1.802  -0.646   9.528 -0.1600 -0.2115 -0.3425
   20PSPI   C2B  278   1.692  -0.649   9.066 -0.1318 -0.2294  0.0967
   20PSPI   C3B  279   1.831  -0.875   8.661 -0.0026 -0.2795  0.0092
   20PSPI   C4B  280   1.892  -1.295   8.586  0.0510 -0.1499 -0.1579
   21POPI    C1  281   8.083   6.033  10.419  0.0005  0.1721  0.1331
   21POPI    C2  282   8.055   6.405  10.275  0.0916  0.0759 -0.1387
   21POPI    C3  283   8.360   6.170  10.165  0.1715  0.0035  0.2262
   21POPI   PO4  284   7.886   5.918  10.367 -0.1015  0.1982  0.1804
   21POPI   GL1  285   7.665   6.095   9.986 -0.0361 -0.3086  0.2456
   21POPI   GL2  286   7.439   5.852   9.868 -0.3094  0.3005 -0.1907
   21POPI   C1A  287   8.065   6.168   9.750 -0.0382  0.1258 -0.0273
   21POPI   D2A  288   8.087   6.299   9.413  0.0325  0.2472  0.1214
   21POPI   C3A  289   7.830   6.582   9.309 -0.4675 -0.0486 -0.3002
   21POPI   C4A  290   7.942   6.900   9.106 -0.0013  0.1708 -0.3576
   21POPI   C1B  291   7.672   5.915   9.526  0.0053  0.0266 -0.2352
   21POPI   C2B  292   7.717   6.116   9.067 -0.0485 -0.1086  0.0042
   21POPI   C3B  293   7.892   5.966   8.601 -0.1957 -0.0555  0.2036
   21POPI   C4B  294   8.319   5.858   8.367  0.0252 -0.2224 -0.2388
   22POPI    C1  295   7.647  16.253  10.393  0.1282  0.1428 -0.0589
   22POPI    C2  296   7.328  16.419  10.569  0.2723  0.1178  0.2307
   22POPI    C3  297   7.511  16.106  10.739  0.2108 -0.1256 -0.1376
   22POPI   PO4  298   7.559  16.240  10.112  0.2025 -0.2295  0.0028
   22POPI   GL1  299   7.572  16.394   9.694  0.1715 -0.1045 -0.1381
   22POPI   GL2  300   7.341  16.786   9.614 -0.1148 -0.1440 -0.2023
   22POPI   C1A  301   7.704  16.177   9.382  0.2575 -0.1230  0.1612
   22POPI   D2A  302   7.742  16.238   8.933 -0.0308  0.2003 -0.0921
   22POPI   C3A  303   7.683  15.951   8.613  0.3781 -0.1616 -0.1796
   22POPI   C4A  304   7.441  15.446   8.586 -0.1706 -0.2440  0.0072
   22POPI   C1B  305   7.563  16.616   9.202 -0.0478  0.2394  0.0269
   22POPI   C2B  306   7.674  16.721   8.786 -0.0625  0.0433  0.0711
   22POPI   C3B  307   7.596  16.498   8.484 -0.0653  0.1431 -0.0080
   22POPI   C4B  308   7.487  16.450   8.032  0.2303  0.0325  0.2056
   23POPI    C1  309   1.094  16.301  10.329  0.2655  0.1881 -0.1440
   23POPI    C2  310   1.003  16.419  10.701 -0.0418  0.0280 -0.1646
   23POPI    C3  311   1.371  16.287  10.617  0.0344  0.0810  0.0777
   23POPI   PO4  312   1.002  16.443  10.179 -0.1919 -0.0726  0.1146
   23POPI   GL1  313   1.020  16.653   9.789 -0.0122 -0.3065  0.0452
   23POPI   GL2  314   0.816  16.351   9.713  0.0710  0.1973 -0.1950
   23POPI   C1A  315   0.853  16.827   9.400  0.0390  0.0735  0.0368
   23POPI   D2A  316   1.057  16.853   9.031 -0.0079  0.1860 -0.1319
   23POPI   C3A  317   0.924  16.798   8.633  0.1660 -0.2196  0.1889
   23POPI   C4A  318   0.926  17.068   8.259  0.1560 -0.1535  0.4440
   23POPI   C1B  319   1.196  16.395   9.344 -0.0828 -0.0423  0.0364
   23POPI   C2B  320   1.305  16.371   8.914 -0.0951 -0.0275 -0.2196
   23POPI   C3B  321   1.280  16.201   8.527 -0.0067  0.1443  0.3308
   23POPI   C4B  322   1.323  15.804   8.590 -0.0387  0.1777  0.5907
   24POPI    C1  323  13.206  15.243  10.135 -0.0592 -0.0638  0.0305
   24POPI    C2  324  13.550  15.254  10.340  0.0386  0.0958 -0.1398
   24POPI    C3  325  13.257  15.513  10.425 -0.0100  0.0113 -0.0478
   24POPI   PO4  326  13.342  15.170   9.863  0.1501  0.1926 -0.0538
   24POPI   GL1  327  13.593  14.930   9.507 -0.3065  0.1035  0.0016
   24POPI   GL2  328  13.703  15.258   9.476 -0.2356 -0.2289  0.1817
   24POPI   C1A  329  13.552  15.005   9.082  0.1123 -0.0310 -0.0402
   24POPI   D2A  330  13.572  15.003   8.644  0.0027  0.0708  0.1138
   24POPI   C3A  331  13.928  14.916   8.409 -0.1543 -0.1799  0.0688
   24POPI   C4A  332  14.126  14.802   8.079  0.0561 -0.1199 -0.1476
   24POPI   C1B  333  13.909  15.406   9.123 -0.0451  0.1101 -0.5085
   24POPI   C2B  334  13.845  15.441   8.636 -0.0949 -0.1604  0.1078
   24POPI   C3B  335  13.713  15.550   8.265  0.1021  0.0991  0.2760
   24POPI   C4B  336  13.699  15.945   8.031 -0.3027 -0.0356 -0.4341
   25POPI    C1  337  15.497  16.127  10.130  0.1626 -0.1634 -0.4768
   25POPI    C2  338  15.678  16.453   9.987  0.0841 -0.0395 -0.2978
   25POPI    C3  339  15.644  16.401  10.382  0.0096 -0.2174 -0.3268
   25POPI   PO4  340  15.164  16.133   9.977 -0.1128 -0.1868 -0.1571
   25POPI   GL1  341  14.968  16.337   9.679  0.0204  0.3672 -0.1800
   25POPI   GL2  342  15.261  16.454   9.608  0.0441  0.0553 -0.3492
   25POPI   C1A  343  14.661  16.681   9.560  0.3471 -0.3815 -0.1389
   25POPI   D2A  344  14.445  16.764   9.245  0.1268  0.3875 -0.1159
   25POPI   C3A  345  14.576  16.814   8.865 -0.1385  0.0485 -0.0628
   25POPI   C4A  346  14.653  16.682   8.490 -0.0826 -0.3678  0.0264
   25POPI   C1B  347  15.155  16.404   9.254  0.1543  0.0284 -0.0765
   25POPI   C2B  348  14.974  16.508   8.848 -0.0373 -0.0867 -0.0484
   25POPI   C3B  349  15.120  16.534   8.463 -0.0442 -0.4231  0.3013
   25POPI   C4B  350  15.297  16.302   8.076 -0.0952  0.3213  0.1005
   26POPI    C1  351  18.328   4.849  10.428  0.0689  0.2213 -0.1521
   26POPI    C2  352  18.644   4.932  10.660 -0.0162  0.0318  0.0343
   26POPI    C3  353  18.678   4.666  10.362  0.0660  0.1996 -0.1077
   26POPI   PO4  354  18.209   5.038  10.262 -0.1393 -0.3181 -0.1377
   26POPI   GL1  355  18.092   5.206   9.881 -0.3000 -0.4114 -0.2323
   26POPI   GL2  356  18.157   5.489   9.929  0.3345  0.2763  0.0636
   26POPI   C1A  357  17.989   5.379   9.474 -0.0648  0.0913 -0.4007
   26POPI   D2A  358  17.767   5.303   9.080 -0.2527 -0.2517 -0.2295
   26POPI   C3A  359  18.116   5.444   8.725  0.1963  0.0976 -0.0842
   26POPI   C4A  360  18.185   5.587   8.364  0.2138  0.2618  0.1138
   26POPI   C1B  361  18.507   5.677   9.894 -0.1655 -0.1313 -0.0820
   26POPI   C2B  362  18.894   5.785   9.826 -0.2878 -0.1318 -0.1146
   26POPI   C3B  363  19.268   5.770   9.612 -0.0892 -0.0867  0.0730
   26POPI   C4B  364  19.517   5.563   9.176 -0.2051  0.1110 -0.1433
   27POPI    C1  365   4.883  16.490  10.255  0.0113 -0.0858 -0.0583
   27POPI    C2  366   5.179  16.668  10.456 -0.0482 -0.1640  0.1010
   27POPI    C3  367   5.172  16.269  10.421  0.0458 -0.1427 -0.1926
   27POPI   PO4  368   4.774  16.502   9.953 -0.2268  0.0337 -0.1032
   27POPI   GL1  369   5.012  16.461   9.581 -0.2307 -0.2217  0.1213
   27POPI   GL2  370   4.898  16.154   9.548 -0.1101 -0.0655 -0.0693
   27POPI   C1A  371   4.825  16.472   9.165  0.0853 -0.1271  0.0502
   27POPI   D2A  372   4.733  16.615   8.728  0.0608 -0.0727 -0.0408
   27POPI   C3A  373   4.360  16.847   8.560  0.1772 -0.1669 -0.2529
   27POPI   C4A  374   4.352  17.223   8.387  0.1399 -0.2195  0.2448
   27POPI   C1B  375   4.584  15.794   9.537 -0.3882 -0.4790  0.0575
   27POPI   C2B  376   4.317  15.580   9.159  0.1628 -0.4038 -0.3562
   27POPI   C3B  377   4.125  15.396   8.938 -0.0415  0.0308 -0.1339
   27POPI   C4B  378   3.922  15.382   8.474 -0.1272 -0.3077 -0.0376
   28POPI    C1  379   1.232   4.243  10.184 -0.0186 -0.4348 -0.0579
   28POPI    C2  380   1.530   4.345  10.430 -0.0654 -0.1524 -0.1153
   28POPI    C3  381   1.594   4.082  10.137  0.1614 -0.0018 -0.2033
   28POPI   PO4  382   1.193   4.497  10.065  0.0373 -0.0462 -0.2761
   28POPI   GL1  383   1.207   4.790   9.826  0.0107 -0.1296 -0.0064
   28POPI   GL2  384   1.398   5.047   9.874 -0.2239 -0.0352  0.0256
   28POPI   C1A  385   1.530   4.528   9.474 -0.2920 -0.0346  0.1280
   28POPI   D2A  386   1.749   4.364   9.154  0.3104 -0.3672 -0.0526
   28POPI   C3A  387   1.871   4.370   8.731 -0.1070 -0.0447  0.0478
   28POPI   C4A  388   2.020   4.504   8.396  0.0114  0.0091  0.0680
   28POPI   C1B  389   1.627   5.064   9.477  0.1448 -0.0276 -0.0702
   28POPI   C2B  390   1.646   4.965   9.046 -0.0747  0.1007 -0.1029
   28POPI   C3B  391   1.355   4.599   8.901 -0.2751 -0.2105  0.4802
   28POPI   C4B  392   1.500   4.541   8.502  0.3384  0.2872  0.2183
   29POPI    C1  393   8.158   1.896  10.374 -0.0611 -0.1279  0.0896
   29POPI    C2  394   8.377   1.784  10.059 -0.1275 -0.1702  0.0582
   29POPI    C3  395   8.461   1.639  10.422  0.1808  0.1589  0.1236
   29POPI   PO4  396   7.890   2.085  10.084  0.0970 -0.1524 -0.1874
   29POPI   GL1  397   8.019   2.192   9.715 -0.0131 -0.1038  0.2340
   29POPI   GL2  398   8.099   1.874   9.667  0.0479 -0.2898 -0.1736
   29POPI   C1A  399   8.087   2.223   9.328  0.0545 -0.0873  0.0244
   29POPI   D2A  400   7.838   2.182   9.065 -0.3130 -0.4197 -0.1065
   29POPI   C3A  401   7.866   2.321   8.650 -0.1433 -0.2324  0.1363
   29POPI   C4A  402   7.852   2.032   8.338 -0.0203  0.1209  0.0912
   29POPI   C1B  403   7.951   1.791   9.302  0.0634 -0.0133  0.0962
   29POPI   C2B  404   7.772   1.399   9.088 -0.4742  0.0825 -0.0593
   29POPI   C3B  405   7.434   1.275   8.846 -0.2573  0.2685  0.3314
   29POPI   C4B  406   7.077   1.235   8.593 -0.1059 -0.1921  0.0703
   30POPI    C1  407   4.661  13.151   9.681 -0.1503 -0.0728 -0.0641
   30POPI    C2  408   4.555  12.767   9.648  0.2471 -0.2175  0.2608
   30POPI    C3  409   4.745  12.894   9.976  0.0511  0.2777  0.1909
   30POPI   PO4  410   4.860  13.145   9.429 -0.1471  0.1448 -0.2224
   30POPI   GL1  411   4.805  13.092   8.991  0.0827  0.1425  0.1735
   30POPI   GL2  412   4.538  13.424   8.901  0.2053  0.2604  0.1874
   30POPI   C1A  413   4.831  13.207   8.594  0.1546 -0.1970 -0.0340
   30POPI   D2A  414   4.750  13.373   8.163 -0.1546  0.0039 -0.1223
   30POPI   C3A  415   4.608  13.060   8.042 -0.1271  0.0932  0.0969
   30POPI   C4A  416   4.366  12.654   7.917  0.4970 -0.0861  0.0554
   30POPI   C1B  417   4.543  13.679   8.497 -0.3406  0.2028 -0.3645
   30POPI   C2B  418   4.611  13.873   8.016 -0.0003  0.0732 -0.1237
   30POPI   C3B  419   4.629  13.864   7.581 -0.0613  0.0703 -0.0554
   30POPI   C4B  420   4.740  13.735   7.246  0.0971  0.0203  0.2132
   31POPI    C1  421   3.560   5.795  10.350  0.4602 -0.0833 -0.1210
   31POPI    C2  422   3.293   5.572  10.547 -0.0342  0.4513 -0.1568
   31POPI    C3  423   3.563   5.786  10.750  0.2553  0.0577 -0.1145
   31POPI   PO4  424   3.658   5.727  10.114 -0.4417  0.0693  0.1996
   31POPI   GL1  425   3.767   5.477   9.753  0.2658 -0.0609 -0.0369
   31POPI   GL2  426   3.435   5.447   9.702 -0.1547  0.2670  0.0165
   31POPI   C1A  427   3.840   5.399   9.376  0.0716 -0.0175 -0.3164
   31POPI   D2A  428   3.835   4.913   9.226 -0.0438 -0.0113  0.0476
   31POPI   C3A  429   4.091   4.617   9.287  0.0701  0.1212 -0.1586
   31POPI   C4A  430   4.005   4.233   9.074  0.2359 -0.0966  0.0054
   31POPI   C1B  431   3.397   5.592   9.384  0.2893  0.1539 -0.1858
   31POPI   C2B  432   3.422   5.649   8.943 -0.4927  0.1700  0.1513
   31POPI   C3B  433   3.251   5.796   8.548  0.2840  0.0383 -0.0450
   31POPI   C4B  434   3.222   5.555   8.186  0.3529 -0.2603 -0.0711
   32POPI    C1  435   6.856   4.889  10.135  0.1508  0.0471 -0.1469
   32POPI    C2  436   7.080   5.052  10.423  0.3872  0.1765 -0.3992
   32POPI    C3  437   6.682   5.088  10.435  0.3828  0.0475 -0.0102
   32POPI   PO4  438   6.990   5.013   9.887  0.0752 -0.2551 -0.0324
   32POPI   GL1  439   6.963   4.893   9.442 -0.2387 -0.1496 -0.1228
   32POPI   GL2  440   6.900   4.614   9.412 -0.0476  0.1919 -0.4720
   32POPI   C1A  441   7.088   5.077   9.100 -0.2168  0.1845 -0.0723
   32POPI   D2A  442   7.239   5.047   8.756  0.1020 -0.1820 -0.0170
   32POPI   C3A  443   7.472   4.850   8.433 -0.0419 -0.1675 -0.0323
   32POPI   C4A  444   7.449   4.752   8.033  0.0431  0.2682  0.1375
   32POPI   C1B  445   7.063   4.633   8.944 -0.3568 -0.1919 -0.2916
   32POPI   C2B  446   6.992   4.640   8.557 -0.1656 -0.2981 -0.1313
   32POPI   C3B  447   6.986   4.620   8.188 -0.1730 -0.0838 -0.0010
   32POPI   C4B  448   7.093   4.723   7.720  0.0473  0.4697 -0.2539
   33POPI    C1  449   1.432   5.637  10.436 -0.0440  0.1363 -0.1981
   33POPI    C2  450   1.080   5.455  10.381 -0.0054  0.0091 -0.0286
   33POPI    C3  451   1.174   5.604  10.740  0.1317  0.0043 -0.0621
   33POPI   PO4  452   1.609   5.418  10.246 -0.0794 -0.2183 -0.1319
   33POPI   GL1  453   1.933   5.391  10.072 -0.1808  0.0088 -0.0736
   33POPI   GL2  454   1.953   5.104   9.997  0.1588  0.1768 -0.1072
   33POPI   C1A  455   1.955   5.441   9.549  0.2786 -0.0351 -0.2066
   33POPI   D2A  456   2.081   5.286   9.168 -0.2105  0.1401 -0.0193
   33POPI   C3A  457   1.929   5.464   8.758 -0.3347 -0.0653 -0.2822
   33POPI   C4A  458   1.628   5.520   8.422  0.0357 -0.3298 -0.0007
   33POPI   C1B  459   2.114   4.959   9.673 -0.1935  0.2262 -0.0007
   33POPI   C2B  460   2.301   4.899   9.356 -0.0371  0.3718  0.2081
   33POPI   C3B  461   2.067   4.874   8.865  0.1270 -0.0108 -0.0350
   33POPI   C4B  462   1.815   4.975   8.519 -0.0924 -0.0863  0.2859
   34POPI    C1  463  17.777  13.295  10.642  0.1417 -0.0411  0.0437
   34POPI    C2  464  17.708  13.076  10.970  0.2873  0.1500  0.2047
   34POPI    C3  465  17.988  13.362  10.976  0.2403  0.2044 -0.0652
   34POPI   PO4  466  17.711  13.181  10.397  0.1421 -0.2382 -0.0843
   34POPI   GL1  467  17.844  13.008  10.027  0.0900  0.0777  0.2053
   34POPI   GL2  468  17.881  13.262   9.895 -0.1551  0.2505 -0.1304
   34POPI   C1A  469  17.507  12.895   9.740 -0.0849 -0.1773 -0.0808
   34POPI   D2A  470  17.130  12.847   9.484  0.0702 -0.0902 -0.0595
   34POPI   C3A  471  17.071  13.271   9.279  0.0225  0.1153 -0.0663
   34POPI   C4A  472  17.337  13.466   9.028 -0.0771 -0.2192 -0.4533
   34POPI   C1B  473  18.040  13.036   9.501  0.0400 -0.1369  0.2066
   34POPI   C2B  474  17.983  12.775   9.146  0.1269  0.2184  0.1417
   34POPI   C3B  475  17.860  12.690   8.800  0.0909 -0.0699  0.1440
   34POPI   C4B  476  17.426  12.433   8.699  0.2442 -0.0698 -0.0754
   35POPI    C1  477  16.824  17.517  10.382  0.0458  0.0892 -0.4482
   35POPI    C2  478  16.759  17.912  10.376 -0.1707  0.0600 -0.1807
   35POPI    C3  479  16.452  17.658  10.415  0.0277 -0.1059  0.4083
   35POPI   PO4  480  16.971  17.492  10.159  0.1689 -0.1977 -0.1015
   35POPI   GL1  481  17.021  17.399   9.765  0.0124 -0.1755 -0.2194
   35POPI   GL2  482  17.022  17.127   9.756  0.2465 -0.1773 -0.1290
   35POPI   C1A  483  16.772  17.647   9.441 -0.1121  0.2944  0.0456
   35POPI   D2A  484  16.586  17.722   9.093  0.1133  0.1731 -0.4239
   35POPI   C3A  485  16.538  17.491   8.704  0.0966 -0.1557 -0.1068
   35POPI   C4A  486  16.377  17.456   8.343 -0.1342  0.3523 -0.0668
   35POPI   C1B  487  16.974  17.175   9.335 -0.0379  0.2338 -0.4212
   35POPI   C2B  488  16.927  17.243   8.959 -0.1553 -0.1207 -0.0573
   35POPI   C3B  489  16.896  17.240   8.503  0.1082  0.1604  0.2035
   35POPI   C4B  490  17.168  17.276   8.309 -0.0952 -0.3136 -0.1148
   36POPI    C1  491  11.070  10.830  10.421 -0.1206  0.1095 -0.0256
   36POPI    C2  492  10.915  10.775  10.786  0.0458  0.1741  0.0560
   36POPI    C3  493  11.225  11.022  10.736 -0.0810  0.2939 -0.1560
   36POPI   PO4  494  11.233  10.616  10.359 -0.1111  0.1229  0.0542
   36POPI   GL1  495  11.196  10.312  10.049 -0.2128  0.0118  0.3881
   36POPI   GL2  496  11.420  10.579   9.914  0.0041  0.0287 -0.0968
   36POPI   C1A  497  10.896  10.192   9.765  0.3268  0.1496 -0.0078
   36POPI   D2A  498  10.776  10.192   9.375 -0.1149  0.1254  0.2398
   36POPI   C3A  499  11.003  10.343   9.034  0.3085 -0.0486 -0.0917
   36POPI   C4A  500  10.992  10.575   8.525 -0.0354  0.2080 -0.2016
   36POPI   C1B  501  11.314  10.441   9.553 -0.1466  0.0297  0.0460
   36POPI   C2B  502  11.236  10.053   9.334  0.1213 -0.0639  0.0080
   36POPI   C3B  503  11.335   9.771   8.998 -0.0747  0.2543  0.0250
   36POPI   C4B  504  11.112   9.500   8.785  0.0153 -0.2961  0.2880
   37POPI    C1  505   9.395  17.000   9.847 -0.0037  0.1921 -0.0103
   37POPI    C2  506   9.255  17.115  10.204 -0.0045  0.1908 -0.0101
   37POPI    C3  507   9.240  16.730  10.097 -0.0746  0.2025 -0.0428
   37POPI   PO4  508   9.269  17.111   9.701  0.0337  0.0899 -0.0713
   37POPI   GL1  509   9.363  17.331   9.381 -0.0444  0.0699  0.1394
   37POPI   GL2  510   9.234  17.401   9.105 -0.1126 -0.2256 -0.1858
   37POPI   C1A  511   9.706  17.258   9.100  0.2089  0.0982 -0.1843
   37POPI   D2A  512   9.453  17.254   8.646  0.3256  0.0957 -0.1152
   37POPI   C3A  513   9.632  17.180   8.332  0.0570  0.0116  0.2607
   37POPI   C4A  514   9.702  17.121   7.857  0.2135  0.1397 -0.0496
   37POPI   C1B  515   8.981  17.399   8.695 -0.1590 -0.0492  0.3857
   37POPI   C2B  516   9.128  17.339   8.260 -0.0959 -0.3271 -0.1043
   37POPI   C3B  517   9.191  17.131   7.812  0.2024  0.1268  0.0793
   37POPI   C4B  518   9.363  16.973   7.488 -0.1779  0.1460  0.0060
   38POPI    C1  519   7.613  14.125  10.014  0.0023 -0.0592 -0.0800
   38POPI    C2  520   7.729  13.752   9.926  0.1732  0.0065 -0.1386
   38POPI    C3  521   8.001  14.027  10.030  0.0330  0.0788  0.0423
   38POPI   PO4  522   7.417  14.159   9.782  0.2353 -0.1470 -0.3156
   38POPI   GL1  523   7.195  14.260   9.511 -0.2007 -0.3967 -0.1656
   38POPI   GL2  524   7.447  14.313   9.287 -0.0473 -0.3007  0.0170
   38POPI   C1A  525   6.941  14.276   9.175  0.0006 -0.0091  0.1493
   38POPI   D2A  526   6.620  14.332   8.772  0.2383  0.0154 -0.0292
   38POPI   C3A  527   6.778  14.402   8.369 -0.0725 -0.0807  0.2785
   38POPI   C4A  528   7.019  14.658   8.069 -0.3414  0.1821 -0.2808
   38POPI   C1B  529   7.616  14.306   8.855 -0.0946  0.2543 -0.3052
   38POPI   C2B  530   7.953  14.411   8.583  0.3585  0.0574 -0.0908
   38POPI   C3B  531   8.209  14.676   8.528  0.0153 -0.0438 -0.1344
   38POPI   C4B  532   8.246  15.044   8.712  0.0101 -0.0158 -0.4231
   39POPI    C1  533   9.820  15.143  10.168 -0.3277  0.1004 -0.0820
   39POPI    C2  534   9.457  15.113  10.332 -0.2081 -0.3509  0.1157
   39POPI    C3  535   9.562  14.869  10.033 -0.1036 -0.1490 -0.0144
   39POPI   PO4  536   9.813  15.415  10.060  0.2058  0.1466 -0.5689
   39POPI   GL1  537   9.764  15.468   9.661 -0.0317 -0.1593  0.1467
   39POPI   GL2  538  10.005  15.083   9.671 -0.0850 -0.2212 -0.0036
   39POPI   C1A  539   9.492  15.224   9.326  0.0825 -0.2455 -0.1990
   39POPI   D2A  540   9.253  14.832   9.200  0.0461  0.0739 -0.0519
   39POPI   C3A  541   9.099  14.866   8.919 -0.1577 -0.0737 -0.0734
   39POPI   C4A  542   8.836  15.134   8.706  0.1065 -0.1101 -0.1701
   39POPI   C1B  543  10.290  15.291   9.427 -0.0987 -0.4297 -0.0098
   39POPI   C2B  544  10.446  15.346   9.035  0.0316 -0.2409  0.0603
   39POPI   C3B  545  10.587  15.415   8.611  0.0934 -0.1179 -0.1419
   39POPI   C4B  546  10.562  15.572   8.150  0.2598  0.0231 -0.0139
   40POPI    C1  547   8.158   7.750  10.823  0.0362  0.0285 -0.0407
   40POPI    C2  548   8.090   7.564  11.171 -0.1673  0.0176 -0.0851
   40POPI    C3  549   7.885   7.895  11.078  0.2713  0.3339  0.0435
   40POPI   PO4  550   8.149   7.444  10.635  0.2798 -0.2543 -0.0246
   40POPI   GL1  551   8.050   7.343  10.236 -0.2534 -0.1230 -0.0326
   40POPI   GL2  552   8.412   7.457  10.158  0.0476  0.2898  0.1785
   40POPI   C1A  553   8.039   7.678   9.910  0.0255  0.1769 -0.1766
   40POPI   D2A  554   8.015   7.902   9.360  0.0406 -0.0446  0.0154
   40POPI   C3A  555   8.194   8.017   9.008  0.5290 -0.1326 -0.1875
   40POPI   C4A  556   8.539   7.880   8.723 -0.2335  0.2584  0.1095
   40POPI   C1B  557   8.466   7.617   9.651 -0.1610  0.1379 -0.0055
   40POPI   C2B  558   8.588   7.776   9.340  0.2220  0.2001 -0.1151
   40POPI   C3B  559   8.866   8.097   9.181 -0.1439 -0.1590 -0.3328
   40POPI   C4B  560   9.155   8.413   9.173  0.0907  0.1299  0.0815
   41POPI    C1  561  16.915  12.267  10.755 -0.0008  0.0555 -0.0882
   41POPI    C2  562  16.870  12.646  10.875  0.1167  0.0127  0.0950
   41POPI    C3  563  17.142  12.556  10.596  0.1176  0.0574  0.0811
   41POPI   PO4  564  16.715  12.212  10.694  0.1197 -0.0258  0.0970
   41POPI   GL1  565  16.513  12.373  10.372 -0.2906 -0.2382  0.0277
   41POPI   GL2  566  16.762  12.467  10.222 -0.3481 -0.2887 -0.2139
   41POPI   C1A  567  16.218  12.091  10.159  0.0617  0.1318  0.0090
   41POPI   D2A  568  16.002  12.079   9.719 -0.0794 -0.1668 -0.3393
   41POPI   C3A  569  15.584  11.941   9.706  0.0200 -0.2527 -0.1518
   41POPI   C4A  570  15.286  11.603   9.568 -0.0071 -0.1295  0.2101
   41POPI   C1B  571  16.806  12.643   9.847  0.0589  0.1111  0.4095
   41POPI   C2B  572  16.636  12.681   9.392  0.0428 -0.0138 -0.0647
   41POPI   C3B  573  16.262  12.831   9.170 -0.0062  0.2442 -0.2812
   41POPI   C4B  574  16.157  13.157   8.764  0.0288  0.1131  0.1551
   42POPI    C1  575   6.077   8.745  10.002  0.0940 -0.2858  0.1455
   42POPI    C2  576   5.749   8.746  10.231  0.1157 -0.1071  0.1770
   42POPI    C3  577   5.763   8.971   9.900  0.1439 -0.2435  0.0850
   42POPI   PO4  578   6.086   8.439   9.975  0.1212  0.1335  0.1558
   42POPI   GL1  579   6.046   8.298   9.602 -0.1866  0.5038  0.0972
   42POPI   GL2  580   5.955   8.607   9.507 -0.2013  0.2880  0.0995
   42POPI   C1A  581   6.083   8.302   9.182 -0.3497 -0.0022 -0.0856
   42POPI   D2A  582   6.039   8.447   8.836 -0.3499  0.2695 -0.2882
   42POPI   C3A  583   6.371   8.463   8.563 -0.0320 -0.0560  0.1472
   42POPI   C4A  584   6.581   8.134   8.225 -0.2305 -0.1982 -0.0029
   42POPI   C1B  585   6.089   8.775   9.200  0.0100  0.1806 -0.2936
   42POPI   C2B  586   6.102   8.940   8.736 -0.1632 -0.1815  0.0684
   42POPI   C3B  587   6.422   8.991   8.405  0.1693  0.1145 -0.0441
   42POPI   C4B  588   6.514   9.082   8.010 -0.1464  0.4836  0.0259
   43POPI    C1  589  11.844   6.228  10.362 -0.0921  0.0302  0.1362
   43POPI    C2  590  11.729   6.025  10.037 -0.2119  0.4764 -0.1089
   43POPI    C3  591  11.460   6.228  10.251 -0.0890  0.4070  0.1145
   43POPI   PO4  592  12.109   6.360  10.242 -0.0276  0.0170 -0.2170
   43POPI   GL1  593  11.993   6.444   9.826  0.0574  0.0580 -0.0135
   43POPI   GL2  594  12.313   6.489   9.773 -0.0760  0.1084  0.1405
   43POPI   C1A  595  11.739   6.272   9.603 -0.0064 -0.1787 -0.0815
   43POPI   D2A  596  11.489   6.129   9.398 -0.2113  0.2871 -0.3929
   43POPI   C3A  597  11.348   5.765   9.215 -0.3444  0.2378  0.2009
   43POPI   C4A  598  11.500   5.580   8.884  0.0933 -0.0822 -0.0133
   43POPI   C1B  599  12.132   6.635   9.391  0.2238  0.0415 -0.0870
   43POPI   C2B  600  12.112   6.384   9.109 -0.0870 -0.0319  0.2552
   43POPI   C3B  601  12.393   6.060   8.963 -0.0094 -0.1343  0.0464
   43POPI   C4B  602  12.735   6.136   8.819  0.0195 -0.2223  0.1485
   44POPI    C1  603   7.406  13.311   9.734  0.0249  0.2699  0.1283
   44POPI    C2  604   7.776  13.410   9.618  0.0029  0.0762 -0.1168
   44POPI    C3  605   7.717  13.238   9.974  0.1836 -0.1394 -0.1890
   44POPI   PO4  606   7.331  13.190   9.475 -0.2460  0.0791  0.4126
   44POPI   GL1  607   7.645  13.109   9.180  0.1099 -0.0712  0.0274
   44POPI   GL2  608   7.466  13.459   9.077  0.3249  0.2839 -0.1545
   44POPI   C1A  609   7.784  12.907   8.803  0.1114 -0.1889 -0.1429
   44POPI   D2A  610   8.129  12.544   8.599 -0.2183 -0.2631  0.2484
   44POPI   C3A  611   8.013  12.268   8.250 -0.2859  0.0772 -0.0175
   44POPI   C4A  612   7.954  11.887   8.203 -0.1604  0.0373  0.1970
   44POPI   C1B  613   7.151  13.318   8.862 -0.1547  0.0059 -0.0210
   44POPI   C2B  614   7.161  13.455   8.499 -0.1571 -0.1183 -0.0760
   44POPI   C3B  615   7.199  13.415   8.109 -0.0583  0.0217  0.3708
   44POPI   C4B  616   7.102  13.207   7.831  0.0132  0.3193 -0.2543
   45POPI    C1  617   5.382   0.739   9.995 -0.1731 -0.0572  0.0876
   45POPI    C2  618   5.276   0.620  10.362  0.0406  0.3231  0.2801
   45POPI    C3  619   5.340   1.008  10.289  0.2888  0.2181 -0.0867
   45POPI   PO4  620   5.240   0.685   9.818 -0.0006 -0.0540  0.0298
   45POPI   GL1  621   4.761   0.763   9.824  0.3200 -0.4412  0.1181
   45POPI   GL2  622   4.501   0.773  10.089 -0.0732 -0.3084 -0.1423
   45POPI   C1A  623   4.399   0.882   9.514  0.0891  0.0628 -0.1129
   45POPI   D2A  624   4.330   0.929   9.107 -0.1578 -0.2675 -0.1809
   45POPI   C3A  625   4.134   0.641   8.772  0.1700 -0.2084  0.0094
   45POPI   C4A  626   3.701   0.614   8.700  0.2334 -0.2453 -0.2302
   45POPI   C1B  627   4.069   0.774   9.952 -0.2152  0.1860 -0.0030
   45POPI   C2B  628   3.950   0.656   9.584 -0.4197  0.0972 -0.2722
   45POPI   C3B  629   3.840   0.876   9.204  0.6606  0.2854  0.0357
   45POPI   C4B  630   3.595   1.110   8.752  0.1246  0.3694  0.1374
   46POPI    C1  631  14.287   3.348  10.113 -0.0171  0.2235 -0.1861
   46POPI    C2  632  14.522   3.506  10.395  0.0431  0.1621 -0.2015
   46POPI    C3  633  14.155   3.653  10.335  0.0593  0.2265 -0.1444
   46POPI   PO4  634  14.313   3.076  10.150 -0.4400 -0.2071  0.0353
   46POPI   GL1  635  14.565   2.880   9.841 -0.2137 -0.3601 -0.3858
   46POPI   GL2  636  14.663   3.113   9.691  0.0518 -0.0910 -0.3844
   46POPI   C1A  637  14.339   2.766   9.427  0.2458  0.1008  0.1074
   46POPI   D2A  638  14.236   2.597   9.051 -0.2007  0.3273 -0.0562
   46POPI   C3A  639  13.978   2.780   8.774 -0.0996  0.0601 -0.2707
   46POPI   C4A  640  13.913   2.755   8.331 -0.1465  0.0291  0.1131
   46POPI   C1B  641  14.581   3.161   9.241 -0.2407  0.3111 -0.1237
   46POPI   C2B  642  14.382   3.094   8.810 -0.1460  0.2293 -0.0893
   46POPI   C3B  643  14.061   3.223   8.513  0.2590 -0.0145 -0.0941
   46POPI   C4B  644  13.723   3.473   8.406  0.0367  0.2750  0.1040
   47POPI    C1  645   0.091  11.970  10.193  0.0791 -0.1471  0.2450
   47POPI    C2  646   0.486  11.923  10.146  0.0914  0.2139 -0.0594
   47POPI    C3  647   0.345  12.237  10.349 -0.0400  0.0250  0.1465
   47POPI   PO4  648   0.035  11.856   9.963 -0.1036 -0.4969  0.1606
   47POPI   GL1  649   0.062  12.104   9.655 -0.0434  0.0571  0.1035
   47POPI   GL2  650   0.261  12.286   9.848 -0.0698  0.0198  0.1535
   47POPI   C1A  651  -0.068  11.981   9.196  0.4021 -0.0480 -0.0256
   47POPI   D2A  652  -0.171  12.003   8.865  0.1769 -0.0262 -0.0439
   47POPI   C3A  653  -0.515  12.048   8.890 -0.0710 -0.0406 -0.0032
   47POPI   C4A  654  -0.684  12.284   9.071  0.1487  0.0250 -0.1018
   47POPI   C1B  655   0.322  12.501   9.487 -0.3404  0.0542 -0.3897
   47POPI   C2B  656   0.251  12.444   9.038  0.2752 -0.1375  0.0733
   47POPI   C3B  657   0.117  12.246   8.543 -0.1151  0.2207  0.3607
   47POPI   C4B  658   0.343  12.107   8.197 -0.2565  0.1243  0.2267
   48POPI    C1  659  14.971  12.308  11.057  0.1222 -0.2724 -0.1241
   48POPI    C2  660  14.631  12.437  10.890  0.0580 -0.0049  0.2037
   48POPI    C3  661  14.618  12.186  11.201  0.1617 -0.0177  0.1981
   48POPI   PO4  662  15.126  12.227  10.797 -0.1592  0.2746  0.0133
   48POPI   GL1  663  15.311  12.278  10.440  0.1490 -0.0826  0.1110
   48POPI   GL2  664  15.323  12.584  10.420  0.0283  0.2298 -0.0772
   48POPI   C1A  665  15.222  12.256   9.947  0.0354 -0.0703  0.0169
   48POPI   D2A  666  15.149  12.230   9.544  0.1491 -0.0306  0.3187
   48POPI   C3A  667  15.137  12.686   9.474  0.2774 -0.0289  0.1935
   48POPI   C4A  668  14.888  13.024   9.509  0.0183  0.1046  0.2346
   48POPI   C1B  669  15.422  12.764  10.023  0.2356  0.1234  0.0187
   48POPI   C2B  670  15.656  12.480   9.652  0.2356  0.2147 -0.1659
   48POPI   C3B  671  15.586  12.250   9.317  0.1917 -0.0511  0.3273
   48POPI   C4B  672  15.610  12.254   8.897  0.4929 -0.0440 -0.1417
   49POPI    C1  673  15.278   2.591   9.954 -0.0071 -0.0511 -0.0805
   49POPI    C2  674  15.529   2.850  10.126  0.0874 -0.1318 -0.0959
   49POPI    C3  675  15.659   2.611   9.833  0.0024 -0.2014 -0.0772
   49POPI   PO4  676  15.086   2.820   9.915  0.1980  0.2181 -0.1531
   49POPI   GL1  677  15.164   3.027   9.490  0.3209  0.1813 -0.0643
   49POPI   GL2  678  15.483   3.064   9.642 -0.3566  0.2257  0.3310
   49POPI   C1A  679  15.088   3.169   9.127  0.0255  0.0832  0.1176
   49POPI   D2A  680  15.027   3.015   8.731  0.0220 -0.1097  0.0440
   49POPI   C3A  681  15.086   2.664   8.634 -0.1135  0.4151 -0.0486
   49POPI   C4A  682  15.077   2.345   8.329 -0.1205 -0.2667 -0.1883
   49POPI   C1B  683  15.603   3.292   9.218 -0.1672 -0.1670  0.0042
   49POPI   C2B  684  15.930   3.383   8.838 -0.0319 -0.1494  0.0971
   49POPI   C3B  685  16.268   3.272   8.523 -0.2100  0.1509 -0.0049
   49POPI   C4B  686  16.405   3.451   8.131  0.1201  0.2522  0.0257
   50POPI    C1  687  11.037   4.736  10.591 -0.1795 -0.0426  0.1844
   50POPI    C2  688  10.976   5.118  10.692 -0.1911 -0.0458  0.1896
   50POPI    C3  689  11.107   4.858  10.965  0.1700  0.0338  0.0978
   50POPI   PO4  690  11.246   4.697  10.436 -0.2721 -0.1257  0.2842
   50POPI   GL1  691  11.432   4.717   9.922 -0.3929 -0.0864  0.0510
   50POPI   GL2  692  11.155   4.763   9.683  0.1822  0.1710  0.1544
   50POPI   C1A  693  11.635   4.774   9.521  0.1599 -0.0913 -0.2767
   50POPI   D2A  694  11.800   4.874   9.070  0.0332 -0.1204  0.2166
   50POPI   C3A  695  12.149   5.045   8.932 -0.4720  0.0570  0.2710
   50POPI   C4A  696  12.341   5.240   8.570  0.3042  0.2354 -0.2128
   50POPI   C1B  697  10.948   4.647   9.298  0.0181 -0.1698 -0.2489
   50POPI   C2B  698  10.931   4.474   8.956  0.0464  0.0177  0.1418
   50POPI   C3B  699  11.261   4.379   8.649 -0.0583 -0.3180  0.1105
   50POPI   C4B  700  11.358   4.013   8.455  0.0037 -0.1541  0.2850
   51POPI    C1  701   9.771  10.763  10.195 -0.1702 -0.1224 -0.1103
   51POPI    C2  702   9.526  10.559  10.435  0.1338 -0.4687 -0.0851
   51POPI    C3  703   9.904  10.625  10.546 -0.0745  0.5361  0.1278
   51POPI   PO4  704   9.741  10.677   9.964 -0.3727 -0.5833  0.3757
   51POPI   GL1  705   9.848  10.245   9.768  0.0845 -0.1282 -0.2494
   51POPI   GL2  706   9.496  10.284   9.849 -0.1784  0.0868  0.1983
   51POPI   C1A  707  10.013  10.227   9.314 -0.0439  0.1012  0.0911
   51POPI   D2A  708  10.432  10.341   9.051 -0.1514 -0.4247  0.1485
   51POPI   C3A  709  10.642  10.178   8.747 -0.1718 -0.1869 -0.4515
   51POPI   C4A  710  10.931   9.944   8.657 -0.1665  0.1298 -0.0497
   51POPI   C1B  711   9.520  10.246   9.358 -0.1545 -0.0596 -0.0152
   51POPI   C2B  712   9.466  10.242   8.852  0.3035  0.0194 -0.1648
   51POPI   C3B  713   9.250  10.386   8.470 -0.0193 -0.2904  0.2550
   51POPI   C4B  714   8.979  10.257   8.122 -0.2493  0.1740 -0.0935
   52POPI    C1  715  10.027   0.956   9.884 -0.0098 -0.2211 -0.3431
   52POPI    C2  716  10.072   0.593  10.046 -0.1000 -0.0976 -0.0340
   52POPI    C3  717  10.353   0.873  10.100 -0.2258  0.0076  0.0835
   52POPI   PO4  718   9.717   0.944   9.880 -0.0307  0.0585 -0.0311
   52POPI   GL1  719   9.519   0.999   9.462 -0.0239  0.4287  0.1527
   52POPI   GL2  720   9.462   1.279   9.521 -0.2891  0.0364 -0.0476
   52POPI   C1A  721   9.785   0.748   9.228 -0.0916 -0.0114 -0.3052
   52POPI   D2A  722   9.883   0.345   8.902  0.0732 -0.0340  0.0010
   52POPI   C3A  723   9.901   0.317   8.515  0.1000 -0.0294 -0.0500
   52POPI   C4A  724   9.526   0.367   8.118 -0.3339 -0.0741  0.0916
   52POPI   C1B  725   9.490   1.570   9.246 -0.0718 -0.0644 -0.1288
   52POPI   C2B  726   9.539   1.545   8.990  0.3621 -0.1763  0.1723
   52POPI   C3B  727   9.628   1.593   8.637 -0.0416  0.0213  0.1617
   52POPI   C4B  728   9.767   1.784   8.213  0.1125  0.0154 -0.1176
   53POPI    C1  729   2.218  13.484  10.132  0.1509 -0.2137 -0.0328
   53POPI    C2  730   2.200  13.464  10.531  0.1838  0.2005 -0.0065
   53POPI    C3  731   1.881  13.587  10.323  0.1252 -0.1349 -0.1199
   53POPI   PO4  732   2.343  13.129  10.059 -0.1244 -0.1244 -0.0800
   53POPI   GL1  733   2.521  12.902   9.636 -0.0904  0.0744  0.5208
   53POPI   GL2  734   2.458  12.526   9.579 -0.2683 -0.0833  0.1743
   53POPI   C1A  735   2.282  12.859   9.249  0.0214  0.2250 -0.1497
   53POPI   D2A  736   2.053  13.006   8.865  0.2882 -0.0400 -0.0045
   53POPI   C3A  737   2.138  13.289   8.529  0.3014  0.1224 -0.0989
   53POPI   C4A  738   2.313  13.258   8.090  0.0463  0.1496 -0.0495
   53POPI   C1B  739   2.183  12.339   9.283 -0.2442 -0.0684  0.2745
   53POPI   C2B  740   2.118  12.474   8.850  0.2154 -0.0328  0.1745
   53POPI   C3B  741   1.920  12.676   8.442  0.0167 -0.1515 -0.0775
   53POPI   C4B  742   1.768  12.995   8.223 -0.0961 -0.0669  0.0055
   54POPI    C1  743  11.589  17.379  10.051  0.1579 -0.3195  0.0102
   54POPI    C2  744  11.383  17.037  10.062 -0.1544 -0.1349  0.0089
   54POPI    C3  745  11.662  17.111  10.338  0.0625 -0.4784 -0.1123
   54POPI   PO4  746  11.608  17.417   9.804 -0.1236  0.1175 -0.0494
   54POPI   GL1  747  11.782  17.114   9.520 -0.1138 -0.0997  0.1397
   54POPI   GL2  748  11.497  16.948   9.643 -0.0591  0.0993  0.1803
   54POPI   C1A  749  11.710  17.314   9.205  0.0222  0.1427  0.0885
   54POPI   D2A  750  11.706  17.252   8.785  0.1113  0.2914  0.1369
   54POPI   C3A  751  11.573  17.442   8.427 -0.0785  0.1207 -0.3011
   54POPI   C4A  752  11.752  17.742   8.147  0.1788  0.0348  0.0156
   54POPI   C1B  753  11.331  16.914   9.285 -0.0631 -0.1882  0.1559
   54POPI   C2B  754  11.326  16.908   8.923 -0.1347  0.1633  0.1211
   54POPI   C3B  755  11.439  16.925   8.474 -0.0756  0.1041 -0.2550
   54POPI   C4B  756  11.354  16.868   8.128 -0.2919  0.0350  0.0022
   55POPI    C1  757  17.133   8.378  10.417  0.0595 -0.3383  0.0034
   55POPI    C2  758  17.469   8.590  10.364 -0.1461 -0.0132 -0.0312
   55POPI    C3  759  17.434   8.345  10.678  0.1014 -0.0085  0.0016
   55POPI   PO4  760  17.029   8.477  10.145 -0.0888  0.0412 -0.0912
   55POPI   GL1  761  17.286   8.586   9.778 -0.1322  0.2265  0.0920
   55POPI   GL2  762  17.308   8.849   9.937 -0.0230 -0.0915 -0.1313
   55POPI   C1A  763  17.797   8.802   9.534  0.0244 -0.0743 -0.0027
   55POPI   D2A  764  18.011   9.060   9.154 -0.2610 -0.5016  0.4275
   55POPI   C3A  765  18.237   8.822   8.768  0.2185 -0.0640 -0.1037
   55POPI   C4A  766  18.121   8.349   8.630  0.0531  0.5132  0.2661
   55POPI   C1B  767  17.194   8.965   9.503 -0.2685  0.0137  0.3043
   55POPI   C2B  768  17.133   9.219   9.206  0.1793  0.1797  0.2177
   55POPI   C3B  769  17.186   9.282   8.836  0.1335  0.0425  0.2786
   55POPI   C4B  770  17.117   9.339   8.377 -0.0093 -0.2707  0.0685
   56POPI    C1  771  18.207  13.056  10.303 -0.0344  0.0172  0.0408
   56POPI    C2  772  18.106  13.441  10.269 -0.0608  0.0228  0.1789
   56POPI    C3  773  18.282  13.309  10.603 -0.2291 -0.1239  0.2111
   56POPI   PO4  774  18.376  13.048  10.062 -0.0247 -0.1053 -0.3872
   56POPI   GL1  775  18.448  13.329   9.689  0.1894 -0.3303 -0.2705
   56POPI   GL2  776  18.357  13.581   9.864  0.0137 -0.2121  0.1315
   56POPI   C1A  777  18.394  13.351   9.305  0.0247  0.3041 -0.1282
   56POPI   D2A  778  18.285  13.649   9.059  0.2875 -0.0596  0.2317
   56POPI   C3A  779  18.441  13.683   8.617 -0.1983 -0.0988  0.1688
   56POPI   C4A  780  18.668  13.934   8.413 -0.0279 -0.1269 -0.1613
   56POPI   C1B  781  18.342  13.879   9.487 -0.2932  0.0511 -0.0079
   56POPI   C2B  782  18.497  14.092   9.123  0.3471  0.0560 -0.0292
   56POPI   C3B  783  18.511  14.447   8.883  0.1707  0.2375 -0.0041
   56POPI   C4B  784  18.506  14.399   8.437 -0.1514 -0.0199  0.0495
   57POPI    C1  785  12.277   4.997  10.342  0.1876 -0.1447 -0.0118
   57POPI    C2  786  12.619   4.792  10.377  0.1740 -0.1867 -0.1230
   57POPI    C3  787  12.276   4.632  10.505  0.1855 -0.1731 -0.0751
   57POPI   PO4  788  12.339   5.309  10.285 -0.0478  0.0071  0.2220
   57POPI   GL1  789  12.367   5.599   9.980 -0.1161  0.0499 -0.2124
   57POPI   GL2  790  12.454   5.946   9.968  0.0885 -0.2510  0.3519
   57POPI   C1A  791  12.010   5.716   9.730 -0.1487 -0.2175 -0.3374
   57POPI   D2A  792  11.641   5.672   9.640  0.0717 -0.1413  0.0130
   57POPI   C3A  793  11.275   5.987   9.796  0.3218  0.3282 -0.0172
   57POPI   C4A  794  11.141   6.365   9.735 -0.0151 -0.0718  0.4849
   57POPI   C1B  795  12.270   6.075   9.500 -0.2602  0.3356  0.1910
   57POPI   C2B  796  11.963   5.945   9.251 -0.0497 -0.1606  0.1227
   57POPI   C3B  797  11.702   6.037   8.906  0.2320  0.2698 -0.1793
   57POPI   C4B  798  11.419   6.001   8.607 -0.1848 -0.3758  0.0166
   58POPI    C1  799  12.012   7.431  10.447 -0.2547 -0.0828  0.3316
   58POPI    C2  800  12.051   7.829  10.449 -0.1078 -0.0920 -0.0324
   58POPI    C3  801  11.748   7.659  10.252 -0.2129 -0.1593  0.1846
   58POPI   PO4  802  12.229   7.280  10.285 -0.2154 -0.1655 -0.2532
   58POPI   GL1  803  12.090   7.247   9.892 -0.0074  0.1789 -0.0262
   58POPI   GL2  804  11.825   7.418   9.845  0.0872 -0.2966  0.1338
   58POPI   C1A  805  11.839   6.963   9.570 -0.1512 -0.0302 -0.0314
   58POPI   D2A  806  11.496   6.704   9.364 -0.0407  0.1698 -0.1391
   58POPI   C3A  807  11.477   6.942   8.985  0.1724 -0.0808 -0.3251
   58POPI   C4A  808  11.246   6.875   8.683 -0.1399 -0.1577 -0.0028
   58POPI   C1B  809  11.778   7.492   9.356  0.1523  0.0214 -0.2075
   58POPI   C2B  810  11.548   7.412   8.995 -0.2381 -0.1026  0.0097
   58POPI   C3B  811  11.776   7.155   8.616  0.0123 -0.0009 -0.0345
   58POPI   C4B  812  12.035   7.307   8.280 -0.1299 -0.0216 -0.0863
   59POPI    C1  813  17.326   6.272  10.586 -0.1159 -0.1792  0.0107
   59POPI    C2  814  17.523   6.022  10.828  0.1000 -0.0756 -0.0562
   59POPI    C3  815  17.713   6.333  10.663 -0.1485  0.0927 -0.0306
   59POPI   PO4  816  17.204   6.077  10.356 -0.1788  0.0735 -0.2237
   59POPI   GL1  817  17.212   6.067   9.962 -0.0875  0.3010  0.2169
   59POPI   GL2  818  17.278   6.204   9.714  0.0661 -0.0815 -0.1581
   59POPI   C1A  819  16.805   5.974   9.801 -0.0270 -0.1242  0.2961
   59POPI   D2A  820  16.395   6.012   9.545  0.1962 -0.2282  0.0704
   59POPI   C3A  821  16.241   6.384   9.395  0.2569 -0.0969  0.3096
   59POPI   C4A  822  15.997   6.513   9.033  0.0794 -0.1609 -0.0963
   59POPI   C1B  823  17.176   5.915   9.398 -0.0539 -0.4189 -0.2109
   59POPI   C2B  824  16.757   5.927   9.194  0.0524  0.2752  0.3339
   59POPI   C3B  825  16.380   5.940   8.996 -0.2351 -0.0094  0.0543
   59POPI   C4B  826  16.062   6.082   8.708 -0.2944  0.0474 -0.0885
   60POPI    C1  827  13.121   1.834  10.236 -0.0459 -0.0848 -0.0201
   60POPI    C2  828  13.188   1.728  10.616 -0.2185 -0.0340  0.0254
   60POPI    C3  829  12.898   1.990  10.530 -0.0307  0.1287 -0.1204
   60POPI   PO4  830  13.051   1.639  10.112  0.1170 -0.0186  0.2894
   60POPI   GL1  831  12.945   1.531   9.664 -0.0189 -0.2370  0.0965
   60POPI   GL2  832  12.783   1.379   9.724 -0.0574  0.5883  0.0405
   60POPI   C1A  833  13.079   1.744   9.413  0.1719  0.3228  0.1131
   60POPI   D2A  834  13.175   1.830   8.928  0.1492  0.2652 -0.3279
   60POPI   C3A  835  12.802   1.698   8.632  0.1631  0.0071  0.0588
   60POPI   C4A  836  12.457   1.509   8.357 -0.1662 -0.1112  0.0018
   60POPI   C1B  837  12.691   1.240   9.370 -0.1156 -0.0517  0.2774
   60POPI   C2B  838  12.884   0.893   9.059 -0.0846  0.1305 -0.0437
   60POPI   C3B  839  12.810   0.752   8.681 -0.0050 -0.0307  0.0335
   60POPI   C4B  840  12.548   1.020   8.404  0.0735 -0.0530  0.1926
   61POPI    C1  841  13.635   0.309  10.584  0.1290 -0.2030  0.0768
   61POPI    C2  842  13.394   0.283  10.902 -0.1301 -0.0048 -0.0986
   61POPI    C3  843  13.620   0.608  10.849 -0.2420  0.0535 -0.2225
   61POPI   PO4  844  13.393   0.215  10.304 -0.0356  0.0054 -0.1892
   61POPI   GL1  845  13.574   0.281   9.966  0.2024  0.0368  0.0016
   61POPI   GL2  846  13.898   0.353  10.077 -0.1175  0.0097  0.1165
   61POPI   C1A  847  13.481   0.240   9.571 -0.1639 -0.0052  0.0093
   61POPI   D2A  848  13.574   0.221   9.205 -0.2108  0.2502 -0.1327
   61POPI   C3A  849  13.714   0.438   8.877  0.0469 -0.1410 -0.0577
   61POPI   C4A  850  14.088   0.366   8.598  0.1872 -0.0257  0.2984
   61POPI   C1B  851  13.996   0.211   9.604  0.4897 -0.0762  0.2087
   61POPI   C2B  852  14.123   0.350   9.192  0.0734  0.1199  0.1955
   61POPI   C3B  853  14.219   0.686   9.012 -0.0846  0.3220  0.0349
   61POPI   C4B  854  14.082   0.975   8.712 -0.1226  0.3343  0.4120
   62POPI    C1  855  12.454   3.820  10.854  0.0755 -0.1067  0.1275
   62POPI    C2  856  12.800   3.648  10.956  0.2256  0.1502  0.0626
   62POPI    C3  857  12.466   3.561  11.158  0.2634 -0.3367 -0.0719
   62POPI   PO4  858  12.540   3.875  10.582 -0.0918 -0.4055 -0.3296
   62POPI   GL1  859  12.552   4.218  10.316 -0.1957 -0.1425 -0.0139
   62POPI   GL2  860  12.801   4.027  10.172  0.0391 -0.2831  0.0758
   62POPI   C1A  861  12.325   4.062   9.988  0.3691  0.0752 -0.2151
   62POPI   D2A  862  12.252   4.233   9.643 -0.0972  0.2334 -0.0753
   62POPI   C3A  863  12.479   4.063   9.275 -0.2706 -0.1189 -0.0535
   62POPI   C4A  864  12.584   3.990   8.890 -0.0857  0.0023  0.0762
   62POPI   C1B  865  12.754   4.147   9.714  0.1982 -0.0196 -0.0874
   62POPI   C2B  866  12.627   4.604   9.634  0.1337  0.0278 -0.1686
   62POPI   C3B  867  12.586   4.819   9.296 -0.3879  0.1014 -0.0540
   62POPI   C4B  868  12.645   4.982   8.898  0.1072 -0.0733 -0.0821
   63POPI    C1  869   7.282  11.661  10.191  0.2423 -0.0298  0.3362
   63POPI    C2  870   7.544  11.929  10.332  0.3293  0.2380 -0.3001
   63POPI    C3  871   7.196  12.052  10.177 -0.0367 -0.0931  0.2253
   63POPI   PO4  872   7.383  11.469  10.100  0.1217 -0.2294 -0.0113
   63POPI   GL1  873   7.523  11.391   9.805  0.0698 -0.1464  0.2019
   63POPI   GL2  874   7.564  11.509   9.527  0.0299  0.0148 -0.0035
   63POPI   C1A  875   7.463  11.014   9.487  0.1202 -0.0392 -0.0952
   63POPI   D2A  876   7.247  10.823   9.234 -0.2365 -0.1628 -0.0186
   63POPI   C3A  877   7.324  10.702   8.818 -0.2107  0.1899 -0.0150
   63POPI   C4A  878   7.236  10.559   8.436 -0.2671  0.1702  0.0600
   63POPI   C1B  879   7.815  11.291   9.312 -0.2724 -0.0843 -0.0099
   63POPI   C2B  880   7.841  10.972   9.123  0.0020  0.3509 -0.1569
   63POPI   C3B  881   7.739  10.536   9.122  0.1175 -0.2085 -0.3260
   63POPI   C4B  882   8.086  10.251   9.049  0.2444 -0.1219 -0.0457
   64POPI    C1  883  13.787   5.686  10.615  0.0510 -0.3747 -0.0892
   64POPI    C2  884  13.485   5.504  10.804 -0.1055  0.0580  0.0895
   64POPI    C3  885  13.860   5.454  10.932 -0.1838  0.1383  0.3576
   64POPI   PO4  886  13.759   5.605  10.376 -0.1336  0.0898  0.4507
   64POPI   GL1  887  13.950   5.748   9.968 -0.3207  0.2536  0.0457
   64POPI   GL2  888  14.014   5.540   9.874  0.3474  0.0928  0.0175
   64POPI   C1A  889  14.252   5.941   9.702 -0.2417 -0.0671 -0.1900
   64POPI   D2A  890  14.308   5.943   9.239  0.2374 -0.2286 -0.2194
   64POPI   C3A  891  14.715   5.931   8.925  0.1294 -0.2272 -0.1870
   64POPI   C4A  892  15.061   6.019   8.627  0.1786 -0.1524  0.0198
   64POPI   C1B  893  14.195   5.512   9.517 -0.0345  0.1859 -0.3581
   64POPI   C2B  894  14.386   5.365   9.209  0.1677 -0.0429  0.0557
   64POPI   C3B  895  14.680   5.440   8.990  0.0129  0.0479 -0.0790
   64POPI   C4B  896  14.792   5.479   8.581 -0.2907  0.1754  0.1092
   65POPI    C1  897  17.066   0.979  10.205 -0.0784  0.0671  0.1610
   65POPI    C2  898  17.315   1.146  10.470  0.0356  0.1348  0.0123
   65POPI    C3  899  16.993   0.946  10.597  0.1320  0.0992  0.2042
   65POPI   PO4  900  17.201   0.858  10.089  0.1161  0.1779 -0.1709
   65POPI   GL1  901  17.246   0.521   9.715 -0.0502  0.0806 -0.0295
   65POPI   GL2  902  17.356   0.883   9.620  0.0670 -0.1544  0.1036
   65POPI   C1A  903  17.439   0.546   9.285 -0.3567 -0.1231  0.0961
   65POPI   D2A  904  17.504   0.671   8.931 -0.4665 -0.2822 -0.1631
   65POPI   C3A  905  17.452   0.345   8.692  0.1289 -0.0639  0.0939
   65POPI   C4A  906  17.488  -0.042   8.784  0.1233  0.0024  0.0939
   65POPI   C1B  907  17.524   1.051   9.268 -0.2490 -0.1341  0.5559
   65POPI   C2B  908  17.556   1.147   8.808 -0.4237 -0.0570  0.1519
   65POPI   C3B  909  17.480   0.862   8.493  0.3609  0.2450  0.1827
   65POPI   C4B  910  17.189   0.981   8.197  0.0379  0.2670  0.2204
   66POPI    C1  911   9.714   9.644  10.819 -0.0763 -0.0046 -0.2783
   66POPI    C2  912   9.513   9.331  10.673 -0.3944 -0.0302  0.1947
   66POPI    C3  913   9.511   9.405  11.066  0.2038  0.2018  0.1647
   66POPI   PO4  914   9.754   9.735  10.538 -0.0588 -0.3571  0.0009
   66POPI   GL1  915   9.453   9.592  10.280 -0.1613 -0.1076  0.1252
   66POPI   GL2  916   9.474   9.364  10.147 -0.3001  0.2436  0.3515
   66POPI   C1A  917   9.100   9.685  10.013 -0.0449  0.0975 -0.1533
   66POPI   D2A  918   8.857   9.649   9.616 -0.1893 -0.0558  0.2283
   66POPI   C3A  919   8.531   9.418   9.507  0.1987 -0.0312  0.2012
   66POPI   C4A  920   8.320   9.008   9.287 -0.1775 -0.1064  0.3922
   66POPI   C1B  921   9.240   9.242   9.752 -0.0814 -0.0277 -0.1613
   66POPI   C2B  922   9.054   9.196   9.344  0.0325  0.1592 -0.0449
   66POPI   C3B  923   8.753   9.244   9.089 -0.1177  0.3267 -0.2047
   66POPI   C4B  924   8.386   9.196   8.869  0.1876  0.1096  0.2036
   67POPI    C1  925   8.232  15.539   9.792  0.0343 -0.1139  0.0868
   67POPI    C2  926   7.893  15.408   9.959 -0.0424 -0.0930 -0.0508
   67POPI    C3  927   7.904  15.769   9.786  0.0823 -0.0457  0.0539
   67POPI   PO4  928   8.331  15.356   9.666  0.1317 -0.2281  0.0700
   67POPI   GL1  929   8.488  15.257   9.307 -0.2422 -0.0258  0.0307
   67POPI   GL2  930   8.820  15.048   9.528  0.2912  0.2292  0.2137
   67POPI   C1A  931   8.508  15.499   8.931  0.4554 -0.0267 -0.0227
   67POPI   D2A  932   8.494  15.435   8.492  0.0864 -0.2284 -0.0765
   67POPI   C3A  933   8.774  15.739   8.202  0.1167  0.0578 -0.1416
   67POPI   C4A  934   9.251  15.705   8.073  0.0397 -0.2101  0.1521
   67POPI   C1B  935   8.973  15.256   9.187  0.0174  0.1195 -0.1767
   67POPI   C2B  936   9.238  15.377   8.938 -0.1410  0.1780  0.0082
   67POPI   C3B  937   9.526  15.052   8.725  0.0623 -0.2828 -0.0681
   67POPI   C4B  938   9.677  15.045   8.360  0.3329 -0.2365 -0.0162
   68POPS   CNO  939   5.285   3.383  10.171 -0.1678  0.0145 -0.1419
   68POPS   PO4  940   5.675   3.128  10.064  0.3130  0.0079  0.0241
   68POPS   GL1  941   5.705   2.823   9.659 -0.4125  0.1702 -0.0533
   68POPS   GL2  942   5.390   2.574   9.580  0.1488 -0.3330 -0.2398
   68POPS   C1A  943   5.847   2.708   9.276  0.1286  0.1770  0.0171
   68POPS   D2A  944   6.016   2.574   8.850 -0.1719  0.1170  0.1830
   68POPS   C3A  945   5.839   2.605   8.413 -0.0085  0.0174  0.0235
   68POPS   C4A  946   6.006   2.736   8.030  0.2573 -0.2698 -0.2030
   68POPS   C1B  947   5.516   2.348   9.160  0.2688  0.0090 -0.1318
   68POPS   C2B  948   5.475   2.414   8.773 -0.0096 -0.3456  0.1524
   68POPS   C3B  949   5.343   2.258   8.455  0.0890 -0.1918  0.1303
   68POPS   C4B  950   5.376   2.027   8.053  0.4487 -0.0274  0.3000
   69POPS   CNO  951   0.996  12.920   9.974  0.1046  0.2024 -0.1335
   69POPS   PO4  952   1.293  13.216  10.000  0.1815  0.5421 -0.1188
   69POPS   GL1  953   1.288  13.279   9.537  0.0714  0.2476 -0.1485
   69POPS   GL2  954   1.315  13.500   9.397  0.1728 -0.1445 -0.1392
   69POPS   C1A  955   1.426  13.109   9.108 -0.0298 -0.0214 -0.1815
   69POPS   D2A  956   1.463  13.031   8.745 -0.1164  0.0536 -0.0958
   69POPS   C3A  957   1.626  13.384   8.535  0.1903  0.0896  0.1549
   69POPS   C4A  958   1.877  13.581   8.246 -0.0678  0.1899 -0.2270
   69POPS   C1B  959   1.362  13.660   8.997 -0.0812 -0.0755  0.0500
   69POPS   C2B  960   1.323  13.804   8.624  0.1877 -0.1714  0.0188
   69POPS   C3B  961   1.208  14.154   8.300 -0.2978  0.1148 -0.0007
   69POPS   C4B  962   1.008  14.061   7.985 -0.1955 -0.3643  0.0890
   70POPS   CNO  963  10.041   7.150  10.787 -0.3569  0.0362 -0.2109
   70POPS   PO4  964  10.100   7.244  10.359 -0.0361 -0.0810  0.0429
   70POPS   GL1  965  10.415   7.207  10.019  0.1689 -0.0992 -0.0817
   70POPS   GL2  966  10.544   6.916  10.049 -0.0706 -0.0004  0.0285
   70POPS   C1A  967  10.558   7.150   9.615 -0.2758  0.2462 -0.0947
   70POPS   D2A  968  10.557   7.168   9.187 -0.1535 -0.1900 -0.0970
   70POPS   C3A  969  10.748   6.834   8.893 -0.0075  0.0469 -0.2958
   70POPS   C4A  970  10.816   6.913   8.411  0.2516 -0.0887 -0.0876
   70POPS   C1B  971  10.623   6.529   9.803  0.0427  0.0253 -0.0559
   70POPS   C2B  972  10.522   6.343   9.450 -0.1006 -0.2597 -0.1294
   70POPS   C3B  973  10.279   6.193   9.058 -0.0446  0.1991 -0.2733
   70POPS   C4B  974  10.043   6.377   8.646 -0.0278 -0.0290 -0.0737
   71POPS   CNO  975   9.442  14.042   9.974 -0.0840  0.1018 -0.2976
   71POPS   PO4  976   9.076  14.247   9.828 -0.1915 -0.0232 -0.0156
   71POPS   GL1  977   9.039  14.187   9.373 -0.1215  0.3018 -0.0454
   71POPS   GL2  978   8.674  14.105   9.248  0.3658 -0.0310  0.0472
   71POPS   C1A  979   9.101  14.388   8.956 -0.2189  0.1803 -0.0022
   71POPS   D2A  980   9.191  14.481   8.533  0.2114 -0.0908  0.0772
   71POPS   C3A  981   9.198  14.959   8.367 -0.3672  0.2313  0.1175
   71POPS   C4A  982   9.403  15.231   7.986 -0.0617  0.1277 -0.1301
   71POPS   C1B  983   8.738  13.970   8.961 -0.1211  0.1670 -0.2700
   71POPS   C2B  984   8.816  14.134   8.573  0.1837 -0.2357 -0.1015
   71POPS   C3B  985   8.925  14.282   8.115  0.0441 -0.0364 -0.2584
   71POPS   C4B  986   8.816  14.662   7.972 -0.1298  0.0384 -0.0327
   72POPS   CNO  987  12.557  17.504  10.200 -0.0474  0.0109  0.0053
   72POPS   PO4  988  12.102  17.412  10.276 -0.0758  0.2310 -0.2037
   72POPS   GL1  989  12.140  17.481   9.847  0.0265 -0.1511  0.2015
   72POPS   GL2  990  12.283  17.825   9.795  0.3715  0.1444  0.4366
   72POPS   C1A  991  12.205  17.483   9.386  0.3285 -0.0165  0.2825
   72POPS   D2A  992  12.140  17.454   8.964  0.1152  0.1018  0.0884
   72POPS   C3A  993  12.248  17.819   8.695  0.1799 -0.2225 -0.0522
   72POPS   C4A  994  12.237  18.045   8.330 -0.2009  0.0668 -0.1222
   72POPS   C1B  995  12.573  17.766   9.504 -0.0758 -0.0857  0.3554
   72POPS   C2B  996  12.627  17.819   9.079  0.0505 -0.0837 -0.1333
   72POPS   C3B  997  12.679  18.082   8.707 -0.0474  0.1107  0.2305
   72POPS   C4B  998  12.766  18.029   8.207  0.2037  0.0666  0.0538
   73POPS   CNO  999   6.602  16.485  10.377  0.1525  0.0201 -0.2367
   73POPS   PO4 1000   6.595  16.304   9.996 -0.1906  0.0546  0.3972
   73POPS   GL1 1001   6.536  16.161   9.654 -0.0602  0.0471  0.1459
   73POPS   GL2 1002   6.295  16.111   9.495  0.2153  0.1061 -0.1015
   73POPS   C1A 1003   6.797  16.064   9.327  0.2050 -0.1020 -0.2274
   73POPS   D2A 1004   7.104  15.792   9.341 -0.1180  0.3757  0.3825
   73POPS   C3A 1005   6.932  15.468   8.996 -0.0929 -0.1093 -0.1330
   73POPS   C4A 1006   6.911  15.446   8.550 -0.0445  0.1548 -0.1344
   73POPS   C1B 1007   6.028  16.393   9.157 -0.3719 -0.3076 -0.1711
   73POPS   C2B 1008   6.057  16.491   8.770  0.1909  0.0973  0.0571
   73POPS   C3B 1009   6.079  16.661   8.437 -0.1185  0.0387  0.0081
   73POPS   C4B 1010   5.952  16.527   8.072 -0.1662 -0.0667 -0.3394
   74POPS   CNO 1011   2.166   7.475  10.389 -0.0257 -0.1393 -0.0213
   74POPS   PO4 1012   1.736   7.590  10.195  0.0851 -0.0798 -0.1180
   74POPS   GL1 1013   1.709   7.584   9.762 -0.1297 -0.2729 -0.1304
   74POPS   GL2 1014   1.694   7.258   9.571  0.0895  0.2115 -0.0768
   74POPS   C1A 1015   1.728   7.725   9.332  0.0006  0.0563  0.0304
   74POPS   D2A 1016   1.925   7.811   8.888 -0.0102  0.1379 -0.0087
   74POPS   C3A 1017   1.943   7.778   8.457  0.3542 -0.2253  0.2266
   74POPS   C4A 1018   2.190   8.034   8.096  0.0233 -0.0037 -0.1624
   74POPS   C1B 1019   1.692   7.329   8.998 -0.1069  0.0786  0.3421
   74POPS   C2B 1020   1.618   7.281   8.516 -0.1837 -0.1017 -0.2283
   74POPS   C3B 1021   1.844   7.070   8.281  0.0274  0.1752  0.2781
   74POPS   C4B 1022   2.303   7.343   8.229 -0.0681  0.2451  0.1633
   75POPS   CNO 1023  17.695  14.704  10.162  0.0796 -0.2234 -0.0715
   75POPS   PO4 1024  17.363  14.908   9.993 -0.2399 -0.3261 -0.0340
   75POPS   GL1 1025  17.403  15.021   9.553 -0.0471 -0.1376  0.1219
   75POPS   GL2 1026  17.664  15.248   9.555  0.2489  0.0051  0.1832
   75POPS   C1A 1027  17.276  14.696   9.247  0.1973 -0.0921 -0.0397
   75POPS   D2A 1028  17.258  14.509   8.852  0.2361 -0.0580  0.0353
   75POPS   C3A 1029  17.585  14.639   8.635 -0.1761  0.2654 -0.1664
   75POPS   C4A 1030  17.808  14.398   8.321  0.1737  0.0355 -0.0151
   75POPS   C1B 1031  17.546  15.215   9.095 -0.1828 -0.1349  0.3299
   75POPS   C2B 1032  17.592  15.172   8.679 -0.2999  0.0040  0.1020
   75POPS   C3B 1033  17.618  14.962   8.275 -0.2038  0.1074 -0.0599
   75POPS   C4B 1034  17.610  14.846   7.882  0.3751 -0.2113 -0.1571
   76POPS   CNO 1035   3.078   8.951  10.215  0.0288 -0.0502 -0.3319
   76POPS   PO4 1036   2.922   9.390  10.326  0.3343  0.1086  0.1723
   76POPS   GL1 1037   2.671   9.227   9.943 -0.0200  0.0643  0.2332
   76POPS   GL2 1038   2.431   9.488   9.730 -0.0640  0.2097  0.0541
   76POPS   C1A 1039   2.634   8.937   9.484 -0.0995  0.0102 -0.0623
   76POPS   D2A 1040   2.559   9.137   9.206  0.0386 -0.1442 -0.1982
   76POPS   C3A 1041   2.376   9.071   8.879 -0.3471 -0.1373 -0.4074
   76POPS   C4A 1042   2.584   9.224   8.518 -0.0082 -0.3052 -0.0127
   76POPS   C1B 1043   2.695   9.576   9.453  0.3218 -0.2902 -0.3986
   76POPS   C2B 1044   2.766   9.689   8.971 -0.1432  0.1552 -0.1581
   76POPS   C3B 1045   2.712   9.688   8.541  0.3242 -0.1153 -0.1258
   76POPS   C4B 1046   2.394   9.740   8.281 -0.2067  0.2391 -0.0672
   77POPS   CNO 1047   1.688   1.249  10.415  0.0360  0.2793  0.1414
   77POPS   PO4 1048   1.349   1.252  10.205  0.1503 -0.2174 -0.1261
   77POPS   GL1 1049   1.260   1.231   9.879 -0.1542  0.1882 -0.2168
   77POPS   GL2 1050   1.232   1.582   9.872  0.3193  0.0083  0.4070
   77POPS   C1A 1051   1.146   1.354   9.422 -0.0514  0.0656  0.0970
   77POPS   D2A 1052   1.126   1.552   8.963 -0.0355 -0.0393 -0.0197
   77POPS   C3A 1053   0.760   1.776   8.877 -0.2372  0.2360 -0.1402
   77POPS   C4A 1054   0.449   2.092   8.717 -0.0802 -0.3102 -0.1727
   77POPS   C1B 1055   1.384   1.901   9.496 -0.0608 -0.0335 -0.0193
   77POPS   C2B 1056   1.455   1.916   9.090  0.3479  0.0660 -0.0990
   77POPS   C3B 1057   1.371   2.147   8.797  0.5237 -0.0883 -0.0217
   77POPS   C4B 1058   1.014   2.079   8.447 -0.0070 -0.0420  0.1480
   78POPS   CNO 1059   5.715  17.469  10.098  0.1464 -0.1043  0.3001
   78POPS   PO4 1060   5.531  17.823   9.961 -0.2674  0.0417  0.2963
   78POPS   GL1 1061   5.360  17.584   9.669 -0.0761 -0.3153 -0.1345
   78POPS   GL2 1062   5.215  17.251   9.629 -0.2209 -0.1257 -0.0453
   78POPS   C1A 1063   5.476  17.723   9.248  0.3239 -0.1483 -0.2245
   78POPS   D2A 1064   5.521  17.899   8.879 -0.1088  0.2461 -0.1303
   78POPS   C3A 1065   5.464  17.667   8.486  0.1732  0.0542 -0.1196
   78POPS   C4A 1066   5.770  17.609   8.109  0.1093 -0.1237 -0.0321
   78POPS   C1B 1067   5.469  17.233   9.323 -0.1186 -0.1441 -0.0457
   78POPS   C2B 1068   5.589  17.354   8.901 -0.3153 -0.0576  0.0584
   78POPS   C3B 1069   5.769  17.242   8.523 -0.0444 -0.0822 -0.1940
   78POPS   C4B 1070   6.000  17.191   8.159 -0.1385 -0.5582  0.0604
   79POPS   CNO 1071  10.590  16.073   9.840  0.1224 -0.5393 -0.1618
   79POPS   PO4 1072  10.290  15.798  10.046 -0.1990 -0.1952  0.1371
   79POPS   GL1 1073  10.198  15.871   9.596 -0.0869 -0.0483 -0.0525
   79POPS   GL2 1074   9.980  16.205   9.456  0.0033 -0.3217  0.3344
   79POPS   C1A 1075  10.044  15.646   9.149  0.4938  0.0137 -0.1042
   79POPS   D2A 1076   9.868  15.312   9.039  0.2478  0.1401  0.0517
   79POPS   C3A 1077   9.800  14.907   9.101 -0.3914  0.2210  0.1208
   79POPS   C4A 1078   9.710  14.770   9.522  0.0807  0.2033  0.1880
   79POPS   C1B 1079   9.853  16.160   9.040 -0.1261 -0.1225  0.2029
   79POPS   C2B 1080   9.944  16.111   8.566 -0.0802 -0.0024  0.0619
   79POPS   C3B 1081  10.098  15.742   8.252 -0.1691 -0.1930 -0.0626
   79POPS   C4B 1082  10.218  15.267   8.111  0.1329  0.0954 -0.0698
   80POPS   CNO 1083   4.116  13.423  10.082  0.2718 -0.0980 -0.0125
   80POPS   PO4 1084   4.215  13.389   9.712  0.0944  0.0656 -0.2341
   80POPS   GL1 1085   4.171  13.147   9.355 -0.0886  0.0360 -0.2331
   80POPS   GL2 1086   3.923  12.915   9.364 -0.0093  0.2401  0.1404
   80POPS   C1A 1087   4.156  13.073   8.874  0.1697 -0.2538  0.0339
   80POPS   D2A 1088   4.202  13.222   8.397 -0.1409 -0.1396  0.1559
   80POPS   C3A 1089   4.112  13.148   7.981 -0.0089  0.2118 -0.1697
   80POPS   C4A 1090   4.037  12.879   7.525 -0.2040  0.0598  0.0242
   80POPS   C1B 1091   3.851  12.746   8.962 -0.1360  0.1757 -0.2041
   80POPS   C2B 1092   3.959  12.708   8.515  0.1688 -0.2675 -0.5695
   80POPS   C3B 1093   3.769  12.596   8.213 -0.1015 -0.3303 -0.1042
   80POPS   C4B 1094   3.773  12.631   7.839  0.1088  0.2169  0.0380
   81POPS   CNO 1095  16.866   9.805  10.476  0.0590  0.0570 -0.0238
   81POPS   PO4 1096  16.791  10.211  10.506  0.0417 -0.3103 -0.1015
   81POPS   GL1 1097  16.520  10.263  10.238 -0.1274 -0.1413  0.0881
   81POPS   GL2 1098  16.606   9.909  10.084  0.2612  0.1722 -0.2148
   81POPS   C1A 1099  16.430  10.515   9.882 -0.3461 -0.4587  0.1883
   81POPS   D2A 1100  16.352  10.830   9.473  0.1446 -0.0111  0.1213
   81POPS   C3A 1101  16.120  10.883   9.140  0.0717 -0.5116  0.1511
   81POPS   C4A 1102  16.037  10.974   8.690  0.2148  0.2767  0.3404
   81POPS   C1B 1103  16.685  10.111   9.765 -0.3072  0.0070 -0.3048
   81POPS   C2B 1104  16.661  10.422   9.437 -0.3475  0.0858 -0.2569
   81POPS   C3B 1105  16.718  10.556   9.017  0.1619  0.0019 -0.0211
   81POPS   C4B 1106  16.483  10.734   8.734  0.2264  0.0946 -0.1616
   82POPS   CNO 1107  10.641   1.665  10.652 -0.0788 -0.1983  0.2514
   82POPS   PO4 1108  10.618   2.142  10.517  0.0570  0.1893  0.3553
   82POPS   GL1 1109  10.640   2.394  10.162  0.0613  0.0479 -0.1181
   82POPS   GL2 1110  10.953   2.628  10.082 -0.2510 -0.2381 -0.4492
   82POPS   C1A 1111  10.499   2.597   9.720 -0.2310 -0.0506 -0.0273
   82POPS   D2A 1112  10.198   2.782   9.416 -0.0351 -0.1550  0.0735
   82POPS   C3A 1113  10.311   3.138   9.210  0.0508 -0.1880  0.3492
   82POPS   C4A 1114  10.125   3.232   8.803 -0.0759 -0.6553 -0.1179
   82POPS   C1B 1115  11.064   2.629   9.610 -0.0862 -0.0818  0.4156
   82POPS   C2B 1116  11.228   2.713   9.127  0.0306  0.1141  0.1296
   82POPS   C3B 1117  11.217   2.610   8.758 -0.2558  0.0591  0.0385
   82POPS   C4B 1118  11.022   2.620   8.327  0.0227  0.1197 -0.2122
   83POPS   CNO 1119   6.788   5.605  10.348  0.0401  0.3153 -0.2631
   83POPS   PO4 1120   6.553   5.396  10.053 -0.0073 -0.1093 -0.0323
   83POPS   GL1 1121   6.430   5.521   9.720 -0.1306  0.1938 -0.0900
   83POPS   GL2 1122   6.689   5.294   9.510  0.2465 -0.3402 -0.2564
   83POPS   C1A 1123   6.453   5.879   9.483  0.0500 -0.0547 -0.2223
   83POPS   D2A 1124   6.369   6.235   9.179 -0.0571  0.0417  0.1010
   83POPS   C3A 1125   6.263   6.058   8.708  0.0271 -0.1841  0.0090
   83POPS   C4A 1126   6.345   5.967   8.236 -0.2326 -0.1493  0.0448
   83POPS   C1B 1127   6.778   5.576   9.297  0.1269 -0.1331 -0.3119
   83POPS   C2B 1128   6.657   5.783   9.004 -0.2884  0.1280 -0.4081
   83POPS   C3B 1129   6.786   5.950   8.605  0.3865 -0.0070 -0.3566
   83POPS   C4B 1130   6.894   5.929   8.197 -0.1070  0.0609  0.3231
   84POPS   CNO 1131   7.878  12.786  10.028 -0.2946 -0.1557  0.0762
   84POPS   PO4 1132   7.943  12.871   9.589 -0.0550  0.0493 -0.1354
   84POPS   GL1 1133   8.062  12.777   9.228  0.0283 -0.0671  0.0605
   84POPS   GL2 1134   8.233  12.691   9.118 -0.0768  0.0673  0.2406
   84POPS   C1A 1135   7.820  12.462   8.977 -0.1399 -0.4737  0.0030
   84POPS   D2A 1136   7.853  12.166   8.704  0.0989 -0.1660 -0.1469
   84POPS   C3A 1137   7.546  11.965   8.411 -0.1372  0.0335 -0.0330
   84POPS   C4A 1138   7.181  11.944   8.351 -0.1070  0.3435 -0.1861
   84POPS   C1B 1139   8.557  12.639   8.955 -0.0525 -0.1718 -0.1017
   84POPS   C2B 1140   8.689  12.542   8.586  0.3144 -0.0646 -0.2154
   84POPS   C3B 1141   8.511  12.562   8.230  0.1553  0.2138  0.0230
   84POPS   C4B 1142   8.452  12.406   7.795  0.0034  0.1675 -0.1802
   85POPS   CNO 1143   2.403  17.247  10.526  0.0814 -0.3401 -0.0135
   85POPS   PO4 1144   2.267  17.645  10.469 -0.2068 -0.1680  0.0268
   85POPS   GL1 1145   2.282  17.348  10.051 -0.1913  0.1902 -0.2420
   85POPS   GL2 1146   2.617  17.450  10.051 -0.3057 -0.0086 -0.1742
   85POPS   C1A 1147   2.461  17.049   9.756 -0.1741 -0.0323  0.1801
   85POPS   D2A 1148   2.629  16.783   9.451 -0.3397  0.0675 -0.1620
   85POPS   C3A 1149   2.524  16.770   9.009 -0.0644  0.0556 -0.0184
   85POPS   C4A 1150   2.732  16.832   8.664  0.0893  0.0385 -0.2058
   85POPS   C1B 1151   2.686  17.541   9.562 -0.0308  0.3486 -0.1865
   85POPS   C2B 1152   2.732  17.594   9.132 -0.0656 -0.1544 -0.1112
   85POPS   C3B 1153   2.898  17.868   8.783  0.3700  0.2074 -0.1040
   85POPS   C4B 1154   2.964  18.108   8.531  0.5495 -0.1308  0.2077
   86POPS   CNO 1155   5.942   5.960  10.309  0.2212  0.0928 -0.3246
   86POPS   PO4 1156   5.676   5.673  10.113 -0.0017 -0.1884  0.0540
   86POPS   GL1 1157   5.791   5.957   9.777 -0.1388  0.1312 -0.3622
   86POPS   GL2 1158   5.559   5.995   9.612  0.0346  0.1394 -0.1729
   86POPS   C1A 1159   5.955   5.999   9.346  0.2638  0.2316 -0.1507
   86POPS   D2A 1160   5.941   5.738   8.864 -0.0202 -0.1941  0.0462
   86POPS   C3A 1161   6.363   5.546   8.598 -0.2183 -0.1838 -0.0528
   86POPS   C4A 1162   6.744   5.503   8.312  0.2417 -0.0155 -0.0995
   86POPS   C1B 1163   5.515   5.895   9.147 -0.2160 -0.2308 -0.0645
   86POPS   C2B 1164   5.381   5.861   8.724 -0.0134 -0.1724 -0.1600
   86POPS   C3B 1165   5.339   5.726   8.278 -0.0248 -0.1809 -0.1633
   86POPS   C4B 1166   5.437   5.447   7.963  0.1540 -0.2826  0.0453
   87POPS   CNO 1167  11.123   4.174  10.481 -0.0751 -0.2555 -0.1542
   87POPS   PO4 1168  10.701   4.114  10.305  0.0907 -0.2163  0.5892
   87POPS   GL1 1169  10.437   4.262   9.978 -0.1602 -0.1056 -0.1610
   87POPS   GL2 1170  10.604   4.575   9.816  0.0734  0.0162 -0.1892
   87POPS   C1A 1171  10.407   4.168   9.704  0.2680 -0.0363  0.3315
   87POPS   D2A 1172  10.348   3.907   9.276  0.1429  0.0107  0.3737
   87POPS   C3A 1173  10.159   3.568   9.444 -0.1835 -0.0224  0.0086
   87POPS   C4A 1174  10.143   3.151   9.715  0.1662  0.2293 -0.1403
   87POPS   C1B 1175  10.471   4.641   9.430  0.1601 -0.0123  0.2442
   87POPS   C2B 1176  10.397   4.430   9.122 -0.2142 -0.0273 -0.0133
   87POPS   C3B 1177  10.312   4.102   8.824  0.0225 -0.1936 -0.3206
   87POPS   C4B 1178  10.373   3.760   8.815  0.3415 -0.2822 -0.0946
   88POPS   CNO 1179  14.751  10.642  10.172  0.2049 -0.1358  0.1039
   88POPS   PO4 1180  14.564  10.392  10.445  0.1769 -0.2678 -0.0953
   88POPS   GL1 1181  14.266  10.364  10.094  0.0250 -0.1786 -0.3105
   88POPS   GL2 1182  13.892  10.283  10.144 -0.1472 -0.1455  0.0711
   88POPS   C1A 1183  14.128  10.154   9.718  0.0339 -0.0577  0.1602
   88POPS   D2A 1184  14.274   9.856   9.380 -0.3383 -0.3103 -0.2206
   88POPS   C3A 1185  14.602   9.994   9.104  0.0009 -0.0921  0.3058
   88POPS   C4A 1186  14.709  10.026   8.681  0.0744 -0.0180  0.2321
   88POPS   C1B 1187  13.731  10.601   9.827 -0.3480 -0.0185  0.2055
   88POPS   C2B 1188  13.982  10.698   9.448  0.0955  0.3291 -0.1472
   88POPS   C3B 1189  14.412  10.468   9.381  0.1722 -0.1234 -0.1213
   88POPS   C4B 1190  14.761  10.321   9.553  0.1979 -0.1331  0.0193
   89POPS   CNO 1191  15.243  11.779  10.567 -0.0187 -0.0548  0.2651
   89POPS   PO4 1192  14.820  11.479  10.727  0.0004 -0.0157 -0.1427
   89POPS   GL1 1193  14.928  11.416  10.291  0.1886 -0.1025  0.0792
   89POPS   GL2 1194  14.966  11.139  10.256  0.1331 -0.0645 -0.3896
   89POPS   C1A 1195  15.370  11.540  10.137 -0.2318  0.1004 -0.0168
   89POPS   D2A 1196  15.699  11.469   9.778 -0.3452 -0.0023  0.1398
   89POPS   C3A 1197  15.835  11.643   9.417  0.0324  0.3389  0.1099
   89POPS   C4A 1198  15.470  11.756   9.147 -0.1354  0.1233 -0.0441
   89POPS   C1B 1199  14.921  11.274   9.772  0.0307  0.0550  0.2644
   89POPS   C2B 1200  14.819  11.404   9.347  0.1055  0.0458  0.1979
   89POPS   C3B 1201  15.020  11.434   9.027 -0.2258  0.0645 -0.2446
   89POPS   C4B 1202  14.788  11.479   8.480 -0.3593  0.0107  0.1831
   90POPS   CNO 1203   7.620   3.836  10.417  0.1018 -0.0794  0.2632
   90POPS   PO4 1204   7.764   3.340  10.330  0.0199  0.0033 -0.1944
   90POPS   GL1 1205   7.952   3.406   9.906 -0.0282 -0.1359  0.1437
   90POPS   GL2 1206   7.907   3.127   9.706  0.1202  0.3104 -0.1783
   90POPS   C1A 1207   8.036   3.654   9.511  0.1246 -0.0350  0.0572
   90POPS   D2A 1208   7.845   3.537   9.143 -0.0578  0.2423  0.0859
   90POPS   C3A 1209   7.956   3.600   8.804  0.1284  0.0325  0.0892
   90POPS   C4A 1210   7.862   3.542   8.333 -0.0113 -0.0648  0.3490
   90POPS   C1B 1211   8.008   3.047   9.364  0.1520 -0.3978  0.0096
   90POPS   C2B 1212   8.157   3.147   8.982  0.1539 -0.0176  0.1257
   90POPS   C3B 1213   8.283   3.051   8.406 -0.1547  0.0281 -0.1902
   90POPS   C4B 1214   8.142   2.714   8.288  0.2805  0.0529 -0.0213
   91POPS   CNO 1215  18.398  11.695  10.613  0.0377 -0.2409  0.1362
   91POPS   PO4 1216  18.109  11.749  10.294 -0.1131  0.0400  0.0145
   91POPS   GL1 1217  18.061  11.669   9.873  0.0909 -0.1220 -0.1715
   91POPS   GL2 1218  18.174  11.864   9.637  0.0212  0.1048 -0.2220
   91POPS   C1A 1219  17.760  11.425   9.687  0.0028  0.1961  0.0607
   91POPS   D2A 1220  17.442  11.264   9.596 -0.0188  0.1430  0.1267
   91POPS   C3A 1221  17.056  11.473   9.610 -0.2314  0.3916  0.0990
   91POPS   C4A 1222  16.641  11.352   9.531 -0.4238 -0.0987  0.2259
   91POPS   C1B 1223  17.863  11.867   9.370  0.2373  0.1684 -0.3494
   91POPS   C2B 1224  17.643  11.593   9.113 -0.2771  0.1763 -0.1798
   91POPS   C3B 1225  17.597  11.505   8.680 -0.1838 -0.1534  0.1288
   91POPS   C4B 1226  17.646  11.143   8.503 -0.1118  0.1443  0.1242
   92POPS   CNO 1227  12.400   1.817  10.644  0.3555 -0.2174  0.0232
   92POPS   PO4 1228  12.532   1.723  10.263  0.0935 -0.1647 -0.0480
   92POPS   GL1 1229  12.412   1.694   9.863  0.1139 -0.2310  0.1160
   92POPS   GL2 1230  12.209   1.436   9.840 -0.0562  0.1910  0.2558
   92POPS   C1A 1231  12.457   1.707   9.424 -0.0314  0.0803  0.1057
   92POPS   D2A 1232  12.631   1.825   9.061  0.2453  0.2037 -0.0381
   92POPS   C3A 1233  12.392   1.986   8.649 -0.2027  0.1635 -0.3166
   92POPS   C4A 1234  12.511   2.419   8.523  0.1903 -0.0778 -0.1588
   92POPS   C1B 1235  11.965   1.653   9.551 -0.0586 -0.1278  0.0939
   92POPS   C2B 1236  11.620   1.848   9.255 -0.2581  0.0503 -0.1368
   92POPS   C3B 1237  11.420   1.676   8.918  0.5224  0.0214 -0.2116
   92POPS   C4B 1238  11.151   1.331   8.844 -0.0259  0.0921  0.3363
   93POPS   CNO 1239  13.544   7.495  10.720 -0.2943  0.0314  0.0148
   93POPS   PO4 1240  13.659   7.704  10.322  0.1442 -0.1872 -0.0256
   93POPS   GL1 1241  13.649   7.640   9.877 -0.2565 -0.1618 -0.0677
   93POPS   GL2 1242  13.361   7.641   9.624 -0.0206  0.2377  0.0356
   93POPS   C1A 1243  13.851   7.586   9.453  0.0417 -0.0215 -0.3566
   93POPS   D2A 1244  13.843   7.411   9.010 -0.0380  0.0915  0.2837
   93POPS   C3A 1245  14.103   7.604   8.599 -0.0562 -0.1067  0.0805
   93POPS   C4A 1246  14.019   7.656   8.178  0.1792 -0.1548 -0.0154
   93POPS   C1B 1247  13.036   7.558   9.675 -0.0605  0.0689 -0.0903
   93POPS   C2B 1248  12.746   7.442   9.462 -0.3348  0.2097  0.3083
   93POPS   C3B 1249  12.573   7.712   9.221 -0.3077 -0.1026 -0.2172
   93POPS   C4B 1250  12.754   7.825   8.777 -0.0566  0.0638 -0.1285
   94POPS   CNO 1251   2.196  15.750  10.386 -0.0107  0.0508 -0.3464
   94POPS   PO4 1252   2.694  15.807  10.395 -0.0860  0.0604 -0.2304
   94POPS   GL1 1253   2.890  15.967   9.838 -0.1999 -0.0455  0.0617
   94POPS   GL2 1254   2.997  15.676   9.698  0.0116  0.1683  0.2589
   94POPS   C1A 1255   3.206  16.121   9.527  0.0881  0.0904 -0.2100
   94POPS   D2A 1256   3.227  16.073   9.072 -0.0043  0.1136 -0.2641
   94POPS   C3A 1257   3.074  15.993   8.691  0.2986 -0.0856 -0.0626
   94POPS   C4A 1258   3.216  15.977   8.144  0.4123  0.3707 -0.1446
   94POPS   C1B 1259   2.819  15.804   9.334 -0.2247 -0.3890 -0.1648
   94POPS   C2B 1260   2.690  16.079   9.039 -0.2386  0.1703  0.1698
   94POPS   C3B 1261   2.645  16.338   8.637  0.2379  0.0920  0.1700
   94POPS   C4B 1262   2.512  16.594   8.290  0.0070 -0.0042  0.1365
   95POPS   CNO 1263   6.756  17.424  10.467 -0.2473  0.0074  0.2279
   95POPS   PO4 1264   6.594  17.740  10.196 -0.0769 -0.0953  0.1471
   95POPS   GL1 1265   6.511  17.657   9.752  0.0341 -0.1106  0.3801
   95POPS   GL2 1266   6.334  17.931   9.559 -0.0027 -0.0075  0.0687
   95POPS   C1A 1267   6.448  17.523   9.336 -0.1207  0.1481 -0.0159
   95POPS   D2A 1268   6.621  17.564   9.003 -0.1580 -0.1714 -0.0113
   95POPS   C3A 1269   6.937  17.846   8.929 -0.0197  0.0439  0.3270
   95POPS   C4A 1270   7.219  18.018   9.136 -0.2059 -0.0456  0.3487
   95POPS   C1B 1271   6.484  18.021   9.067  0.0344 -0.0218  0.1650
   95POPS   C2B 1272   6.559  18.033   8.596 -0.4089 -0.2474 -0.0578
   95POPS   C3B 1273   6.768  18.220   8.267  0.1907  0.0554  0.3390
   95POPS   C4B 1274   6.999  18.451   7.921  0.1311  0.0032 -0.0075
   96POPS   CNO 1275   7.239   8.592  10.761 -0.0221  0.0653 -0.0409
   96POPS   PO4 1276   6.944   8.704  10.479  0.1255  0.2364 -0.1613
   96POPS   GL1 1277   6.970   8.399  10.210  0.0240 -0.2470 -0.1858
   96POPS   GL2 1278   7.196   8.164  10.189 -0.3114  0.0663  0.0921
   96POPS   C1A 1279   6.927   8.446   9.728  0.2690  0.0243  0.0797
   96POPS   D2A 1280   7.161   8.566   9.471 -0.2058 -0.2045 -0.3772
   96POPS   C3A 1281   7.145   8.542   9.072  0.1471 -0.0774  0.0550
   96POPS   C4A 1282   7.291   8.677   8.706 -0.0520  0.0570  0.1802
   96POPS   C1B 1283   7.355   8.430   9.895 -0.0428 -0.2553  0.0814
   96POPS   C2B 1284   7.372   8.981   9.784  0.2243  0.2344 -0.0213
   96POPS   C3B 1285   7.572   9.285   9.653  0.2338  0.0650  0.0478
   96POPS   C4B 1286   7.616   9.711   9.748 -0.0677 -0.2156  0.1184
   97POPS   CNO 1287  15.202   5.171  10.394  0.0558 -0.2648  0.0279
   97POPS   PO4 1288  15.596   5.238  10.538  0.1685  0.0097  0.2471
   97POPS   GL1 1289  15.692   5.234  10.154  0.1422 -0.2237 -0.0769
   97POPS   GL2 1290  15.917   5.222   9.985 -0.0945  0.0140 -0.2020
   97POPS   C1A 1291  15.575   5.146   9.578  0.0248 -0.2522  0.0616
   97POPS   D2A 1292  15.684   5.370   9.176  0.1250 -0.0737 -0.0038
   97POPS   C3A 1293  15.541   5.179   8.711  0.0425 -0.0535 -0.3447
   97POPS   C4A 1294  15.477   4.941   8.445  0.1571  0.0557  0.2562
   97POPS   C1B 1295  16.048   5.040   9.675  0.1046  0.2830 -0.1777
   97POPS   C2B 1296  15.972   4.883   9.234  0.1815 -0.1711 -0.0168
   97POPS   C3B 1297  16.015   5.079   8.846  0.3842  0.1147 -0.0157
   97POPS   C4B 1298  16.304   5.188   8.455  0.3813  0.0908 -0.0793
   98POPS   CNO 1299   6.536   6.878  10.261 -0.1526 -0.0264  0.5401
   98POPS   PO4 1300   6.840   6.554  10.097 -0.2499 -0.3363  0.0381
   98POPS   GL1 1301   7.074   6.297   9.743  0.0913 -0.1402 -0.1554
   98POPS   GL2 1302   7.390   6.329   9.512 -0.3418 -0.2394 -0.0376
   98POPS   C1A 1303   6.938   6.092   9.365  0.2250  0.1423  0.2898
   98POPS   D2A 1304   7.012   6.246   8.928 -0.0941 -0.2577  0.0287
   98POPS   C3A 1305   6.672   6.483   8.769 -0.1353 -0.1448  0.2363
   98POPS   C4A 1306   6.225   6.538   8.814 -0.4299  0.1703 -0.1575
   98POPS   C1B 1307   7.257   6.600   9.224 -0.0564  0.1011  0.1580
   98POPS   C2B 1308   7.433   6.681   8.865 -0.0930 -0.0241  0.1155
   98POPS   C3B 1309   7.812   6.892   8.590  0.1462  0.0296 -0.3459
   98POPS   C4B 1310   8.197   6.733   8.509 -0.0170  0.1153 -0.0175
   99POPS   CNO 1311   1.350  17.917  10.142  0.4024  0.2366 -0.0475
   99POPS   PO4 1312   1.770  17.793  10.342 -0.0855  0.0634  0.1458
   99POPS   GL1 1313   1.841  17.628   9.985  0.2943 -0.2105  0.0782
   99POPS   GL2 1314   1.631  17.581   9.864  0.1361 -0.5842  0.0140
   99POPS   C1A 1315   2.097  17.412   9.516  0.0190 -0.2444  0.4082
   99POPS   D2A 1316   2.414  17.224   9.270  0.0420  0.2243 -0.1411
   99POPS   C3A 1317   2.358  17.236   8.913  0.0341 -0.2131 -0.1077
   99POPS   C4A 1318   2.396  17.183   8.546 -0.0296 -0.2280  0.2000
   99POPS   C1B 1319   1.572  17.430   9.346  0.3258 -0.1278  0.0918
   99POPS   C2B 1320   1.590  17.158   8.984 -0.2086  0.0817  0.0631
   99POPS   C3B 1321   1.479  16.852   8.629  0.2179 -0.0772 -0.0154
   99POPS   C4B 1322   1.603  16.658   8.263 -0.3836 -0.0049  0.2851
  100POPS   CNO 1323   5.317  11.006  10.121  0.0005 -0.2027 -0.0421
  100POPS   PO4 1324   5.644  10.769  10.103 -0.3819 -0.1230  0.0527
  100POPS   GL1 1325   5.899  10.783   9.724  0.0172  0.2163 -0.2960
  100POPS   GL2 1326   5.776  10.599   9.612  0.0921  0.2140  0.1783
  100POPS   C1A 1327   6.056  10.793   9.295 -0.0247  0.0399 -0.2434
  100POPS   D2A 1328   6.160  10.622   8.909  0.0114  0.0036  0.0832
  100POPS   C3A 1329   6.209  10.749   8.528 -0.0783 -0.0473  0.1129
  100POPS   C4A 1330   6.291  10.921   8.206  0.0530  0.2080  0.1062
  100POPS   C1B 1331   5.567  10.707   9.321 -0.1658  0.0260 -0.0129
  100POPS   C2B 1332   5.576  10.652   8.938 -0.0780 -0.0228 -0.1028
  100POPS   C3B 1333   5.412  10.670   8.453  0.0449 -0.0196 -0.0495
  100POPS   C4B 1334   5.087  10.759   8.164 -0.0067  0.1900 -0.0806
  101POPS   CNO 1335   0.662   2.917   9.899 -0.1342 -0.0884 -0.1696
  101POPS   PO4 1336   0.716   2.751  10.290  0.0930  0.1402  0.0594
  101POPS   GL1 1337   0.964   2.576  10.080 -0.4965  0.3600  0.1864
  101POPS   GL2 1338   0.722   2.395   9.851 -0.0037  0.3264 -0.1005
  101POPS   C1A 1339   1.301   2.428   9.857 -0.1037  0.0139  0.2440
  101POPS   D2A 1340   1.519   2.082   9.929  0.0593 -0.2744 -0.1433
  101POPS   C3A 1341   1.833   1.916   9.725  0.1903  0.0872  0.0046
  101POPS   C4A 1342   2.059   1.865   9.357 -0.2110 -0.2440  0.0854
  101POPS   C1B 1343   0.877   2.628   9.511 -0.0490 -0.1167 -0.0203
  101POPS   C2B 1344   0.864   2.730   9.054  0.0913  0.1900 -0.0818
  101POPS   C3B 1345   1.150   2.778   8.702  0.0155  0.0455 -0.3454
  101POPS   C4B 1346   1.230   2.986   8.382 -0.0494 -0.0059  0.0114
  102POPS   CNO 1347   2.248   9.162  10.113  0.3610  0.2387 -0.2496
  102POPS   PO4 1348   2.231   8.731  10.160 -0.0278  0.3282 -0.2759
  102POPS   GL1 1349   1.934   8.746   9.821  0.2390 -0.2375  0.0752
  102POPS   GL2 1350   2.125   8.986   9.592  0.1498 -0.1247 -0.3641
  102POPS   C1A 1351   1.842   8.451   9.506 -0.1740 -0.1363  0.0190
  102POPS   D2A 1352   2.078   8.133   9.217  0.1830 -0.1851  0.1526
  102POPS   C3A 1353   2.478   7.945   9.323 -0.3461 -0.0609 -0.0659
  102POPS   C4A 1354   2.871   7.739   9.531 -0.1454 -0.1621 -0.0006
  102POPS   C1B 1355   1.985   8.923   9.176 -0.2837  0.0406 -0.0061
  102POPS   C2B 1356   1.927   8.828   8.824 -0.1292 -0.0947  0.3009
  102POPS   C3B 1357   1.749   8.779   8.534  0.1141 -0.2530 -0.0803
  102POPS   C4B 1358   1.535   8.528   8.343  0.3298 -0.0329  0.0466
  103POPS   CNO 1359  10.117  11.111  10.457  0.1633  0.2558 -0.1713
  103POPS   PO4 1360  10.581  11.063  10.293 -0.1712 -0.0247 -0.2951
  103POPS   GL1 1361  10.631  10.911   9.957 -0.5219  0.1015 -0.0976
  103POPS   GL2 1362  10.947  10.772   9.895  0.0688 -0.2094  0.3137
  103POPS   C1A 1363  10.492  11.075   9.555  0.1073 -0.2767  0.1670
  103POPS   D2A 1364  10.248  11.226   9.097 -0.3228  0.2401  0.1829
  103POPS   C3A 1365  10.019  11.066   8.721  0.0645 -0.0479 -0.4623
  103POPS   C4A 1366  10.201  11.046   8.382  0.1709 -0.1674  0.0774
  103POPS   C1B 1367  10.856  10.639   9.480 -0.0612  0.2436  0.1050
  103POPS   C2B 1368  10.632  10.815   9.166  0.4752  0.3471 -0.1434
  103POPS   C3B 1369  10.509  10.757   8.721  0.2191  0.1278  0.0324
  103POPS   C4B 1370  10.536  10.597   8.382  0.1708  0.2683 -0.2059
  104POPS   CNO 1371  15.277   3.325  10.020  0.0305 -0.2832 -0.2024
  104POPS   PO4 1372  15.034   3.616   9.969  0.3230 -0.1129  0.2562
  104POPS   GL1 1373  15.011   3.537   9.635 -0.1107  0.7341  0.0850
  104POPS   GL2 1374  15.211   3.604   9.375  0.0117 -0.2140 -0.0718
  104POPS   C1A 1375  14.797   3.563   9.181 -0.1407  0.0270 -0.1164
  104POPS   D2A 1376  14.838   3.478   8.700  0.1067  0.3202 -0.3863
  104POPS   C3A 1377  15.153   3.849   8.471 -0.0877 -0.1702  0.0756
  104POPS   C4A 1378  15.122   4.043   8.105 -0.0236  0.0337 -0.2306
  104POPS   C1B 1379  15.317   3.606   8.898  0.1443 -0.1611 -0.0437
  104POPS   C2B 1380  15.560   3.577   8.496  0.0938  0.1392 -0.3228
  104POPS   C3B 1381  15.953   3.652   8.364 -0.0571 -0.0696  0.2701
  104POPS   C4B 1382  16.044   3.800   7.962 -0.0718  0.0561 -0.3353
  105POPS   CNO 1383  10.235  10.178  10.516  0.1011  0.0904 -0.0583
  105POPS   PO4 1384  10.554  10.018  10.353  0.0136  0.2121 -0.0349
  105POPS   GL1 1385  10.426  10.146   9.979 -0.0808  0.0342  0.0364
  105POPS   GL2 1386  10.557   9.890   9.843  0.1112  0.0588  0.1541
  105POPS   C1A 1387  10.365  10.479   9.587 -0.1092 -0.0273  0.1921
  105POPS   D2A 1388  10.108  10.733   9.334  0.1222  0.2142  0.1770
  105POPS   C3A 1389   9.971  10.637   8.935 -0.1940  0.0808 -0.0025
  105POPS   C4A 1390  10.008  10.302   8.787 -0.0676 -0.0153  0.0507
  105POPS   C1B 1391  10.357   9.856   9.390  0.2689 -0.0677  0.1477
  105POPS   C2B 1392  10.230   9.878   8.973  0.1403 -0.0324  0.1722
  105POPS   C3B 1393  10.236   9.997   8.522  0.2543 -0.0542  0.1450
  105POPS   C4B 1394  10.226   9.748   8.214 -0.0883 -0.1373 -0.0247
  106POPS   CNO 1395  11.017  14.492  10.223  0.0933  0.4126  0.0684
  106POPS   PO4 1396  11.099  14.822  10.130  0.2615 -0.0514 -0.0089
  106POPS   GL1 1397  11.033  14.924   9.666  0.0251 -0.0584 -0.3067
  106POPS   GL2 1398  10.749  15.099   9.490  0.2534 -0.0438 -0.1458
  106POPS   C1A 1399  11.296  14.917   9.344 -0.1212 -0.0828 -0.0700
  106POPS   D2A 1400  11.780  14.960   9.201 -0.0697  0.0292  0.2228
  106POPS   C3A 1401  11.875  14.941   8.760 -0.0137 -0.0471  0.1123
  106POPS   C4A 1402  11.970  14.871   8.350 -0.1227 -0.0321 -0.1249
  106POPS   C1B 1403  10.886  15.048   9.060 -0.0544 -0.0141  0.0194
  106POPS   C2B 1404  10.963  15.103   8.587 -0.2097 -0.1205 -0.0252
  106POPS   C3B 1405  11.123  15.294   8.305 -0.0397 -0.1208 -0.1821
  106POPS   C4B 1406  11.075  15.396   7.910  0.0500  0.2235 -0.1814
  107POPS   CNO 1407  11.672   2.341  10.334 -0.0340 -0.0399 -0.0672
  107POPS   PO4 1408  11.541   1.970  10.368 -0.0953  0.0580 -0.0747
  107POPS   GL1 1409  11.576   2.118   9.902 -0.1517  0.0622  0.1274
  107POPS   GL2 1410  11.366   2.403   9.935 -0.0521  0.1129 -0.0116
  107POPS   C1A 1411  11.862   2.140   9.622  0.4944 -0.2441 -0.1342
  107POPS   D2A 1412  12.076   2.048   9.162  0.0878 -0.2678  0.0448
  107POPS   C3A 1413  12.409   2.300   9.027  0.0367  0.1171 -0.0933
  107POPS   C4A 1414  12.603   2.686   9.221  0.2664 -0.0443  0.1811
  107POPS   C1B 1415  11.467   2.398   9.436 -0.0839  0.1915 -0.2227
  107POPS   C2B 1416  11.627   2.290   9.068 -0.0346 -0.0690 -0.3202
  107POPS   C3B 1417  11.652   2.458   8.545  0.1912 -0.0977  0.2854
  107POPS   C4B 1418  11.469   2.621   8.059 -0.4356  0.2583  0.0820
  108POPS   CNO 1419   2.279  15.283  10.084 -0.0686 -0.5663 -0.2357
  108POPS   PO4 1420   2.703  15.172  10.021 -0.1824 -0.1577 -0.0701
  108POPS   GL1 1421   2.528  15.242   9.640  0.2139  0.0735  0.0186
  108POPS   GL2 1422   2.640  15.333   9.388  0.2368  0.1267  0.1751
  108POPS   C1A 1423   2.141  15.371   9.270  0.0529  0.1441  0.1921
  108POPS   D2A 1424   2.147  15.377   8.860  0.3126 -0.0575  0.1443
  108POPS   C3A 1425   2.103  15.685   8.627  0.0057 -0.1482  0.0863
  108POPS   C4A 1426   1.733  15.680   8.364  0.0084  0.0708 -0.0151
  108POPS   C1B 1427   2.570  15.483   9.013 -0.2477  0.2392  0.2331
  108POPS   C2B 1428   2.554  15.803   8.680  0.2218  0.1811 -0.1223
  108POPS   C3B 1429   2.678  15.869   8.347  0.1540 -0.1585 -0.0093
  108POPS   C4B 1430   2.624  16.235   8.035  0.1389  0.0142  0.0760
  109POPS   CNO 1431   7.999   4.064  10.706 -0.1427  0.3478 -0.1413
  109POPS   PO4 1432   8.042   4.193  10.333 -0.0950 -0.0980 -0.2175
  109POPS   GL1 1433   8.083   4.339   9.864 -0.0611  0.0776 -0.2113
  109POPS   GL2 1434   7.994   4.630   9.870 -0.1230 -0.2191  0.4311
  109POPS   C1A 1435   7.801   4.226   9.556  0.0319  0.1955 -0.1939
  109POPS   D2A 1436   7.663   3.959   9.324  0.1024  0.0207  0.3464
  109POPS   C3A 1437   7.668   3.970   8.819  0.0889  0.0696 -0.2940
  109POPS   C4A 1438   7.937   4.018   8.581 -0.0802 -0.0908  0.0754
  109POPS   C1B 1439   7.997   4.633   9.414 -0.1840  0.2472  0.0587
  109POPS   C2B 1440   8.117   4.783   9.020 -0.0657  0.3125  0.2552
  109POPS   C3B 1441   8.478   4.662   8.713 -0.0994  0.3961 -0.2220
  109POPS   C4B 1442   8.713   4.495   8.447 -0.0360 -0.0568  0.0478
  110POPS   CNO 1443  10.089   6.001  11.055  0.1434  0.0501 -0.2431
  110POPS   PO4 1444  10.213   6.056  10.491 -0.0412  0.0597 -0.0297
  110POPS   GL1 1445  10.036   5.829  10.139 -0.1201  0.3266  0.1876
  110POPS   GL2 1446   9.705   5.849  10.196 -0.0549 -0.1460 -0.2730
  110POPS   C1A 1447   9.814   5.391   9.934  0.2231 -0.1501  0.1867
  110POPS   D2A 1448   9.445   5.059  10.127 -0.0888 -0.2032  0.1400
  110POPS   C3A 1449   9.160   4.992   9.839 -0.3299 -0.0899  0.0574
  110POPS   C4A 1450   8.893   4.698   9.574  0.0878  0.4470 -0.2226
  110POPS   C1B 1451   9.716   5.836   9.728  0.2305  0.3219  0.0529
  110POPS   C2B 1452   9.894   5.627   9.350 -0.0758 -0.0190  0.0721
  110POPS   C3B 1453  10.119   5.667   8.947  0.2047  0.0261  0.0660
  110POPS   C4B 1454   9.961   5.745   8.507 -0.0793  0.2682  0.0682
  111POPS   CNO 1455  13.341   9.836  10.640 -0.0781 -0.1580 -0.0132
  111POPS   PO4 1456  13.445   9.939  10.226 -0.2994  0.2253 -0.0525
  111POPS   GL1 1457  13.164   9.810   9.885 -0.0602 -0.1057  0.0852
  111POPS   GL2 1458  13.175   9.594   9.789 -0.0950  0.0792  0.0606
  111POPS   C1A 1459  13.199   9.968   9.402  0.2247  0.0818 -0.2850
  111POPS   D2A 1460  13.222  10.040   8.972  0.1656  0.0832 -0.0657
  111POPS   C3A 1461  13.501  10.233   8.868 -0.1111  0.3437  0.1687
  111POPS   C4A 1462  13.694  10.313   8.441  0.0732  0.3613 -0.0593
  111POPS   C1B 1463  12.871   9.488   9.435 -0.2181  0.3373  0.0338
  111POPS   C2B 1464  13.041   9.596   9.137  0.1322  0.0057  0.2602
  111POPS   C3B 1465  13.145   9.513   8.700 -0.2598 -0.1687  0.1521
  111POPS   C4B 1466  12.878   9.239   8.444  0.1224  0.0519  0.1779
  112POPS   CNO 1467  16.758  15.871  10.253 -0.1413 -0.1692  0.1174
  112POPS   PO4 1468  16.850  15.752   9.813  0.0271 -0.0728 -0.2166
  112POPS   GL1 1469  17.043  15.431   9.505  0.1592 -0.0408 -0.1631
  112POPS   GL2 1470  16.749  15.642   9.296  0.0199 -0.1275  0.2314
  112POPS   C1A 1471  17.070  15.139   9.200 -0.1792  0.0008 -0.0337
  112POPS   D2A 1472  16.873  14.862   8.909 -0.0348  0.0857  0.2699
  112POPS   C3A 1473  17.017  14.764   8.489  0.2073  0.0055  0.0474
  112POPS   C4A 1474  17.175  14.480   8.213 -0.1396 -0.2733 -0.3313
  112POPS   C1B 1475  16.910  15.977   8.962  0.0188 -0.2480  0.0621
  112POPS   C2B 1476  17.031  16.178   8.606 -0.0391  0.0431  0.1940
  112POPS   C3B 1477  17.376  16.354   8.240 -0.1703  0.1111 -0.2445
  112POPS   C4B 1478  17.727  16.684   7.994 -0.2986 -0.3666 -0.0920
  113POPS   CNO 1479  17.389  12.831  10.213 -0.1160 -0.0021 -0.1223
  113POPS   PO4 1480  17.422  12.349  10.214  0.2529 -0.0676 -0.0813
  113POPS   GL1 1481  17.129  12.250   9.861 -0.0193 -0.1833  0.1086
  113POPS   GL2 1482  16.779  12.097   9.937 -0.0192  0.1127 -0.1893
  113POPS   C1A 1483  16.970  12.304   9.478 -0.1294  0.1910 -0.1870
  113POPS   D2A 1484  16.932  12.343   9.033 -0.1451  0.1989  0.1225
  113POPS   C3A 1485  16.609  12.634   8.836 -0.0950  0.0147  0.0432
  113POPS   C4A 1486  16.277  12.723   8.385 -0.0917  0.3381  0.0065
  113POPS   C1B 1487  16.496  12.179   9.737 -0.0488  0.1235 -0.2407
  113POPS   C2B 1488  16.548  12.193   9.329  0.0948  0.0247  0.1170
  113POPS   C3B 1489  16.451  12.160   8.874  0.0528  0.0096 -0.1853
  113POPS   C4B 1490  16.189  12.159   8.475  0.1487 -0.1237 -0.0350
  114POPS   CNO 1491   7.420   3.026  10.031 -0.1710 -0.1253 -0.1275
  114POPS   PO4 1492   7.039   2.793   9.943  0.0911 -0.0860 -0.0768
  114POPS   GL1 1493   6.935   2.645   9.514  0.0799  0.2998  0.3942
  114POPS   GL2 1494   6.675   2.407   9.394  0.1909 -0.1331  0.0496
  114POPS   C1A 1495   6.932   2.681   9.061 -0.4154  0.1389  0.0688
  114POPS   D2A 1496   6.876   2.430   8.752  0.3059  0.3721 -0.3453
  114POPS   C3A 1497   6.746   2.340   8.293 -0.1550 -0.2360 -0.4270
  114POPS   C4A 1498   6.407   2.473   7.978  0.0085 -0.1937 -0.0423
  114POPS   C1B 1499   6.448   2.321   8.987 -0.0331  0.1996 -0.0402
  114POPS   C2B 1500   6.311   2.350   8.572 -0.0687  0.3491  0.1842
  114POPS   C3B 1501   6.244   1.994   8.248  0.1737  0.0962  0.1476
  114POPS   C4B 1502   6.303   1.602   8.082 -0.1199  0.1708  0.2231
  115POPS   CNO 1503  11.307   8.387  10.229 -0.0034  0.1783 -0.1716
  115POPS   PO4 1504  11.694   8.236  10.209  0.0941 -0.1853 -0.2759
  115POPS   GL1 1505  11.710   8.388   9.875  0.3082  0.1396 -0.1529
  115POPS   GL2 1506  11.379   8.524   9.760  0.0108  0.1210  0.2598
  115POPS   C1A 1507  11.754   8.803   9.725 -0.2858 -0.0036 -0.0501
  115POPS   D2A 1508  11.483   8.996   9.597  0.0963  0.2158  0.0672
  115POPS   C3A 1509  11.101   8.979   9.332  0.0260 -0.1926 -0.0999
  115POPS   C4A 1510  10.968   8.925   8.898  0.1205  0.2143  0.1682
  115POPS   C1B 1511  11.407   8.579   9.302 -0.2272 -0.2264 -0.0431
  115POPS   C2B 1512  11.195   8.476   8.938 -0.0222 -0.1994  0.2443
  115POPS   C3B 1513  11.227   8.276   8.571  0.0564  0.0464  0.0197
  115POPS   C4B 1514  11.464   8.007   8.201 -0.2499 -0.0161 -0.3081
  116POPS   CNO 1515   1.440   6.299  10.140  0.1564  0.0782  0.0635
  116POPS   PO4 1516   1.141   6.033  10.379  0.0793 -0.0670  0.0013
  116POPS   GL1 1517   1.278   5.799   9.933 -0.0010 -0.4665  0.3916
  116POPS   GL2 1518   1.556   5.577   9.814 -0.1996 -0.0472  0.0397
  116POPS   C1A 1519   1.226   5.791   9.516  0.1921 -0.1234  0.1660
  116POPS   D2A 1520   1.173   6.037   9.091 -0.0532 -0.2915  0.2233
  116POPS   C3A 1521   0.790   5.965   8.906 -0.0658 -0.2977 -0.2229
  116POPS   C4A 1522   0.491   5.721   8.952 -0.2626  0.2893  0.1842
  116POPS   C1B 1523   1.523   5.466   9.232  0.0302 -0.1111 -0.2634
  116POPS   C2B 1524   1.364   5.577   8.877 -0.4564  0.1809 -0.2062
  116POPS   C3B 1525   1.164   5.820   8.589  0.0124  0.1447 -0.0867
  116POPS   C4B 1526   0.998   6.203   8.465  0.1780 -0.0867 -0.0072
  117POPS   CNO 1527  17.845   5.626  10.712  0.4430  0.1340  0.1137
  117POPS   PO4 1528  17.845   5.410  10.351 -0.1146  0.1201 -0.0186
  117POPS   GL1 1529  17.560   5.440  10.029 -0.3460 -0.0125  0.0843
  117POPS   GL2 1530  17.637   5.302   9.782 -0.2111 -0.3541  0.1625
  117POPS   C1A 1531  17.225   5.576   9.827  0.2178 -0.0234  0.2952
  117POPS   D2A 1532  16.871   5.510   9.545 -0.1489 -0.2265 -0.1001
  117POPS   C3A 1533  16.708   5.427   9.163  0.0620 -0.4217  0.0216
  117POPS   C4A 1534  16.599   5.514   8.803  0.1598 -0.0972  0.2313
  117POPS   C1B 1535  17.335   5.365   9.424 -0.0971  0.0263 -0.1881
  117POPS   C2B 1536  17.265   5.448   9.107  0.0127 -0.3817 -0.2506
  117POPS   C3B 1537  17.077   5.686   8.759 -0.1001  0.0556 -0.1015
  117POPS   C4B 1538  17.225   5.938   8.494  0.0789  0.0432  0.2052
  118POPS   CNO 1539   8.758  11.822  10.225  0.2096 -0.1631  0.4482
  118POPS   PO4 1540   8.929  11.757   9.868  0.0131 -0.0063 -0.2604
  118POPS   GL1 1541   9.181  11.538   9.538 -0.1058 -0.2145 -0.2129
  118POPS   GL2 1542   9.599  11.594   9.518  0.2369 -0.2449  0.0061
  118POPS   C1A 1543   9.308  11.485   9.091  0.3639  0.2022 -0.1749
  118POPS   D2A 1544   9.354  11.586   8.654 -0.3827  0.1301  0.2802
  118POPS   C3A 1545   9.253  11.492   8.206  0.1006  0.0940 -0.1514
  118POPS   C4A 1546   9.130  11.574   7.777  0.0414 -0.1488  0.0181
  118POPS   C1B 1547   9.638  11.869   9.118  0.1141  0.2172  0.0580
  118POPS   C2B 1548   9.653  12.023   8.808 -0.0738 -0.0761  0.0672
  118POPS   C3B 1549   9.792  11.949   8.425 -0.0542 -0.0314 -0.0547
  118POPS   C4B 1550   9.503  12.012   8.024  0.1367 -0.3134  0.0585
  119POPS   CNO 1551  11.818   0.331  10.755  0.0727  0.0195 -0.0277
  119POPS   PO4 1552  11.968   0.616  10.460  0.3251 -0.0925 -0.0213
  119POPS   GL1 1553  12.213   0.503  10.135  0.3392 -0.2874  0.0741
  119POPS   GL2 1554  12.333   0.194  10.136  0.0985  0.0055  0.1875
  119POPS   C1A 1555  12.372   0.687   9.810  0.3436 -0.0390  0.0856
  119POPS   D2A 1556  12.214   0.792   9.395  0.1958  0.0699 -0.0052
  119POPS   C3A 1557  12.177   1.258   9.283 -0.0739  0.1205 -0.1053
  119POPS   C4A 1558  12.149   1.592   8.919 -0.2087  0.2871  0.2143
  119POPS   C1B 1559  12.174   0.174   9.760  0.2076  0.2338 -0.2213
  119POPS   C2B 1560  12.005   0.257   9.273 -0.0618  0.0609 -0.0770
  119POPS   C3B 1561  12.059   0.310   8.842 -0.2432  0.3452 -0.1049
  119POPS   C4B 1562  12.197   0.642   8.625  0.0583 -0.0109  0.1032
  120POPS   CNO 1563  10.889   8.654  10.370  0.1183  0.0453 -0.1645
  120POPS   PO4 1564  10.872   8.183  10.235 -0.0232  0.0603  0.0340
  120POPS   GL1 1565  10.933   7.946   9.864  0.1839 -0.2138 -0.1673
  120POPS   GL2 1566  11.072   8.156   9.654 -0.0417 -0.0255 -0.2535
  120POPS   C1A 1567  10.670   7.631   9.820 -0.1844 -0.3043 -0.1320
  120POPS   D2A 1568  10.903   7.326   9.945  0.0112  0.3478  0.2571
  120POPS   C3A 1569  10.964   6.900   9.756  0.2308  0.1942  0.1529
  120POPS   C4A 1570  10.886   6.694   9.395 -0.0712 -0.0344  0.3507
  120POPS   C1B 1571  11.105   8.156   9.272 -0.0944  0.1246  0.0022
  120POPS   C2B 1572  11.195   7.846   9.000 -0.2946 -0.1304  0.0200
  120POPS   C3B 1573  11.387   7.802   8.683 -0.3973 -0.1465  0.2773
  120POPS   C4B 1574  11.819   7.696   8.660 -0.1163  0.0951 -0.0083
  121POPS   CNO 1575   9.008   8.122  10.539 -0.1468  0.2831  0.1419
  121POPS   PO4 1576   9.538   8.086  10.442 -0.0929 -0.0282 -0.1137
  121POPS   GL1 1577   9.681   8.061  10.026  0.0133  0.0749 -0.1919
  121POPS   GL2 1578   9.812   7.710  10.058  0.0491 -0.1747  0.0479
  121POPS   C1A 1579   9.797   8.000   9.614 -0.2515  0.0964  0.2484
  121POPS   D2A 1580   9.881   7.735   9.376  0.1259  0.2582 -0.1166
  121POPS   C3A 1581   9.827   7.871   9.018  0.0429 -0.0683  0.0135
  121POPS   C4A 1582   9.841   7.734   8.619  0.1009 -0.1567  0.2164
  121POPS   C1B 1583  10.168   7.688   9.754 -0.6021 -0.1137  0.0154
  121POPS   C2B 1584  10.308   7.529   9.327 -0.0048  0.1385 -0.2860
  121POPS   C3B 1585  10.279   7.573   8.955 -0.0068  0.0795 -0.0005
  121POPS   C4B 1586  10.310   7.914   8.683 -0.0165 -0.1616 -0.3529
  122POPS   CNO 1587  17.314  17.795  10.418 -0.1805  0.0739  0.3212
  122POPS   PO4 1588  17.288  17.854   9.930  0.2231  0.0319  0.2394
  122POPS   GL1 1589  17.179  17.820   9.530 -0.0811 -0.2328  0.3213
  122POPS   GL2 1590  17.144  18.098   9.495  0.0870  0.1696  0.0166
  122POPS   C1A 1591  17.307  17.885   9.047 -0.0423  0.0842 -0.0683
  122POPS   D2A 1592  17.496  17.856   8.698 -0.2617  0.1808 -0.0832
  122POPS   C3A 1593  17.729  17.629   8.298  0.0845 -0.2405 -0.3549
  122POPS   C4A 1594  17.976  17.865   7.978  0.1220  0.0734  0.1528
  122POPS   C1B 1595  17.394  18.410   9.313 -0.0925  0.0975 -0.0839
  122POPS   C2B 1596  17.791  18.676   9.340  0.1924 -0.0142  0.3537
  122POPS   C3B 1597  17.990  18.874   9.016  0.1071  0.2038  0.0288
  122POPS   C4B 1598  18.376  19.066   8.855  0.2654  0.2956 -0.0365
  123POPS   CNO 1599   0.288  14.180  10.444 -0.2191  0.0851 -0.3646
  123POPS   PO4 1600   0.270  14.620  10.174 -0.4366 -0.1099 -0.1083
  123POPS   GL1 1601   0.062  14.480   9.820 -0.0100  0.0230 -0.1738
  123POPS   GL2 1602  -0.147  14.468   9.990  0.0442  0.1314  0.3240
  123POPS   C1A 1603   0.083  14.679   9.422  0.0230  0.3862 -0.0964
  123POPS   D2A 1604  -0.021  14.958   9.050 -0.1986 -0.1042 -0.2522
  123POPS   C3A 1605  -0.042  15.004   8.639 -0.1446 -0.0321  0.0205
  123POPS   C4A 1606  -0.014  14.893   8.223  0.1202  0.3037  0.1391
  123POPS   C1B 1607  -0.401  14.262   9.643  0.0317 -0.0182 -0.1123
  123POPS   C2B 1608  -0.576  14.016   9.245  0.0360 -0.0986  0.0627
  123POPS   C3B 1609  -0.998  13.907   8.864  0.3462 -0.1394 -0.2627
  123POPS   C4B 1610  -1.105  13.992   8.399 -0.3173  0.0636  0.0449
  124POPS   CNO 1611   5.269   2.996   9.844 -0.2020  0.2205  0.1792
  124POPS   PO4 1612   4.913   2.856  10.026  0.1838 -0.0987  0.1312
  124POPS   GL1 1613   4.897   2.989   9.550  0.0404 -0.1441  0.0273
  124POPS   GL2 1614   4.999   3.385   9.507 -0.0710  0.1138  0.0480
  124POPS   C1A 1615   4.923   2.988   9.147  0.1683 -0.1008 -0.0302
  124POPS   D2A 1616   4.969   3.102   8.849 -0.3172 -0.0111  0.1281
  124POPS   C3A 1617   4.805   3.366   8.558 -0.0497  0.3038  0.0837
  124POPS   C4A 1618   4.627   3.445   8.149 -0.0614  0.0737  0.0895
  124POPS   C1B 1619   4.798   3.487   9.110 -0.3637 -0.0308  0.0058
  124POPS   C2B 1620   4.786   3.778   8.773 -0.2627 -0.1173 -0.1434
  124POPS   C3B 1621   4.666   4.105   8.502  0.0707 -0.1194 -0.2433
  124POPS   C4B 1622   4.730   4.468   8.317 -0.0604  0.2527  0.0641
  125POPS   CNO 1623  11.598  13.612  10.230  0.1808 -0.1605  0.0412
  125POPS   PO4 1624  11.786  13.971  10.083  0.2154 -0.1315  0.4090
  125POPS   GL1 1625  11.829  13.724   9.710  0.2536  0.0426  0.0998
  125POPS   GL2 1626  11.754  13.883   9.452 -0.0380 -0.2641 -0.1224
  125POPS   C1A 1627  11.927  13.369   9.369 -0.1066  0.3944  0.1787
  125POPS   D2A 1628  11.802  13.150   9.055 -0.0706 -0.1584 -0.0105
  125POPS   C3A 1629  12.020  13.283   8.614  0.0331 -0.0265  0.4632
  125POPS   C4A 1630  12.123  13.179   8.143 -0.0297 -0.3770  0.2370
  125POPS   C1B 1631  11.791  14.089   9.086 -0.1215 -0.0676  0.1788
  125POPS   C2B 1632  11.810  13.999   8.735  0.2111 -0.1310 -0.0729
  125POPS   C3B 1633  12.302  13.959   8.537 -0.0008 -0.0665 -0.2815
  125POPS   C4B 1634  12.389  13.592   8.261 -0.0080 -0.1297 -0.0276
  126POPS   CNO 1635   7.410  14.758   9.606  0.0550 -0.0288 -0.0245
  126POPS   PO4 1636   7.464  15.111   9.809  0.0641 -0.4113  0.0581
  126POPS   GL1 1637   7.600  15.519   9.462  0.0967  0.2030 -0.0080
  126POPS   GL2 1638   7.924  15.346   9.426  0.0399  0.0306  0.2001
  126POPS   C1A 1639   7.610  15.741   9.138 -0.1283 -0.1901 -0.0564
  126POPS   D2A 1640   7.273  15.822   8.865 -0.1358  0.0059  0.0407
  126POPS   C3A 1641   6.832  15.919   8.855 -0.1469 -0.1122  0.2067
  126POPS   C4A 1642   6.421  16.113   8.941  0.0752 -0.1507  0.2181
  126POPS   C1B 1643   7.951  15.338   8.950  0.1194  0.0134  0.1123
  126POPS   C2B 1644   8.006  15.423   8.437  0.1750  0.1936 -0.0651
  126POPS   C3B 1645   7.690  15.567   8.187 -0.3059  0.0762 -0.1160
  126POPS   C4B 1646   7.757  16.013   8.085 -0.0730  0.0944 -0.0382
  127POPS   CNO 1647   3.022   3.423  11.153  0.2106  0.0819  0.2507
  127POPS   PO4 1648   2.963   3.450  10.605  0.0234  0.0339  0.0788
  127POPS   GL1 1649   2.917   3.389  10.190 -0.1443 -0.1224  0.1728
  127POPS   GL2 1650   3.140   3.516  10.055  0.3895 -0.5130 -0.3107
  127POPS   C1A 1651   3.020   3.002   9.889 -0.2026 -0.0108 -0.1194
  127POPS   D2A 1652   3.181   2.562   9.697 -0.1207 -0.0574 -0.3220
  127POPS   C3A 1653   3.441   2.584   9.331  0.3144  0.2187  0.3887
  127POPS   C4A 1654   3.709   2.895   9.205  0.4142 -0.1096 -0.1609
  127POPS   C1B 1655   3.067   3.865   9.902 -0.0083  0.1801  0.1455
  127POPS   C2B 1656   3.169   3.947   9.546  0.1397  0.2975 -0.1836
  127POPS   C3B 1657   3.153   3.961   9.074  0.0598 -0.2439 -0.2460
  127POPS   C4B 1658   3.323   4.199   8.778  0.0838  0.1093  0.1120
  128POPS   CNO 1659   0.375   8.766  10.289 -0.3495 -0.0622  0.0405
  128POPS   PO4 1660   0.597   9.130  10.257  0.1467 -0.0959 -0.0262
  128POPS   GL1 1661   0.289   9.177   9.909 -0.0062 -0.1534 -0.0140
  128POPS   GL2 1662   0.129   8.848   9.827  0.1480 -0.5179 -0.1861
  128POPS   C1A 1663   0.153   9.423   9.537  0.1417 -0.1201 -0.0508
  128POPS   D2A 1664  -0.007   9.214   9.206  0.0326 -0.1159 -0.1849
  128POPS   C3A 1665  -0.209   9.322   8.838 -0.0779 -0.1277  0.0490
  128POPS   C4A 1666  -0.332   9.247   8.385  0.0323  0.2447  0.1237
  128POPS   C1B 1667   0.283   8.937   9.458  0.0209 -0.3528  0.4196
  128POPS   C2B 1668   0.266   8.814   8.893 -0.1413 -0.1618  0.0493
  128POPS   C3B 1669   0.139   9.004   8.537 -0.2653 -0.0550  0.2888
  128POPS   C4B 1670   0.139   9.204   8.073  0.0706 -0.1194 -0.3925
  129POPS   CNO 1671   1.224  11.314  10.301 -0.0141 -0.1957 -0.1774
  129POPS   PO4 1672   1.459  11.549  10.012 -0.0253  0.0495  0.0453
  129POPS   GL1 1673   1.344  11.330   9.695 -0.1017  0.1128 -0.1635
  129POPS   GL2 1674   1.028  11.261   9.768  0.0561 -0.3763 -0.1492
  129POPS   C1A 1675   1.183  11.230   9.260  0.2345  0.2880  0.2478
  129POPS   D2A 1676   1.067  11.383   8.883  0.0188 -0.3629  0.1624
  129POPS   C3A 1677   0.981  11.127   8.565  0.1355 -0.2576  0.1282
  129POPS   C4A 1678   0.816  10.827   8.337  0.1104  0.2293 -0.0212
  129POPS   C1B 1679   0.740  11.455   9.520 -0.0979  0.2264  0.0662
  129POPS   C2B 1680   0.630  11.490   9.092 -0.0963  0.0581 -0.1185
  129POPS   C3B 1681   0.570  11.340   8.646 -0.2042 -0.2364  0.0697
  129POPS   C4B 1682   0.446  11.567   8.238 -0.0320  0.1569 -0.1541
  130POPS   CNO 1683   7.668   0.496  10.551 -0.2375 -0.2193 -0.3702
  130POPS   PO4 1684   7.920   0.646  10.198 -0.1026  0.0510 -0.0691
  130POPS   GL1 1685   8.081   0.729   9.781  0.2155  0.1778 -0.1236
  130POPS   GL2 1686   8.281   0.541   9.797 -0.1599  0.0457  0.1156
  130POPS   C1A 1687   8.022   1.057   9.418  0.2305 -0.0838  0.1617
  130POPS   D2A 1688   8.265   1.311   9.178 -0.0570 -0.1565 -0.1973
  130POPS   C3A 1689   8.065   1.165   8.705  0.2715 -0.3531 -0.2302
  130POPS   C4A 1690   8.124   0.983   8.315 -0.2275  0.2226 -0.1091
  130POPS   C1B 1691   8.444   0.264   9.437  0.0710  0.2144  0.0683
  130POPS   C2B 1692   8.231  -0.069   8.965 -0.1265 -0.0478  0.2917
  130POPS   C3B 1693   8.200  -0.424   8.751  0.0953 -0.3185 -0.0457
  130POPS   C4B 1694   7.978  -0.524   8.326 -0.0326 -0.0802  0.2308
  131POPS   CNO 1695  18.012  16.347  10.399 -0.2044 -0.0288 -0.0450
  131POPS   PO4 1696  17.932  16.460   9.994  0.0238  0.0069  0.2679
  131POPS   GL1 1697  18.081  16.312   9.590 -0.0247 -0.2433 -0.0356
  131POPS   GL2 1698  18.032  16.662   9.479  0.0610 -0.2097 -0.1328
  131POPS   C1A 1699  18.407  16.354   9.299 -0.4471 -0.2425 -0.1826
  131POPS   D2A 1700  18.514  16.546   8.859 -0.1479 -0.0667  0.0840
  131POPS   C3A 1701  18.439  16.662   8.372  0.0526 -0.2668  0.1071
  131POPS   C4A 1702  18.151  16.903   8.280  0.0350  0.1649  0.1396
  131POPS   C1B 1703  18.131  16.723   9.083 -0.1085  0.0957  0.1040
  131POPS   C2B 1704  17.886  16.657   8.758 -0.0545 -0.1011  0.1044
  131POPS   C3B 1705  17.830  16.431   8.447  0.0529 -0.2282 -0.0614
  131POPS   C4B 1706  18.151  16.428   7.993  0.1715 -0.0386  0.0553
  132POPS   CNO 1707  18.308   2.161  10.795  0.1087  0.0148  0.2433
  132POPS   PO4 1708  18.331   1.869  10.573 -0.0315 -0.0044  0.3110
  132POPS   GL1 1709  18.164   1.897  10.154 -0.1800 -0.0451  0.1474
  132POPS   GL2 1710  17.798   1.934  10.013  0.1734  0.1169 -0.1201
  132POPS   C1A 1711  18.235   2.008   9.746  0.0299 -0.0534 -0.0322
  132POPS   D2A 1712  18.048   2.197   9.504  0.3211  0.2191 -0.0076
  132POPS   C3A 1713  18.026   2.069   9.099  0.1373 -0.0907 -0.2952
  132POPS   C4A 1714  17.996   2.007   8.734 -0.1151  0.1831 -0.3592
  132POPS   C1B 1715  17.565   1.888   9.687  0.1193 -0.2336 -0.1212
  132POPS   C2B 1716  17.590   1.946   9.279  0.0647 -0.1479  0.0725
  132POPS   C3B 1717  17.491   1.945   8.835  0.0895 -0.2887 -0.2232
  132POPS   C4B 1718  17.576   2.128   8.415 -0.3179  0.0024  0.0429
  133POPS   CNO 1719   3.254  16.871  10.848 -0.1144 -0.3499  0.0857
  133POPS   PO4 1720   3.372  17.039  10.416 -0.1501 -0.0251  0.1723
  133POPS   GL1 1721   3.418  16.884   9.959  0.0113 -0.4340 -0.2079
  133POPS   GL2 1722   3.189  16.572   9.752  0.1142  0.1699 -0.1382
  133POPS   C1A 1723   3.557  17.065   9.467  0.0005  0.0938  0.2500
  133POPS   D2A 1724   3.543  17.352   9.232 -0.1055  0.0800  0.0940
  133POPS   C3A 1725   3.518  17.153   8.808  0.2456 -0.0882  0.0248
  133POPS   C4A 1726   3.229  16.998   8.556  0.0326  0.1796 -0.0506
  133POPS   C1B 1727   3.044  16.517   9.245  0.0759  0.0322 -0.0673
  133POPS   C2B 1728   3.089  16.493   8.822  0.0823 -0.3975 -0.0008
  133POPS   C3B 1729   3.024  16.479   8.309 -0.0509  0.0429  0.0239
  133POPS   C4B 1730   3.122  16.470   7.872 -0.1191  0.0345 -0.0149
  134POPS   CNO 1731  11.603  15.914  10.388 -0.1654 -0.2601 -0.0231
  134POPS   PO4 1732  11.742  16.160  10.024  0.1843 -0.1091  0.2422
  134POPS   GL1 1733  11.623  16.194   9.573  0.0877  0.0597 -0.1215
  134POPS   GL2 1734  11.386  16.379   9.503 -0.0237 -0.2512  0.0019
  134POPS   C1A 1735  11.500  15.902   9.245 -0.0500 -0.1479 -0.0767
  134POPS   D2A 1736  11.344  15.935   8.845 -0.1069 -0.0925  0.0915
  134POPS   C3A 1737  11.588  15.668   8.641 -0.0917  0.0152 -0.0517
  134POPS   C4A 1738  11.603  15.245   8.441  0.0367 -0.0296 -0.3040
  134POPS   C1B 1739  11.365  16.400   9.104  0.0191  0.1592 -0.1143
  134POPS   C2B 1740  11.309  16.448   8.654  0.0251 -0.2258 -0.3082
  134POPS   C3B 1741  11.408  16.407   8.223 -0.0572 -0.1147 -0.0437
  134POPS   C4B 1742  11.292  16.557   7.761  0.0863  0.2084 -0.0213
  135POPS   CNO 1743  18.374   7.127  10.630  0.4457  0.1982  0.0640
  135POPS   PO4 1744  18.526   7.341  10.256 -0.4785 -0.0577  0.4099
  135POPS   GL1 1745  18.265   7.227   9.948  0.3205 -0.0139  0.0645
  135POPS   GL2 1746  17.901   7.360   9.936 -0.1352  0.2125 -0.3183
  135POPS   C1A 1747  18.338   7.241   9.581  0.0864 -0.0487 -0.1746
  135POPS   D2A 1748  18.437   7.330   9.110  0.0003  0.1832 -0.3487
  135POPS   C3A 1749  18.228   7.380   8.910  0.0482  0.0244 -0.1733
  135POPS   C4A 1750  18.086   7.502   8.518 -0.0185  0.0989 -0.2436
  135POPS   C1B 1751  17.889   7.456   9.517 -0.2205 -0.0763  0.1636
  135POPS   C2B 1752  17.826   7.512   9.151 -0.2413  0.3268  0.1178
  135POPS   C3B 1753  17.774   7.767   8.879  0.0864  0.0304  0.0084
  135POPS   C4B 1754  18.080   7.899   8.833 -0.0136 -0.1785 -0.0767
  136POPS   CNO 1755   4.575  11.855   9.500  0.0360 -0.2850  0.0228
  136POPS   PO4 1756   4.560  11.587   9.835  0.0166  0.2168 -0.1507
  136POPS   GL1 1757   4.517  11.340   9.515 -0.1529  0.1233  0.0135
  136POPS   GL2 1758   4.259  11.133   9.445  0.1777 -0.0458 -0.0767
  136POPS   C1A 1759   4.728  11.080   9.319  0.0185  0.1227  0.2588
  136POPS   D2A 1760   4.576  10.784   9.057  0.0969 -0.0298 -0.0548
  136POPS   C3A 1761   4.604  10.966   8.677  0.0892 -0.0537  0.1094
  136POPS   C4A 1762   4.411  10.895   8.310 -0.3584  0.0908 -0.0636
  136POPS   C1B 1763   4.168  11.481   9.175  0.0158 -0.0880  0.0739
  136POPS   C2B 1764   4.309  11.808   8.895  0.1321 -0.0319 -0.0399
  136POPS   C3B 1765   4.539  11.703   8.511 -0.0026 -0.1651  0.1817
  136POPS   C4B 1766   4.381  11.359   8.168 -0.1130 -0.1701  0.1555
  137POPS   CNO 1767   4.176   6.506  10.317  0.0953  0.1676 -0.1195
  137POPS   PO4 1768   3.952   6.197  10.022 -0.0138 -0.1278 -0.0905
  137POPS   GL1 1769   3.811   5.990   9.681  0.0452  0.3085 -0.0465
  137POPS   GL2 1770   3.491   5.988   9.716 -0.2492 -0.1014 -0.3193
  137POPS   C1A 1771   3.812   5.899   9.225  0.2368  0.2682 -0.2671
  137POPS   D2A 1772   3.821   6.203   8.825  0.0740 -0.2014 -0.2491
  137POPS   C3A 1773   4.070   6.189   8.530  0.1812 -0.3239  0.2042
  137POPS   C4A 1774   4.343   5.928   8.447  0.0519 -0.0749 -0.0401
  137POPS   C1B 1775   3.330   6.067   9.336 -0.1702  0.1204 -0.2612
  137POPS   C2B 1776   3.211   6.387   9.057 -0.0271  0.1787 -0.1667
  137POPS   C3B 1777   2.991   6.528   8.565 -0.1370 -0.1000 -0.0079
  137POPS   C4B 1778   2.565   6.578   8.619 -0.2588  0.0389 -0.2741
  138YOPS   CNO 1779  10.178   9.718  10.717  0.0409  0.0089  0.0178
  138YOPS   PO4 1780  10.075   9.290  10.590 -0.1428  0.0205  0.0577
  138YOPS   GL1 1781   9.966   9.521  10.182 -0.2905 -0.1706 -0.2806
  138YOPS   GL2 1782  10.035   9.794  10.146 -0.1080  0.1611 -0.0567
  138YOPS   C1A 1783   9.825   9.337   9.776 -0.1610 -0.1136  0.0422
  138YOPS   D2A 1784   9.651   9.307   9.376  0.1740  0.0673  0.1853
  138YOPS   C3A 1785   9.581   9.338   8.993 -0.1842  0.0900  0.1556
  138YOPS   C4A 1786   9.205   9.228   8.677 -0.2166  0.1400 -0.0819
  138YOPS   C1B 1787  10.070   9.801   9.736 -0.1685 -0.1794  0.3828
  138YOPS   C2B 1788   9.896   9.777   9.340  0.2308 -0.1621  0.1243
  138YOPS   D3B 1789   9.731   9.869   9.004  0.0879 -0.2107  0.1617
  138YOPS   C4B 1790   9.792   9.688   8.595 -0.1011 -0.0029 -0.2788
  139YOPS   CNO 1791   5.607  13.476   9.442 -0.3191  0.0536  0.0024
  139YOPS   PO4 1792   5.313  13.248   9.568 -0.2111  0.2730  0.2367
  139YOPS   GL1 1793   5.339  12.998   9.228 -0.3922  0.4691  0.1973
  139YOPS   GL2 1794   5.642  13.171   9.075 -0.1002 -0.1904 -0.2114
  139YOPS   C1A 1795   5.248  12.945   8.720 -0.1231  0.1799 -0.0237
  139YOPS   D2A 1796   5.133  13.054   8.273 -0.2614 -0.4083  0.3450
  139YOPS   C3A 1797   5.043  13.012   7.849 -0.1423 -0.1210  0.0414
  139YOPS   C4A 1798   4.935  13.289   7.694 -0.0826  0.2286 -0.0567
  139YOPS   C1B 1799   5.750  13.216   8.650  0.1718  0.1185 -0.1679
  139YOPS   C2B 1800   5.714  13.220   8.202  0.1209 -0.1823  0.0532
  139YOPS   D3B 1801   5.573  13.004   7.917  0.2140 -0.1594  0.0214
  139YOPS   C4B 1802   5.426  12.543   8.135 -0.2036 -0.0839 -0.1041
  140YOPS   CNO 1803   5.417  15.196   9.945  0.0673 -0.0620 -0.1282
  140YOPS   PO4 1804   5.681  15.531  10.002 -0.0624 -0.0321 -0.3082
  140YOPS   GL1 1805   5.526  15.768   9.607 -0.1339  0.0155  0.1309
  140YOPS   GL2 1806   5.352  15.926   9.504  0.3360  0.0264  0.1039
  140YOPS   C1A 1807   5.738  15.873   9.222  0.0858  0.0058 -0.1677
  140YOPS   D2A 1808   5.639  16.146   8.755 -0.0984  0.0363  0.3183
  140YOPS   C3A 1809   5.631  16.300   8.389 -0.2803  0.0198  0.2842
  140YOPS   C4A 1810   5.635  16.068   8.041 -0.4884 -0.0179 -0.1177
  140YOPS   C1B 1811   5.105  16.043   9.108  0.1776 -0.1087 -0.0852
  140YOPS   C2B 1812   4.911  16.143   8.709  0.2317 -0.0307 -0.1964
  140YOPS   D3B 1813   4.696  16.160   8.247 -0.0210 -0.0252  0.0386
  140YOPS   C4B 1814   4.907  15.966   7.903 -0.0243 -0.0998  0.0343
  141YOPS   CNO 1815   0.690   4.539  10.147  0.0107 -0.3078 -0.0856
  141YOPS   PO4 1816   0.543   4.884  10.107  0.2717  0.0511  0.1223
  141YOPS   GL1 1817   0.129   4.916   9.811 -0.4283 -0.0687  0.3327
  141YOPS   GL2 1818   0.049   5.266   9.735  0.1093  0.0601  0.0212
  141YOPS   C1A 1819   0.122   5.017   9.298 -0.2141  0.1419  0.1646
  141YOPS   D2A 1820   0.265   5.046   8.841 -0.1140 -0.3224  0.0797
  141YOPS   C3A 1821   0.501   5.038   8.443  0.0449 -0.2907 -0.2002
  141YOPS   C4A 1822   0.470   5.437   8.150  0.0140  0.0295 -0.1013
  141YOPS   C1B 1823  -0.060   5.494   9.371 -0.2879  0.1339  0.4935
  141YOPS   C2B 1824   0.031   5.475   8.967 -0.0337  0.0756  0.1910
  141YOPS   D3B 1825   0.204   5.514   8.599 -0.1648  0.1600  0.2082
  141YOPS   C4B 1826   0.028   5.198   8.291  0.1362 -0.2402  0.0468
  142YOPS   CNO 1827   1.108   3.303  10.770 -0.0499  0.1395 -0.1765
  142YOPS   PO4 1828   1.250   2.905  10.516 -0.2055  0.0748 -0.1948
  142YOPS   GL1 1829   1.357   2.955  10.084  0.0005  0.1604 -0.0004
  142YOPS   GL2 1830   1.145   3.010   9.791 -0.0657  0.2644 -0.0265
  142YOPS   C1A 1831   1.669   2.966   9.753 -0.3572  0.0806  0.1783
  142YOPS   D2A 1832   1.823   2.742   9.367 -0.1467  0.0094  0.0459
  142YOPS   C3A 1833   1.925   2.825   8.913 -0.1388 -0.2441  0.0697
  142YOPS   C4A 1834   2.373   2.978   8.772 -0.0333  0.0563 -0.3240
  142YOPS   C1B 1835   1.323   2.771   9.440 -0.1480  0.1108  0.0070
  142YOPS   C2B 1836   1.450   2.557   9.043 -0.0713 -0.0497  0.0071
  142YOPS   D3B 1837   1.608   2.646   8.549 -0.1174  0.2062  0.1628
  142YOPS   C4B 1838   1.875   3.100   8.481 -0.2757  0.1224 -0.0626
  143YOPS   CNO 1839  10.988   3.578  10.446 -0.3075 -0.0039 -0.1289
  143YOPS   PO4 1840  11.402   3.674  10.453  0.2200 -0.1158  0.0689
  143YOPS   GL1 1841  11.598   3.817  10.006 -0.0446  0.1401  0.2291
  143YOPS   GL2 1842  11.877   3.762  10.157  0.0777  0.0274  0.3279
  143YOPS   C1A 1843  11.525   3.966   9.674 -0.3669  0.1275 -0.1730
  143YOPS   D2A 1844  11.365   4.342   9.491 -0.0339  0.0707  0.0512
  143YOPS   C3A 1845  11.387   4.536   9.094 -0.2184 -0.3139  0.0304
  143YOPS   C4A 1846  11.782   4.396   8.804  0.4094 -0.1940 -0.2495
  143YOPS   C1B 1847  12.062   3.720   9.726 -0.0853  0.0549 -0.1448
  143YOPS   C2B 1848  11.958   3.899   9.407  0.3450  0.2905  0.0324
  143YOPS   D3B 1849  12.041   3.981   9.001  0.1447  0.0383 -0.0114
  143YOPS   C4B 1850  11.818   3.866   8.606  0.0350  0.0487  0.0578
  144YOPS   CNO 1851   9.313  13.496   9.860 -0.4101  0.2811  0.1781
  144YOPS   PO4 1852   9.726  13.630   9.988 -0.0901  0.1558  0.3357
  144YOPS   GL1 1853   9.832  13.484   9.622  0.0695 -0.2943 -0.1050
  144YOPS   GL2 1854   9.618  13.403   9.393  0.1778 -0.2184 -0.0537
  144YOPS   C1A 1855  10.049  13.197   9.367 -0.4098  0.2474  0.0579
  144YOPS   D2A 1856  10.153  13.029   8.916 -0.2368 -0.2588  0.3377
  144YOPS   C3A 1857  10.071  12.984   8.447 -0.0144 -0.1263  0.2305
  144YOPS   C4A 1858   9.791  13.106   8.059 -0.0454 -0.3354 -0.3166
  144YOPS   C1B 1859   9.870  13.480   9.009 -0.2285 -0.0084 -0.0520
  144YOPS   C2B 1860   9.910  13.386   8.663  0.0646  0.0010 -0.1306
  144YOPS   D3B 1861   9.671  13.670   8.276 -0.2943 -0.2424 -0.0600
  144YOPS   C4B 1862   9.925  13.691   7.931 -0.2353  0.0104  0.0370
  145YOPS   CNO 1863   4.171  15.002   9.823 -0.0876  0.3646  0.1208
  145YOPS   PO4 1864   3.822  14.741   9.577 -0.1823 -0.0579 -0.0154
  145YOPS   GL1 1865   4.061  14.567   9.259  0.0937 -0.1120  0.2608
  145YOPS   GL2 1866   3.815  14.327   9.161  0.0724 -0.1948 -0.0276
  145YOPS   C1A 1867   4.316  14.646   8.914 -0.0635 -0.0121 -0.1282
  145YOPS   D2A 1868   4.310  14.648   8.501  0.3451 -0.1966 -0.0817
  145YOPS   C3A 1869   4.277  14.681   8.106  0.3116 -0.1725 -0.1200
  145YOPS   C4A 1870   4.499  14.620   7.735 -0.1341 -0.1985 -0.2172
  145YOPS   C1B 1871   3.728  14.016   8.803  0.0149  0.3635 -0.0402
  145YOPS   C2B 1872   3.622  13.771   8.428 -0.1671 -0.3253 -0.1220
  145YOPS   D3B 1873   3.403  13.750   7.976 -0.0341 -0.0093 -0.0970
  145YOPS   C4B 1874   3.594  13.699   7.642 -0.0384 -0.1607 -0.2737
  146YOPS   CNO 1875  15.682   7.325  10.560  0.1852 -0.1013  0.4377
  146YOPS   PO4 1876  16.034   7.542  10.620  0.2348  0.2354  0.0167
  146YOPS   GL1 1877  16.107   7.276  10.331  0.0288  0.0309  0.1961
  146YOPS   GL2 1878  16.126   6.934  10.317  0.0922 -0.0678  0.4961
  146YOPS   C1A 1879  16.504   7.441  10.046  0.0807  0.0916  0.2245
  146YOPS   D2A 1880  16.475   7.471   9.549  0.3161  0.1453  0.0690
  146YOPS   C3A 1881  16.614   7.372   9.078 -0.0342 -0.3504 -0.4012
  146YOPS   C4A 1882  16.483   7.758   8.749  0.0271  0.0023  0.1578
  146YOPS   C1B 1883  16.275   7.001   9.870 -0.2418  0.2666 -0.0926
  146YOPS   C2B 1884  16.103   6.859   9.529  0.2221 -0.1674 -0.2455
  146YOPS   D3B 1885  16.401   6.876   9.175  0.2264  0.1667  0.0474
  146YOPS   C4B 1886  16.915   7.024   9.222 -0.2353  0.1098 -0.1660
  147YOPS   CNO 1887   2.076   3.476  10.757  0.1070  0.0573 -0.1779
  147YOPS   PO4 1888   1.953   3.846  10.470  0.1603 -0.0525 -0.0345
  147YOPS   GL1 1889   2.174   3.882  10.030  0.1544 -0.0476  0.2312
  147YOPS   GL2 1890   1.919   3.749   9.965  0.0885 -0.1888  0.1800
  147YOPS   C1A 1891   2.155   3.942   9.472 -0.3083 -0.1772  0.1048
  147YOPS   D2A 1892   2.144   3.636   9.179 -0.2657  0.3271  0.0509
  147YOPS   C3A 1893   2.545   3.443   9.257  0.0455 -0.1941  0.1577
  147YOPS   C4A 1894   2.984   3.529   9.145  0.1563  0.5534  0.0502
  147YOPS   C1B 1895   1.618   3.960   9.658  0.1109  0.1480  0.0001
  147YOPS   C2B 1896   1.685   3.837   9.154  0.1031  0.0145 -0.0704
  147YOPS   D3B 1897   1.953   3.767   8.715  0.3506  0.0021 -0.2498
  147YOPS   C4B 1898   2.223   3.477   8.588  0.2457 -0.3228 -0.2291
  148YOPS   CNO 1899   5.511  11.760   9.874 -0.0897  0.1519 -0.2570
  148YOPS   PO4 1900   5.449  11.513  10.180  0.2497  0.2380  0.0141
  148YOPS   GL1 1901   5.605  11.273   9.768  0.1874  0.4678 -0.0844
  148YOPS   GL2 1902   5.379  11.115   9.561  0.2064  0.1912 -0.0864
  148YOPS   C1A 1903   5.819  11.173   9.435  0.0402  0.1680  0.1414
  148YOPS   D2A 1904   5.804  11.155   9.010 -0.0192 -0.0830  0.3355
  148YOPS   C3A 1905   5.576  11.086   8.650  0.1726 -0.0974 -0.1064
  148YOPS   C4A 1906   5.373  11.197   8.280  0.1476 -0.2730 -0.2314
  148YOPS   C1B 1907   5.313  11.088   9.108 -0.4286 -0.0383  0.0469
  148YOPS   C2B 1908   5.064  11.214   8.759  0.1278 -0.0813 -0.0599
  148YOPS   D3B 1909   4.853  11.231   8.325  0.2088  0.2336  0.1843
  148YOPS   C4B 1910   4.952  11.521   8.054 -0.1255  0.0114 -0.1809
  149YOPS   CNO 1911   6.134  18.331   9.798 -0.1412  0.0385 -0.1279
  149YOPS   PO4 1912   5.853  18.607   9.747 -0.1917  0.1367  0.0554
  149YOPS   GL1 1913   5.718  18.446   9.343 -0.0524  0.2851  0.1653
  149YOPS   GL2 1914   5.991  18.253   9.210  0.4176 -0.0491 -0.0818
  149YOPS   C1A 1915   5.510  18.412   8.838  0.0979 -0.1624  0.0700
  149YOPS   D2A 1916   5.489  18.487   8.425 -0.1066  0.0559  0.0759
  149YOPS   C3A 1917   5.249  18.505   8.016  0.0521 -0.1101 -0.0886
  149YOPS   C4A 1918   5.096  18.830   7.859  0.0182  0.2757  0.0943
  149YOPS   C1B 1919   5.931  18.245   8.763  0.1453  0.0656 -0.3435
  149YOPS   C2B 1920   5.783  18.096   8.396 -0.0875 -0.1090  0.1027
  149YOPS   D3B 1921   5.516  18.085   8.031  0.2986 -0.1116 -0.0913
  149YOPS   C4B 1922   5.228  17.798   8.066 -0.2385  0.1851 -0.0650
  150YOPS   CNO 1923  15.807   2.952  10.564 -0.0646 -0.1155  0.1499
  150YOPS   PO4 1924  15.776   3.290  10.141 -0.0635  0.2743 -0.1294
  150YOPS   GL1 1925  15.996   3.340   9.706 -0.2020  0.3440  0.1813
  150YOPS   GL2 1926  16.225   3.618   9.674  0.1389 -0.1760  0.3071
  150YOPS   C1A 1927  16.255   3.165   9.380  0.0912 -0.1127 -0.1716
  150YOPS   D2A 1928  16.371   3.144   9.000  0.1181  0.1864  0.0409
  150YOPS   C3A 1929  16.712   3.235   8.731 -0.3492 -0.0785 -0.2744
  150YOPS   C4A 1930  16.859   3.626   8.520 -0.1083  0.1528 -0.0690
  150YOPS   C1B 1931  16.189   3.680   9.192 -0.1327  0.4743  0.1150
  150YOPS   C2B 1932  16.314   3.771   8.767  0.0837  0.1868  0.2259
  150YOPS   D3B 1933  16.441   3.888   8.345 -0.0286  0.0222  0.0530
  150YOPS   C4B 1934  16.866   4.004   8.214  0.0479  0.0246 -0.4182
  151YOPS   CNO 1935   8.667   6.676  10.762 -0.0355 -0.2559  0.1343
  151YOPS   PO4 1936   8.591   6.576  10.310 -0.2084 -0.1564 -0.1516
  151YOPS   GL1 1937   8.768   6.600  10.014 -0.0846 -0.3697 -0.0135
  151YOPS   GL2 1938   9.074   6.583   9.907  0.1969 -0.0321 -0.1653
  151YOPS   C1A 1939   8.535   6.656   9.538 -0.0009  0.2209  0.0504
  151YOPS   D2A 1940   8.328   6.606   9.138  0.1669 -0.0165  0.2143
  151YOPS   C3A 1941   8.174   6.466   8.927  0.3251  0.4804  0.0323
  151YOPS   C4A 1942   8.322   6.283   8.625  0.0120 -0.0813  0.0314
  151YOPS   C1B 1943   9.048   6.570   9.429  0.0747  0.0057 -0.2618
  151YOPS   C2B 1944   8.728   6.855   9.112  0.1652  0.2155  0.4114
  151YOPS   D3B 1945   8.529   6.932   8.804  0.0739 -0.0466 -0.4258
  151YOPS   C4B 1946   8.088   7.286   8.798  0.0909  0.3142 -0.0207
  152YOPS   CNO 1947   2.832   4.594  10.369 -0.1106 -0.0158  0.0983
  152YOPS   PO4 1948   2.530   4.424  10.331  0.5085  0.3229 -0.0201
  152YOPS   GL1 1949   2.490   4.352   9.962 -0.0181  0.1964 -0.0321
  152YOPS   GL2 1950   2.195   4.477   9.762  0.1770 -0.1483  0.4146
  152YOPS   C1A 1951   2.653   4.067   9.626  0.0497  0.2170 -0.0016
  152YOPS   D2A 1952   2.610   3.903   9.228 -0.0577  0.3997  0.2580
  152YOPS   C3A 1953   2.532   3.756   8.891  0.2287 -0.3407  0.2311
  152YOPS   C4A 1954   2.705   3.429   8.748  0.2986  0.1185 -0.1000
  152YOPS   C1B 1955   2.374   4.355   9.278 -0.0891 -0.0388  0.1829
  152YOPS   C2B 1956   2.213   4.132   9.000 -0.0502 -0.1785 -0.1727
  152YOPS   D3B 1957   2.300   4.090   8.550  0.0458 -0.1421  0.2743
  152YOPS   C4B 1958   2.147   3.830   8.246 -0.0391 -0.3538  0.0007
  153YOPS   CNO 1959  17.702   0.198  10.519 -0.1213  0.3763 -0.2640
  153YOPS   PO4 1960  18.025   0.499  10.333  0.0963 -0.4435  0.1666
  153YOPS   GL1 1961  17.969   0.281  10.054 -0.1793 -0.2068 -0.0517
  153YOPS   GL2 1962  18.292   0.177  10.080 -0.2120 -0.2029  0.3655
  153YOPS   C1A 1963  17.731   0.449   9.702  0.0104  0.0168 -0.1910
  153YOPS   D2A 1964  17.934   0.640   9.382 -0.1170 -0.2147 -0.0225
  153YOPS   C3A 1965  17.964   0.841   9.007 -0.1305  0.3250  0.0427
  153YOPS   C4A 1966  17.951   0.674   8.511  0.0588  0.0083  0.0139
  153YOPS   C1B 1967  18.223   0.322   9.631 -0.2356  0.1746 -0.1515
  153YOPS   C2B 1968  18.394   0.573   9.369  0.0302  0.0411  0.1041
  153YOPS   D3B 1969  18.349   1.027   9.244 -0.2097  0.1765  0.0065
  153YOPS   C4B 1970  18.163   1.265   9.421 -0.2276  0.1381  0.2080
  154YOPS   CNO 1971  14.313  18.139  10.692  0.3140 -0.2801 -0.0726
  154YOPS   PO4 1972  14.169  18.038  10.221  0.0527 -0.3227  0.0958
  154YOPS   GL1 1973  14.195  18.307   9.899 -0.1002 -0.1611 -0.0801
  154YOPS   GL2 1974  13.958  18.225   9.642 -0.0757 -0.0936  0.1986
  154YOPS   C1A 1975  14.399  18.385   9.542 -0.0584 -0.1446  0.0792
  154YOPS   D2A 1976  14.507  18.428   9.124 -0.0941 -0.3360  0.1546
  154YOPS   C3A 1977  14.308  18.246   8.808 -0.0513  0.0500 -0.1728
  154YOPS   C4A 1978  14.186  18.252   8.409 -0.0487  0.0526  0.0712
  154YOPS   C1B 1979  13.972  18.365   9.182  0.3831  0.0477 -0.1176
  154YOPS   C2B 1980  13.860  18.472   8.765  0.0732 -0.2282 -0.0306
  154YOPS   D3B 1981  13.520  18.455   8.488  0.3252  0.3289 -0.0873
  154YOPS   C4B 1982  13.120  18.426   8.366 -0.0788  0.2093 -0.1000
  155YOPS   CNO 1983   4.473   6.449   9.889 -0.0134  0.0477 -0.1064
  155YOPS   PO4 1984   4.484   6.851  10.042  0.2519  0.1338  0.2606
  155YOPS   GL1 1985   4.407   6.778   9.535  0.2659  0.3986  0.0181
  155YOPS   GL2 1986   4.444   7.077   9.477  0.2919 -0.1009  0.3328
  155YOPS   C1A 1987   4.081   6.706   9.193 -0.2889  0.4002  0.2394
  155YOPS   D2A 1988   3.989   6.722   8.753 -0.3454 -0.2044 -0.0677
  155YOPS   C3A 1989   4.140   6.719   8.364 -0.0398  0.0558  0.2740
  155YOPS   C4A 1990   3.894   6.526   8.202  0.1899  0.1056  0.0611
  155YOPS   C1B 1991   4.538   6.989   8.979 -0.0114  0.0969  0.1584
  155YOPS   C2B 1992   4.620   7.036   8.554  0.2349 -0.1474 -0.1571
  155YOPS   D3B 1993   4.639   7.171   8.155  0.2083 -0.0016  0.0686
  155YOPS   C4B 1994   4.968   7.007   7.821  0.2340  0.1015  0.1465
  156YOPS   CNO 1995  13.371   9.420  10.398  0.1588 -0.1646  0.0592
  156YOPS   PO4 1996  13.355   9.062  10.227  0.0402 -0.2884  0.2126
  156YOPS   GL1 1997  13.254   8.977   9.764 -0.1996 -0.1483 -0.3311
  156YOPS   GL2 1998  12.904   8.811   9.724 -0.1243 -0.0496 -0.1746
  156YOPS   C1A 1999  13.347   8.898   9.327  0.0600  0.4085 -0.2488
  156YOPS   D2A 2000  13.443   8.974   8.830  0.0758 -0.1930  0.0423
  156YOPS   C3A 2001  13.323   9.157   8.395 -0.0569 -0.0209 -0.0506
  156YOPS   C4A 2002  13.622   9.517   8.381 -0.2947 -0.3248  0.2430
  156YOPS   C1B 2003  12.821   8.696   9.252  0.1024  0.2599  0.0074
  156YOPS   C2B 2004  12.978   8.408   8.965 -0.1152 -0.0821  0.0748
  156YOPS   D3B 2005  12.810   8.183   8.515 -0.1358 -0.4326 -0.1036
  156YOPS   C4B 2006  12.628   8.420   8.142 -0.0219  0.1132  0.1986
  157YOPS   CNO 2007   4.975   9.112  10.299 -0.0001  0.1866  0.1646
  157YOPS   PO4 2008   5.256   8.962  10.010 -0.1501 -0.0573 -0.1868
  157YOPS   GL1 2009   5.051   9.149   9.613 -0.0623  0.0140 -0.0559
  157YOPS   GL2 2010   5.335   9.320   9.542 -0.0095 -0.0856 -0.2375
  157YOPS   C1A 2011   5.137   8.979   9.175 -0.1467  0.0925  0.3129
  157YOPS   D2A 2012   5.033   9.134   8.746  0.0321 -0.2133  0.0414
  157YOPS   C3A 2013   4.991   9.071   8.251 -0.1239  0.3556 -0.1550
  157YOPS   C4A 2014   4.966   9.286   7.884 -0.0740 -0.4301  0.1223
  157YOPS   C1B 2015   5.090   9.470   9.130  0.0222  0.1001 -0.1266
  157YOPS   C2B 2016   5.171   9.884   8.799  0.0154 -0.0065 -0.0573
  157YOPS   D3B 2017   5.339  10.185   8.777  0.0425 -0.1494  0.2174
  157YOPS   C4B 2018   5.354  10.112   8.312  0.2186 -0.1851 -0.3989
  158YOPS   CNO 2019   3.857  12.539  10.346  0.1835  0.0426 -0.2098
  158YOPS   PO4 2020   3.949  12.297  10.046  0.1792  0.2095  0.3273
  158YOPS   GL1 2021   4.278  12.408   9.626 -0.0236  0.1450  0.1542
  158YOPS   GL2 2022   4.179  12.187   9.413  0.0803  0.1089  0.2988
  158YOPS   C1A 2023   4.303  12.660   9.229  0.1516  0.0101  0.1506
  158YOPS   D2A 2024   4.502  12.691   8.869  0.1173 -0.1138  0.1215
  158YOPS   C3A 2025   4.515  12.805   8.491  0.0232 -0.1716  0.1358
  158YOPS   C4A 2026   4.837  12.615   8.118 -0.1191  0.2914 -0.3048
  158YOPS   C1B 2027   4.067  12.289   8.952 -0.0604 -0.1082  0.0435
  158YOPS   C2B 2028   4.069  12.216   8.555  0.1914 -0.0658  0.0398
  158YOPS   D3B 2029   4.220  12.247   8.126  0.1874 -0.0649  0.3076
  158YOPS   C4B 2030   4.166  12.106   7.811 -0.0557 -0.0186  0.0328
  159YOPS   CNO 2031   1.199  13.713   9.837 -0.1431  0.0020 -0.0320
  159YOPS   PO4 2032   1.124  14.087  10.046  0.1313  0.1035  0.0933
  159YOPS   GL1 2033   0.869  14.067   9.668 -0.1616 -0.1246 -0.0933
  159YOPS   GL2 2034   0.911  13.762   9.422 -0.0084 -0.1962 -0.1209
  159YOPS   C1A 2035   0.697  14.313   9.225 -0.0549  0.0371  0.1430
  159YOPS   D2A 2036   0.435  14.587   9.034  0.0941  0.1660 -0.2762
  159YOPS   C3A 2037   0.385  14.691   8.552  0.0566 -0.1133 -0.0362
  159YOPS   C4A 2038   0.603  14.348   8.296 -0.2444 -0.2079 -0.0438
  159YOPS   C1B 2039   0.883  13.870   9.003 -0.1331 -0.2127  0.3290
  159YOPS   C2B 2040   0.788  13.825   8.563  0.0505  0.2419  0.0709
  159YOPS   D3B 2041   0.556  13.534   8.358 -0.3170 -0.0998 -0.1088
  159YOPS   C4B 2042   0.643  13.160   8.421  0.0091  0.4548 -0.2385
  160YOPS   CNO 2043   8.236  18.139  10.368  0.1634  0.0778 -0.0334
  160YOPS   PO4 2044   8.505  18.425  10.389 -0.2062  0.1353  0.0478
  160YOPS   GL1 2045   8.379  18.350   9.850 -0.1087 -0.0910  0.3900
  160YOPS   GL2 2046   8.193  18.577   9.956  0.0594 -0.0764 -0.0013
  160YOPS   C1A 2047   8.118  18.300   9.453  0.0839 -0.1538 -0.0066
  160YOPS   D2A 2048   7.711  18.492   9.215  0.3054  0.2204  0.1336
  160YOPS   C3A 2049   7.330  18.514   9.128  0.2432 -0.2468  0.0613
  160YOPS   C4A 2050   7.001  18.278   9.443  0.3141  0.0785 -0.1032
  160YOPS   C1B 2051   7.767  18.401   9.901 -0.0054 -0.0503  0.3355
  160YOPS   C2B 2052   7.466  18.040   9.619  0.1211  0.1896 -0.1011
  160YOPS   D3B 2053   7.142  17.726   9.573  0.3749  0.0102 -0.3684
  160YOPS   C4B 2054   6.781  17.853   9.394 -0.2251 -0.2016 -0.0380
  161YOPS   CNO 2055   7.276  10.232  10.695 -0.1747 -0.0983 -0.0776
  161YOPS   PO4 2056   7.438  10.555  10.444 -0.2107 -0.0416  0.1673
  161YOPS   GL1 2057   7.614  10.511  10.045  0.3767  0.1548  0.0336
  161YOPS   GL2 2058   7.749  10.259   9.894  0.3863  0.1410 -0.3919
  161YOPS   C1A 2059   7.867  10.762   9.686 -0.1092  0.0678 -0.0274
  161YOPS   D2A 2060   8.246  10.989   9.430  0.1086  0.1003 -0.0745
  161YOPS   C3A 2061   8.645  11.129   9.504  0.0071  0.0421 -0.1421
  161YOPS   C4A 2062   9.095  11.076   9.378 -0.2331  0.1335  0.0600
  161YOPS   C1B 2063   7.771  10.126   9.476 -0.2252 -0.0375  0.1696
  161YOPS   C2B 2064   7.718   9.967   9.127  0.0253  0.1084  0.0036
  161YOPS   D3B 2065   7.495  10.135   8.703  0.0277  0.3029 -0.0342
  161YOPS   C4B 2066   7.713  10.350   8.274 -0.2255 -0.0951 -0.1635
  162YOPS   CNO 2067   8.511  11.362  10.460  0.1982 -0.2075 -0.0527
  162YOPS   PO4 2068   8.278  11.641  10.244  0.0103 -0.2804  0.2820
  162YOPS   GL1 2069   8.381  11.690   9.803  0.1355  0.2445 -0.1056
  162YOPS   GL2 2070   8.381  11.943   9.610  0.0462 -0.1323  0.1821
  162YOPS   C1A 2071   8.284  11.482   9.469 -0.2306  0.0544  0.1151
  162YOPS   D2A 2072   8.238  11.268   9.030 -0.2965  0.1977  0.0157
  162YOPS   C3A 2073   8.011  11.103   8.690 -0.2124  0.0605 -0.3116
  162YOPS   C4A 2074   7.917  10.723   8.604  0.1977  0.2038 -0.0211
  162YOPS   C1B 2075   8.560  11.773   9.273  0.2900  0.1026 -0.0898
  162YOPS   C2B 2076   8.834  11.444   9.169  0.1033  0.1561 -0.0174
  162YOPS   D3B 2077   9.005  11.224   8.832 -0.1128 -0.2231 -0.1874
  162YOPS   C4B 2078   9.138  11.083   8.417  0.2035  0.2764 -0.0466
  163YOPS   CNO 2079   9.170   6.802  10.925  0.0200  0.4607 -0.0421
  163YOPS   PO4 2080   9.556   6.738  10.667  0.1718 -0.0663 -0.2185
  163YOPS   GL1 2081   9.515   6.725  10.246  0.2370 -0.0390 -0.1602
  163YOPS   GL2 2082   9.415   6.393  10.191 -0.3090  0.2877 -0.2199
  163YOPS   C1A 2083   9.494   6.930   9.785 -0.5520 -0.0409 -0.4176
  163YOPS   D2A 2084   9.391   7.028   9.444 -0.0029  0.0700  0.2427
  163YOPS   C3A 2085   9.222   6.897   9.098 -0.0281 -0.0169 -0.2094
  163YOPS   C4A 2086   9.023   7.184   8.757  0.0379 -0.2415 -0.0756
  163YOPS   C1B 2087   9.557   6.428   9.778  0.1877 -0.1308 -0.1032
  163YOPS   C2B 2088   9.595   6.558   9.416 -0.0107 -0.0542  0.3963
  163YOPS   D3B 2089   9.654   6.516   9.036 -0.0490  0.0835 -0.2631
  163YOPS   C4B 2090   9.699   6.806   8.774 -0.1467 -0.1684 -0.0196
  164YOPS   CNO 2091  16.848   3.530  10.107  0.1233 -0.1619 -0.0165
  164YOPS   PO4 2092  17.102   3.359  10.304  0.2492  0.0948  0.3538
  164YOPS   GL1 2093  17.232   3.249   9.867 -0.2547 -0.0658 -0.2910
  164YOPS   GL2 2094  17.390   3.008   9.696 -0.0433 -0.1150 -0.0336
  164YOPS   C1A 2095  17.255   3.462   9.543 -0.1325  0.0733 -0.1780
  164YOPS   D2A 2096  17.237   3.383   9.185 -0.4064  0.1124  0.2082
  164YOPS   C3A 2097  17.256   3.550   8.778  0.1511 -0.1531 -0.0443
  164YOPS   C4A 2098  17.226   3.288   8.476  0.2729 -0.1467 -0.3183
  164YOPS   C1B 2099  17.610   3.022   9.312 -0.0009 -0.2652  0.2862
  164YOPS   C2B 2100  17.628   3.067   8.895  0.1855 -0.3210 -0.2262
  164YOPS   D3B 2101  17.981   3.053   8.603 -0.0478 -0.2880  0.1522
  164YOPS   C4B 2102  17.896   2.940   8.193 -0.4244 -0.0350 -0.1961
  165YOPS   CNO 2103   3.193   5.052  10.506  0.0220 -0.1046  0.2540
  165YOPS   PO4 2104   2.995   5.330  10.260  0.0374 -0.0770  0.0554
  165YOPS   GL1 2105   2.784   5.169   9.913 -0.0812 -0.2368  0.0132
  165YOPS   GL2 2106   2.586   4.852   9.972  0.1067  0.0352 -0.1625
  165YOPS   C1A 2107   2.553   5.307   9.427 -0.3333 -0.0457 -0.2679
  165YOPS   D2A 2108   2.530   5.182   8.943  0.1186  0.2092 -0.3383
  165YOPS   C3A 2109   2.297   5.148   8.526 -0.1317 -0.2471 -0.2143
  165YOPS   C4A 2110   2.373   5.459   8.310 -0.2315 -0.0419  0.0855
  165YOPS   C1B 2111   2.764   4.799   9.565  0.2420  0.0813  0.2421
  165YOPS   C2B 2112   2.841   4.887   9.178 -0.1680 -0.2896  0.0845
  165YOPS   D3B 2113   3.100   4.833   8.880  0.1377 -0.2545 -0.0734
  165YOPS   C4B 2114   3.088   4.722   8.446  0.3954 -0.0552  0.1934
  166YOPS   CNO 2115   0.277   2.615  10.095  0.0270  0.0860 -0.0851
  166YOPS   PO4 2116   0.029   2.959  10.067 -0.1564 -0.0488 -0.0509
  166YOPS   GL1 2117   0.190   2.887   9.662 -0.1670  0.1108  0.1245
  166YOPS   GL2 2118   0.137   2.744   9.548  0.1991 -0.0001 -0.0319
  166YOPS   C1A 2119   0.451   2.997   9.222  0.2915  0.0917 -0.0041
  166YOPS   D2A 2120   0.381   3.088   8.787 -0.2291  0.0302  0.1217
  166YOPS   C3A 2121   0.404   3.181   8.269 -0.2276  0.1408  0.1995
  166YOPS   C4A 2122   0.154   3.517   8.066  0.3512 -0.2293  0.2061
  166YOPS   C1B 2123  -0.063   2.537   9.306 -0.1887 -0.1344  0.0365
  166YOPS   C2B 2124   0.019   2.219   9.069  0.1547 -0.1902 -0.0283
  166YOPS   D3B 2125  -0.008   1.879   8.804 -0.2633 -0.0183 -0.0355
  166YOPS   C4B 2126   0.122   1.852   8.379 -0.1925  0.0328 -0.2462
  167YOPS   CNO 2127   2.667   2.317  10.838 -0.0463 -0.0384 -0.0854
  167YOPS   PO4 2128   2.741   2.591  10.521 -0.0359  0.3376 -0.0471
  167YOPS   GL1 2129   2.679   2.659  10.181  0.0790 -0.1628 -0.2823
  167YOPS   GL2 2130   2.549   3.109  10.019  0.3880  0.0849 -0.0032
  167YOPS   C1A 2131   2.733   2.450   9.735  0.1477 -0.0293 -0.0778
  167YOPS   D2A 2132   2.873   2.573   9.275 -0.0331 -0.3765 -0.3750
  167YOPS   C3A 2133   2.788   2.602   8.860 -0.1551  0.0730 -0.0325
  167YOPS   C4A 2134   2.752   2.264   8.540 -0.1569 -0.0972  0.0831
  167YOPS   C1B 2135   2.215   3.180   9.744  0.0022  0.1837 -0.0537
  167YOPS   C2B 2136   1.858   3.430   9.532 -0.1145 -0.0725  0.5271
  167YOPS   D3B 2137   1.741   3.332   9.066 -0.0600 -0.2928  0.1446
  167YOPS   C4B 2138   1.437   3.078   8.963 -0.2426  0.1941 -0.3745
  168POPE   NH3 2139   8.114   6.882  10.421 -0.0500  0.2062  0.1967
  168POPE   PO4 2140   7.843   6.907  10.242 -0.2577  0.0847 -0.1231
  168POPE   GL1 2141   7.601   7.060   9.904 -0.2538  0.0128  0.0728
  168POPE   GL2 2142   7.622   7.333   9.854 -0.1034 -0.2337 -0.0933
  168POPE   C1A 2143   7.503   7.015   9.463 -0.1439  0.2269  0.1654
  168POPE   D2A 2144   7.073   7.034   9.169 -0.0169  0.2464  0.0106
  168POPE   C3A 2145   7.006   6.943   8.761  0.0374 -0.1208 -0.2707
  168POPE   C4A 2146   6.816   7.241   8.652  0.1481  0.2565  0.0614
  168POPE   C1B 2147   7.758   7.370   9.343  0.0047 -0.1975  0.2744
  168POPE   C2B 2148   7.737   7.620   9.023 -0.2315  0.0019  0.3209
  168POPE   C3B 2149   7.535   7.900   8.782  0.1115  0.3092 -0.1205
  168POPE   C4B 2150   7.235   8.135   8.742 -0.0997 -0.1236  0.1284
  169POPE   NH3 2151   9.617  17.442  10.128 -0.3361 -0.2608 -0.1111
  169POPE   PO4 2152   9.760  16.950  10.176 -0.1612  0.2733 -0.1267
  169POPE   GL1 2153   9.924  16.978   9.778  0.1669  0.0099 -0.1987
  169POPE   GL2 2154   9.789  17.238   9.630 -0.0357  0.1055 -0.0273
  169POPE   C1A 2155  10.168  16.963   9.383  0.2358 -0.1569  0.1226
  169POPE   D2A 2156  10.528  16.889   9.217  0.3200 -0.0142 -0.1803
  169POPE   C3A 2157  10.548  17.017   8.756  0.3346  0.2836  0.3239
  169POPE   C4A 2158  10.623  17.077   8.326 -0.2012  0.1130  0.2552
  169POPE   C1B 2159  10.081  17.459   9.368  0.1969  0.2107 -0.1301
  169POPE   C2B 2160  10.147  17.245   8.930 -0.1553 -0.2827 -0.0848
  169POPE   C3B 2161  10.127  17.066   8.480  0.0738 -0.1400  0.1331
  169POPE   C4B 2162  10.137  17.256   8.129 -0.5246  0.4022 -0.0618
  170POPE   NH3 2163   1.542   1.729  10.298  0.3046  0.3271 -0.1043
  170POPE   PO4 2164   1.197   1.891  10.315 -0.2210  0.1399  0.0082
  170POPE   GL1 2165   0.994   1.994   9.930 -0.1420  0.3057  0.1124
  170POPE   GL2 2166   0.723   1.873   9.933  0.1597 -0.0293  0.0297
  170POPE   C1A 2167   0.966   2.145   9.503 -0.1355 -0.1133 -0.2172
  170POPE   D2A 2168   0.918   2.197   9.109 -0.1593  0.0952 -0.1697
  170POPE   C3A 2169   0.807   2.450   8.671 -0.1042 -0.0660  0.0282
  170POPE   C4A 2170   0.664   2.782   8.537  0.2807 -0.0120  0.1259
  170POPE   C1B 2171   0.761   1.617   9.559 -0.1592  0.1289  0.3490
  170POPE   C2B 2172   0.662   1.356   9.162 -0.3852 -0.1243  0.1512
  170POPE   C3B 2173   0.659   1.102   8.822  0.2834  0.0301 -0.0300
  170POPE   C4B 2174   0.763   0.890   8.352  0.0792  0.1926  0.0719
  171POPE   NH3 2175   9.571   0.492  10.060  0.0664 -0.2773 -0.0317
  171POPE   PO4 2176   9.174   0.349   9.980  0.1705 -0.2084 -0.2438
  171POPE   GL1 2177   9.263   0.542   9.593  0.1683 -0.1419  0.2230
  171POPE   GL2 2178   8.867   0.510   9.491 -0.0941 -0.2950  0.0978
  171POPE   C1A 2179   9.239   0.696   9.160 -0.2455  0.1934  0.1112
  171POPE   D2A 2180   9.358   0.967   8.908 -0.0842  0.0689  0.2930
  171POPE   C3A 2181   9.499   1.054   8.546 -0.3421  0.1886 -0.1129
  171POPE   C4A 2182   9.828   1.250   8.364  0.0711  0.0873 -0.1741
  171POPE   C1B 2183   8.735   0.585   9.131 -0.1340 -0.0964 -0.2029
  171POPE   C2B 2184   8.529   0.383   8.808  0.0013  0.0427  0.1755
  171POPE   C3B 2185   8.393   0.549   8.413 -0.1493  0.0014 -0.0530
  171POPE   C4B 2186   8.563   0.777   8.180  0.0089 -0.1800  0.2327
  172POPE   NH3 2187  16.047  16.193  10.210 -0.0068  0.3188 -0.0317
  172POPE   PO4 2188  15.907  15.750  10.205  0.2335  0.0862 -0.1394
  172POPE   GL1 2189  16.049  15.530   9.816 -0.0441  0.0225 -0.1619
  172POPE   GL2 2190  15.813  15.407   9.604  0.0668 -0.0862  0.2414
  172POPE   C1A 2191  16.221  15.712   9.430  0.2478 -0.0363  0.0224
  172POPE   D2A 2192  16.421  15.811   8.958  0.1822 -0.2812 -0.0410
  172POPE   C3A 2193  16.396  15.551   8.602  0.1814 -0.2203  0.2512
  172POPE   C4A 2194  16.241  15.618   8.226 -0.1649 -0.2359 -0.2077
  172POPE   C1B 2195  15.663  15.484   9.190 -0.0946 -0.2695  0.0757
  172POPE   C2B 2196  15.546  15.515   8.779 -0.4072  0.0095 -0.0887
  172POPE   C3B 2197  15.561  15.801   8.495 -0.1421  0.3120  0.2023
  172POPE   C4B 2198  15.726  15.992   8.147  0.0764  0.0535  0.2247
  173POPE   NH3 2199  16.314   2.070  10.225 -0.0125 -0.0189 -0.2287
  173POPE   PO4 2200  16.618   1.807  10.105 -0.2632 -0.0183 -0.1590
  173POPE   GL1 2201  16.685   1.607   9.735 -0.3840 -0.1404  0.1056
  173POPE   GL2 2202  16.445   1.340   9.541  0.1698  0.1899 -0.5427
  173POPE   C1A 2203  16.803   1.617   9.313 -0.1317  0.0150  0.1705
  173POPE   D2A 2204  16.932   1.383   8.904 -0.1745  0.0642  0.0919
  173POPE   C3A 2205  17.233   1.456   8.604  0.3828 -0.2960  0.1057
  173POPE   C4A 2206  17.666   1.560   8.524 -0.4149  0.0229 -0.0677
  173POPE   C1B 2207  16.574   1.191   9.127  0.2233  0.0058 -0.0715
  173POPE   C2B 2208  16.421   0.834   8.874  0.0413  0.0331  0.3280
  173POPE   C3B 2209  16.280   0.847   8.483  0.0591  0.1796 -0.4366
  173POPE   C4B 2210  16.201   1.187   8.234  0.0976  0.2906 -0.0811
  174POPE   NH3 2211   8.519   4.243  10.345 -0.1328 -0.2189 -0.1178
  174POPE   PO4 2212   8.922   4.422  10.434  0.1240  0.0953  0.0266
  174POPE   GL1 2213   8.840   4.647  10.037  0.2371  0.0997 -0.0421
  174POPE   GL2 2214   8.588   4.416   9.854 -0.2205  0.2062 -0.0521
  174POPE   C1A 2215   8.665   5.098   9.831 -0.2836 -0.1044 -0.0315
  174POPE   D2A 2216   8.751   5.366   9.431 -0.0321 -0.0964  0.1032
  174POPE   C3A 2217   8.613   5.560   9.102  0.1786 -0.2910  0.2077
  174POPE   C4A 2218   8.584   5.874   8.826  0.0329 -0.1361 -0.2550
  174POPE   C1B 2219   8.415   4.752   9.622  0.0866 -0.1798  0.0054
  174POPE   C2B 2220   8.528   4.952   9.295  0.0453 -0.1795 -0.3554
  174POPE   C3B 2221   8.578   5.098   8.957  0.2483  0.0164  0.2291
  174POPE   C4B 2222   8.677   5.436   8.619  0.1503 -0.1805 -0.1555
  175POPE   NH3 2223   2.559  11.069   9.962 -0.2452 -0.4770 -0.2153
  175POPE   PO4 2224   3.011  11.220   9.973 -0.0442 -0.1945  0.4411
  175POPE   GL1 2225   2.961  11.016   9.616 -0.2274  0.1032  0.0739
  175POPE   GL2 2226   3.184  10.673   9.601  0.1649 -0.0024 -0.0533
  175POPE   C1A 2227   2.831  10.983   9.213 -0.2631  0.4286  0.0101
  175POPE   D2A 2228   2.523  11.119   8.922 -0.1168 -0.1411 -0.1939
  175POPE   C3A 2229   2.405  11.013   8.524  0.0187  0.0717 -0.1039
  175POPE   C4A 2230   2.120  11.200   8.257 -0.3742 -0.1110 -0.1475
  175POPE   C1B 2231   3.350  10.895   9.370 -0.1492 -0.2082 -0.1442
  175POPE   C2B 2232   3.550  11.047   8.992 -0.1085  0.0898  0.0516
  175POPE   C3B 2233   3.828  11.261   8.883 -0.0142  0.0897  0.0474
  175POPE   C4B 2234   4.302  11.311   8.726  0.0079 -0.2469 -0.3338
  176POPE   NH3 2235   0.852  11.364  10.695  0.2033  0.2329 -0.3016
  176POPE   PO4 2236   0.852  11.668  10.391  0.0355  0.1200  0.2116
  176POPE   GL1 2237   0.952  11.878  10.023 -0.0077  0.0723 -0.0938
  176POPE   GL2 2238   1.089  11.769   9.831 -0.3167 -0.3168 -0.1312
  176POPE   C1A 2239   0.681  12.041   9.660  0.1096  0.0642  0.3605
  176POPE   D2A 2240   0.945  12.243   9.271 -0.3165  0.4315  0.1696
  176POPE   C3A 2241   0.719  12.347   8.945  0.1722  0.2719  0.1453
  176POPE   C4A 2242   0.592  12.310   8.535  0.1307  0.1017  0.1489
  176POPE   C1B 2243   1.073  11.778   9.356 -0.0567 -0.0919 -0.0895
  176POPE   C2B 2244   0.899  11.890   8.896 -0.0212 -0.2137  0.1294
  176POPE   C3B 2245   0.934  11.697   8.537 -0.0405 -0.3757 -0.1632
  176POPE   C4B 2246   1.197  11.610   8.091  0.0628 -0.0080 -0.0270
  177POPE   NH3 2247  15.317   1.817  10.103 -0.1425 -0.0021 -0.0704
  177POPE   PO4 2248  15.132   2.146  10.193  0.0136  0.0433 -0.0542
  177POPE   GL1 2249  14.961   2.127   9.853 -0.1529 -0.1269  0.0997
  177POPE   GL2 2250  14.837   2.454   9.682 -0.2219  0.1001 -0.0366
  177POPE   C1A 2251  14.905   2.057   9.350  0.1941  0.1268 -0.1882
  177POPE   D2A 2252  15.086   2.234   8.948 -0.0421 -0.0624  0.1642
  177POPE   C3A 2253  14.994   1.953   8.689  0.0445 -0.0755  0.1577
  177POPE   C4A 2254  14.993   1.785   8.317 -0.0323  0.0715  0.2291
  177POPE   C1B 2255  14.800   2.623   9.369 -0.0403 -0.2362  0.1511
  177POPE   C2B 2256  14.763   2.668   9.008 -0.0946  0.3367 -0.2850
  177POPE   C3B 2257  14.616   2.555   8.605  0.0640 -0.1234  0.1007
  177POPE   C4B 2258  14.602   2.092   8.338  0.0584  0.2711 -0.3076
  178POPE   NH3 2259  12.623   6.434  10.183 -0.0954  0.0702  0.3427
  178POPE   PO4 2260  12.938   6.626  10.460 -0.1379  0.1436  0.1972
  178POPE   GL1 2261  13.000   6.852  10.061 -0.1473 -0.0870  0.2784
  178POPE   GL2 2262  13.030   6.574   9.877 -0.0796 -0.2748  0.4159
  178POPE   C1A 2263  12.941   7.056   9.707  0.1568  0.0657 -0.2303
  178POPE   D2A 2264  12.698   6.856   9.473 -0.1398  0.3218 -0.3137
  178POPE   C3A 2265  12.763   7.028   9.058 -0.1806 -0.1445 -0.0918
  178POPE   C4A 2266  12.849   7.314   8.716  0.1504  0.0698  0.0152
  178POPE   C1B 2267  13.160   6.660   9.468  0.0864 -0.0803  0.0724
  178POPE   C2B 2268  13.040   6.571   9.038  0.0716 -0.0473 -0.1996
  178POPE   C3B 2269  13.176   6.460   8.552 -0.1733  0.0334  0.5050
  178POPE   C4B 2270  13.328   6.320   8.212  0.1484  0.2161 -0.1138
  179POPE   NH3 2271   5.858  13.936   9.401 -0.0295 -0.3005 -0.4109
  179POPE   PO4 2272   6.182  13.930   9.636 -0.1872  0.1211 -0.0222
  179POPE   GL1 2273   6.352  14.081   9.242  0.0944  0.0972  0.1650
  179POPE   GL2 2274   6.265  14.390   9.246  0.0073 -0.1208 -0.2370
  179POPE   C1A 2275   6.498  13.821   8.921  0.3854 -0.1077  0.4283
  179POPE   D2A 2276   6.772  13.721   8.485  0.0337 -0.0538 -0.0637
  179POPE   C3A 2277   7.019  13.956   8.261 -0.0264 -0.2830  0.2053
  179POPE   C4A 2278   7.395  13.949   8.026  0.2561 -0.2639  0.0307
  179POPE   C1B 2279   6.174  14.573   8.979 -0.1779 -0.0346 -0.2585
  179POPE   C2B 2280   6.267  14.473   8.535  0.0849 -0.2998 -0.1286
  179POPE   C3B 2281   6.468  14.584   8.068  0.6136 -0.0601  0.0846
  179POPE   C4B 2282   6.360  14.775   7.624  0.2820  0.0288 -0.0014
  180POPE   NH3 2283  17.543  11.381  10.367  0.0616 -0.3109 -0.2544
  180POPE   PO4 2284  17.477  11.816  10.308 -0.1069  0.1185  0.1527
  180POPE   GL1 2285  17.576  11.930   9.927  0.0528 -0.2406 -0.2407
  180POPE   GL2 2286  17.850  12.156   9.823 -0.0037  0.0449 -0.1497
  180POPE   C1A 2287  17.334  11.837   9.484  0.1000  0.1118  0.1040
  180POPE   D2A 2288  16.957  11.827   9.121 -0.0157 -0.1807  0.0349
  180POPE   C3A 2289  16.769  11.484   8.982  0.0801  0.1685  0.0357
  180POPE   C4A 2290  16.695  11.058   9.047 -0.0069 -0.1292 -0.1306
  180POPE   C1B 2291  17.540  12.291   9.544  0.0678  0.1868 -0.0675
  180POPE   C2B 2292  17.364  12.214   9.159 -0.0924  0.1372 -0.1065
  180POPE   C3B 2293  17.369  11.915   8.806  0.1854  0.1516  0.0689
  180POPE   C4B 2294  17.687  11.966   8.393 -0.1147  0.2070  0.5178
  181POPE   NH3 2295  17.332  15.428   9.891  0.3509  0.1435  0.3875
  181POPE   PO4 2296  17.712  15.683   9.827  0.1808 -0.1123  0.2011
  181POPE   GL1 2297  17.483  15.854   9.550  0.0209 -0.1093 -0.3081
  181POPE   GL2 2298  17.645  16.025   9.429  0.0901  0.2242  0.0626
  181POPE   C1A 2299  17.309  15.684   9.129  0.0997 -0.2755 -0.2094
  181POPE   D2A 2300  17.285  15.614   8.772  0.2982 -0.0898  0.1206
  181POPE   C3A 2301  17.104  15.330   8.456 -0.0811  0.2603 -0.0045
  181POPE   C4A 2302  16.732  15.238   8.283 -0.0060 -0.1278  0.2131
  181POPE   C1B 2303  17.756  15.819   9.066 -0.1193 -0.0229 -0.2070
  181POPE   C2B 2304  17.803  15.625   8.737 -0.1222 -0.1946 -0.2023
  181POPE   C3B 2305  17.870  15.426   8.307 -0.2033  0.3001  0.0699
  181POPE   C4B 2306  18.063  15.062   8.008 -0.0174  0.0402  0.2327
  182POPE   NH3 2307   9.079  16.615   9.613 -0.0117  0.0584  0.2665
  182POPE   PO4 2308   8.597  16.507   9.556  0.0346  0.1048  0.3481
  182POPE   GL1 2309   8.689  16.629   9.161 -0.3244  0.3402  0.4026
  182POPE   GL2 2310   8.900  16.430   9.148  0.2933  0.0817 -0.2131
  182POPE   C1A 2311   8.693  16.550   8.727 -0.3049 -0.2035  0.1801
  182POPE   D2A 2312   8.645  16.620   8.261  0.0161  0.0705  0.1691
  182POPE   C3A 2313   8.323  16.582   7.922 -0.0660  0.1546 -0.0912
  182POPE   C4A 2314   8.390  16.812   7.567 -0.2280  0.5182 -0.0101
  182POPE   C1B 2315   9.001  16.249   8.842 -0.0798 -0.1371 -0.1427
  182POPE   C2B 2316   9.119  16.092   8.418 -0.4519  0.2058 -0.2195
  182POPE   C3B 2317   9.092  16.188   8.070 -0.0414 -0.0975 -0.1486
  182POPE   C4B 2318   8.971  16.609   7.916  0.0867  0.2426 -0.1136
  183POPE   NH3 2319  14.914  13.646  10.430 -0.0370 -0.4052 -0.0714
  183POPE   PO4 2320  14.576  13.695  10.207 -0.0632 -0.3564  0.1789
  183POPE   GL1 2321  14.579  13.696   9.777  0.1692 -0.0236  0.1475
  183POPE   GL2 2322  14.268  13.691   9.662  0.0899  0.2131  0.1910
  183POPE   C1A 2323  14.748  13.472   9.326  0.0781 -0.2883 -0.4734
  183POPE   D2A 2324  14.928  13.120   9.067 -0.2569 -0.0309  0.0825
  183POPE   C3A 2325  14.752  12.682   9.020  0.1221 -0.0923  0.2015
  183POPE   C4A 2326  15.043  12.426   8.903 -0.2545 -0.2234 -0.0391
  183POPE   C1B 2327  14.228  13.471   9.306  0.1445 -0.2570  0.0645
  183POPE   C2B 2328  14.422  13.483   8.956 -0.1588  0.2339 -0.2177
  183POPE   C3B 2329  14.706  13.328   8.680  0.3012  0.0975 -0.0709
  183POPE   C4B 2330  15.046  13.072   8.537 -0.3128 -0.2706 -0.0636
  184POPE   NH3 2331   1.640   6.488  10.551 -0.2516  0.2519 -0.0639
  184POPE   PO4 2332   1.978   6.470  10.275  0.1775  0.0673 -0.1609
  184POPE   GL1 2333   1.839   6.395   9.888 -0.0470 -0.2663 -0.2203
  184POPE   GL2 2334   1.851   6.711   9.721  0.0184 -0.0535  0.0760
  184POPE   C1A 2335   1.551   6.273   9.673  0.1011 -0.3112 -0.0278
  184POPE   D2A 2336   1.359   6.373   9.374  0.1380 -0.1456 -0.3007
  184POPE   C3A 2337   0.979   6.684   9.317 -0.3755 -0.2852  0.2527
  184POPE   C4A 2338   0.728   6.957   9.168  0.0203 -0.0041  0.2086
  184POPE   C1B 2339   1.977   6.468   9.409  0.0262  0.0150 -0.4054
  184POPE   C2B 2340   2.235   6.237   9.194  0.0201  0.2813  0.2361
  184POPE   C3B 2341   2.244   6.158   8.675 -0.0347 -0.0373 -0.0803
  184POPE   C4B 2342   2.295   6.274   8.230  0.0067  0.3753  0.1645
  185POPE   NH3 2343  13.920  12.300  10.621  0.0587 -0.1136  0.0058
  185POPE   PO4 2344  14.275  12.563  10.577  0.1328  0.1044 -0.0979
  185POPE   GL1 2345  14.439  12.506  10.163  0.0585 -0.2272 -0.0975
  185POPE   GL2 2346  14.312  12.854  10.086  0.0259 -0.0065  0.0219
  185POPE   C1A 2347  14.693  12.189   9.937  0.1103  0.0426  0.2133
  185POPE   D2A 2348  14.867  11.780   9.708  0.0929  0.0146  0.0986
  185POPE   C3A 2349  14.927  11.875   9.312  0.0843  0.3928 -0.2671
  185POPE   C4A 2350  15.083  11.936   8.922  0.0938  0.1364 -0.3117
  185POPE   C1B 2351  14.554  12.756   9.725 -0.0157 -0.3884  0.2351
  185POPE   C2B 2352  14.651  12.472   9.408 -0.1685 -0.2349 -0.4522
  185POPE   C3B 2353  14.624  12.215   9.024 -0.1113 -0.0880 -0.2245
  185POPE   C4B 2354  14.390  12.068   8.615  0.0842  0.1886  0.0078
  186POPE   NH3 2355   7.655   5.442  10.047  0.2097  0.0607  0.0141
  186POPE   PO4 2356   7.961   5.079  10.117 -0.0573 -0.2711  0.4531
  186POPE   GL1 2357   8.012   5.157   9.656  0.1324  0.2846 -0.0436
  186POPE   GL2 2358   7.845   5.465   9.555  0.0012 -0.0450 -0.0526
  186POPE   C1A 2359   8.183   5.302   9.211  0.0406  0.0193  0.3771
  186POPE   D2A 2360   8.180   5.406   8.792 -0.2004 -0.1189  0.3819
  186POPE   C3A 2361   8.357   5.090   8.434  0.3163  0.2685  0.0513
  186POPE   C4A 2362   8.445   4.792   8.213 -0.1228 -0.0731  0.1254
  186POPE   C1B 2363   7.783   5.109   9.171 -0.1950 -0.0332 -0.1951
  186POPE   C2B 2364   7.842   5.077   8.684 -0.3777  0.0997  0.0498
  186POPE   C3B 2365   7.833   5.403   8.361  0.1667  0.3976  0.1178
  186POPE   C4B 2366   7.893   5.717   8.076 -0.1149 -0.5382  0.1336
  187POPE   NH3 2367   0.700  12.492  10.130 -0.0215  0.1184 -0.1961
  187POPE   PO4 2368   0.533  12.693  10.429 -0.1438 -0.1239 -0.0124
  187POPE   GL1 2369   0.404  12.950  10.104  0.0964 -0.0886  0.1707
  187POPE   GL2 2370   0.443  12.806   9.864 -0.3066  0.2552 -0.0075
  187POPE   C1A 2371   0.341  13.422   9.961  0.1460  0.0226  0.1376
  187POPE   D2A 2372   0.463  13.684   9.646 -0.1861  0.0350 -0.1991
  187POPE   C3A 2373   0.374  13.721   9.282  0.0244 -0.0103  0.0646
  187POPE   C4A 2374   0.364  13.726   8.854 -0.1226  0.1197 -0.1735
  187POPE   C1B 2375   0.349  13.182   9.557 -0.2502 -0.0431  0.1074
  187POPE   C2B 2376   0.258  13.282   9.031  0.2691 -0.0083 -0.1507
  187POPE   C3B 2377   0.181  13.211   8.539 -0.0369  0.0925  0.1850
  187POPE   C4B 2378   0.021  13.150   8.124  0.1305  0.0987  0.1778
  188POPE   NH3 2379   3.636  15.117   9.852  0.0548  0.1696  0.0520
  188POPE   PO4 2380   3.981  15.453   9.900  0.0744  0.1256  0.2721
  188POPE   GL1 2381   3.950  15.261   9.389 -0.4159  0.4401 -0.0170
  188POPE   GL2 2382   3.659  15.213   9.318  0.2032  0.0172  0.2725
  188POPE   C1A 2383   3.956  14.972   8.975  0.0543  0.0333  0.2754
  188POPE   D2A 2384   3.896  14.875   8.444 -0.0555 -0.3613 -0.4207
  188POPE   C3A 2385   3.673  15.070   8.137  0.4397 -0.0089  0.3029
  188POPE   C4A 2386   3.321  15.228   7.950  0.1508  0.2186 -0.5939
  188POPE   C1B 2387   3.490  15.212   8.897 -0.0284  0.1397  0.2960
  188POPE   C2B 2388   3.297  15.102   8.489 -0.4334 -0.3322  0.1269
  188POPE   C3B 2389   3.209  14.769   8.205  0.1139 -0.2939 -0.1524
  188POPE   C4B 2390   3.179  14.493   7.906 -0.2931 -0.2190 -0.0056
  189POPE   NH3 2391   3.875   7.679   9.904  0.1079  0.0051  0.0787
  189POPE   PO4 2392   4.040   8.069   9.969 -0.0182 -0.1177  0.2331
  189POPE   GL1 2393   3.912   7.986   9.524  0.1442 -0.3901  0.1328
  189POPE   GL2 2394   3.947   8.253   9.363 -0.0062 -0.1508  0.0445
  189POPE   C1A 2395   3.907   7.740   9.126 -0.0485  0.0240 -0.0151
  189POPE   D2A 2396   3.909   7.616   8.694 -0.0712 -0.1743 -0.0801
  189POPE   C3A 2397   3.634   7.368   8.623  0.1078  0.2224 -0.0927
  189POPE   C4A 2398   3.286   6.990   8.565  0.2921 -0.1263  0.0595
  189POPE   C1B 2399   3.927   8.168   8.923  0.0827  0.0930  0.0822
  189POPE   C2B 2400   4.092   8.033   8.475  0.0353 -0.0897  0.4311
  189POPE   C3B 2401   4.061   8.161   8.102 -0.0024  0.1034 -0.0226
  189POPE   C4B 2402   4.013   8.042   7.726  0.1603 -0.1098  0.1528
  190POPE   NH3 2403  14.698   7.801  10.576 -0.1332 -0.2233  0.2354
  190POPE   PO4 2404  14.917   8.068  10.255 -0.1765  0.1522  0.1455
  190POPE   GL1 2405  15.022   7.957   9.862  0.0322 -0.0260  0.1421
  190POPE   GL2 2406  15.308   7.742   9.956 -0.1320 -0.1471  0.1359
  190POPE   C1A 2407  15.080   7.725   9.472  0.2670 -0.0230  0.1985
  190POPE   D2A 2408  14.856   7.398   9.257 -0.1455 -0.1349  0.1310
  190POPE   C3A 2409  15.062   7.269   8.920 -0.3123  0.1522  0.0381
  190POPE   C4A 2410  15.388   7.057   8.618 -0.4211 -0.1193 -0.2490
  190POPE   C1B 2411  15.516   7.887   9.539  0.2791 -0.1134  0.0101
  190POPE   C2B 2412  15.423   7.925   9.158 -0.1187  0.0761 -0.0349
  190POPE   C3B 2413  15.063   7.784   8.881 -0.0990  0.1636  0.0325
  190POPE   C4B 2414  14.667   7.637   8.623 -0.0827 -0.0006 -0.1348
  191POPE   NH3 2415   9.742  18.167   9.685 -0.1607 -0.0586 -0.1334
  191POPE   PO4 2416   9.633  18.537   9.671 -0.0923  0.0231 -0.1470
  191POPE   GL1 2417   9.662  18.571   9.266  0.1605  0.1382  0.0966
  191POPE   GL2 2418   9.407  18.726   9.129  0.1324 -0.1846 -0.2062
  191POPE   C1A 2419   9.747  18.344   8.950 -0.1939  0.1199 -0.0264
  191POPE   D2A 2420   9.698  18.264   8.479  0.1981  0.1980  0.2906
  191POPE   C3A 2421   9.458  18.388   8.209  0.2573 -0.0609 -0.2773
  191POPE   C4A 2422   9.033  18.278   8.192  0.2423  0.1808 -0.1365
  191POPE   C1B 2423   9.052  18.811   8.886  0.0403 -0.0132 -0.1489
  191POPE   C2B 2424   8.930  18.788   8.442 -0.0818  0.0999  0.2049
  191POPE   C3B 2425   8.623  18.670   8.189  0.1875 -0.1252 -0.0688
  191POPE   C4B 2426   8.488  18.916   7.841 -0.3513  0.3061  0.1945
  192POPE   NH3 2427   9.922   1.413  10.208  0.0775 -0.0607  0.0526
  192POPE   PO4 2428  10.349   1.341   9.966  0.0816  0.1171 -0.0360
  192POPE   GL1 2429  10.625   1.479   9.665  0.3029 -0.0704  0.0128
  192POPE   GL2 2430  10.879   1.275   9.695 -0.1096  0.2390  0.2871
  192POPE   C1A 2431  10.660   1.333   9.177  0.0961  0.2359  0.0669
  192POPE   D2A 2432  10.750   0.975   8.917 -0.1118  0.0414  0.1256
  192POPE   C3A 2433  10.969   0.931   8.478 -0.3569 -0.1474  0.2992
  192POPE   C4A 2434  10.923   0.624   8.187 -0.0957  0.1302 -0.0300
  192POPE   C1B 2435  11.092   1.110   9.323  0.4210  0.0206 -0.1939
  192POPE   C2B 2436  11.290   0.908   8.919 -0.1647 -0.0527  0.0846
  192POPE   C3B 2437  11.435   1.094   8.493  0.0915  0.2731 -0.1132
  192POPE   C4B 2438  11.550   1.441   8.334 -0.0355 -0.1430  0.4265
  193POPE   NH3 2439   5.066  13.689   9.442 -0.4353 -0.2083  0.1773
  193POPE   PO4 2440   4.969  14.060   9.443  0.2962 -0.0866 -0.1407
  193POPE   GL1 2441   5.261  14.253   9.075 -0.2774 -0.0380 -0.1899
  193POPE   GL2 2442   5.426  13.945   9.104  0.0274  0.0873  0.0978
  193POPE   C1A 2443   5.346  14.617   8.780  0.2884  0.1233  0.0752
  193POPE   D2A 2444   5.405  14.699   8.345 -0.0853 -0.4102  0.2991
  193POPE   C3A 2445   5.391  14.730   7.847 -0.2442 -0.3936  0.0028
  193POPE   C4A 2446   5.250  14.535   7.484  0.3371 -0.2406 -0.0552
  193POPE   C1B 2447   5.540  14.061   8.697  0.0151  0.2231 -0.3080
  193POPE   C2B 2448   5.613  14.162   8.314 -0.1708  0.1815  0.4589
  193POPE   C3B 2449   5.542  14.244   7.925 -0.1768 -0.4105 -0.1980
  193POPE   C4B 2450   5.510  14.049   7.626  0.0879  0.1468  0.2305
  194POPE   NH3 2451   0.057  10.437  10.146  0.0797 -0.0571 -0.0114
  194POPE   PO4 2452   0.048  10.888  10.124  0.0071 -0.3506 -0.1611
  194POPE   GL1 2453  -0.057  10.747   9.731 -0.0221 -0.2219 -0.1784
  194POPE   GL2 2454   0.337  10.589   9.776  0.0445  0.0947  0.1749
  194POPE   C1A 2455  -0.075  10.935   9.313  0.1790  0.3749 -0.0189
  194POPE   D2A 2456  -0.085  10.854   8.980 -0.0815 -0.0597  0.1939
  194POPE   C3A 2457  -0.521  10.866   8.742  0.0054 -0.4922  0.2669
  194POPE   C4A 2458  -0.505  10.743   8.306 -0.0915  0.2790 -0.0940
  194POPE   C1B 2459   0.236  10.433   9.377 -0.1230 -0.1043  0.0824
  194POPE   C2B 2460   0.100  10.420   9.001  0.0940 -0.0741 -0.1916
  194POPE   C3B 2461   0.010  10.434   8.666 -0.1924 -0.1913  0.0697
  194POPE   C4B 2462  -0.258  10.265   8.431  0.1208  0.1332 -0.1272
  195POPE   NH3 2463  13.177  14.405  10.645 -0.2508  0.1097  0.0899
  195POPE   PO4 2464  13.176  14.363  10.116 -0.0079 -0.0271 -0.0001
  195POPE   GL1 2465  13.025  14.357   9.731  0.3453 -0.0109 -0.1715
  195POPE   GL2 2466  13.122  14.674   9.720 -0.1227 -0.2590  0.1709
  195POPE   C1A 2467  12.856  14.038   9.556  0.0862 -0.0825  0.0917
  195POPE   D2A 2468  12.603  13.648   9.585 -0.0471 -0.1220  0.0808
  195POPE   C3A 2469  12.369  13.562   9.266  0.0276 -0.0727 -0.1226
  195POPE   C4A 2470  12.046  13.682   9.013  0.1099  0.2956  0.0060
  195POPE   C1B 2471  13.256  14.661   9.310  0.0280 -0.1614  0.0394
  195POPE   C2B 2472  13.453  14.508   8.997  0.1653  0.0556  0.0294
  195POPE   C3B 2473  13.638  14.187   8.864 -0.0378  0.2367 -0.2893
  195POPE   C4B 2474  13.737  13.799   8.618 -0.0464  0.2251 -0.0633
  196POPE   NH3 2475   3.200   8.465  10.191 -0.3930  0.0651  0.1569
  196POPE   PO4 2476   3.054   7.974  10.183 -0.0421 -0.1934  0.0239
  196POPE   GL1 2477   3.014   8.174   9.825 -0.3466  0.2751 -0.4239
  196POPE   GL2 2478   2.802   8.200   9.687  0.0656  0.2632  0.1204
  196POPE   C1A 2479   3.352   8.230   9.526  0.2088  0.1683  0.2400
  196POPE   D2A 2480   3.460   8.335   9.130  0.0748 -0.1537 -0.2644
  196POPE   C3A 2481   3.337   8.697   8.895  0.2017 -0.2984 -0.0432
  196POPE   C4A 2482   3.612   8.920   8.573 -0.3766  0.0414 -0.1966
  196POPE   C1B 2483   2.918   8.134   9.276  0.2953 -0.0267 -0.0138
  196POPE   C2B 2484   3.005   8.243   8.858 -0.1793 -0.1220 -0.0618
  196POPE   C3B 2485   3.153   8.453   8.482 -0.1235  0.0344  0.1117
  196POPE   C4B 2486   3.164   8.298   8.097  0.1431  0.1035 -0.0685
  197POPE   NH3 2487  15.336  14.839   9.893 -0.2147  0.0723  0.2329
  197POPE   PO4 2488  15.629  14.644  10.195 -0.2286  0.0685 -0.0044
  197POPE   GL1 2489  15.978  14.708   9.838 -0.3817 -0.3267  0.1049
  197POPE   GL2 2490  15.913  14.896   9.616  0.0603 -0.0275 -0.0479
  197POPE   C1A 2491  16.035  14.332   9.473 -0.0425 -0.0122 -0.0198
  197POPE   D2A 2492  16.141  14.044   9.117  0.2565  0.0925  0.0120
  197POPE   C3A 2493  16.524  14.267   8.812  0.2678  0.1764 -0.0165
  197POPE   C4A 2494  16.560  14.546   8.634  0.1329  0.2609  0.0464
  197POPE   C1B 2495  16.105  15.121   9.308 -0.3579 -0.1943 -0.0228
  197POPE   C2B 2496  16.110  15.433   8.974  0.0018  0.1985  0.3821
  197POPE   C3B 2497  15.921  15.173   8.619  0.0433  0.1602  0.0912
  197POPE   C4B 2498  15.839  15.428   8.277  0.1749 -0.0283  0.1425
  198YOPE   NH3 2499  12.011  12.719  10.360 -0.1444 -0.1404  0.0016
  198YOPE   PO4 2500  11.739  12.918  10.183  0.2536 -0.1307  0.2005
  198YOPE   GL1 2501  11.501  12.969   9.779  0.4524 -0.2052  0.1031
  198YOPE   GL2 2502  11.652  13.224   9.804 -0.0404 -0.0062 -0.2754
  198YOPE   C1A 2503  11.465  12.653   9.422  0.1268 -0.2475  0.0115
  198YOPE   D2A 2504  11.568  12.570   8.948  0.1475 -0.2436 -0.1326
  198YOPE   C3A 2505  11.651  12.376   8.605 -0.0625 -0.1329 -0.0649
  198YOPE   C4A 2506  11.538  12.374   8.208  0.1286 -0.2539 -0.1321
  198YOPE   C1B 2507  11.921  12.887   9.502  0.2328 -0.0723  0.0566
  198YOPE   C2B 2508  12.028  12.718   9.110  0.0240 -0.0475 -0.2695
  198YOPE   D3B 2509  12.084  12.808   8.620 -0.2526 -0.1649 -0.3547
  198YOPE   C4B 2510  11.912  12.682   8.185  0.0663 -0.0612 -0.1544
  199YOPE   NH3 2511  17.604   3.210  10.190 -0.1356  0.2060  0.0581
  199YOPE   PO4 2512  17.689   2.765  10.347 -0.0733 -0.3154 -0.1204
  199YOPE   GL1 2513  17.997   2.874  10.055  0.2114  0.1383 -0.0189
  199YOPE   GL2 2514  18.126   3.165   9.932  0.0480  0.2717  0.2009
  199YOPE   C1A 2515  17.966   2.768   9.636 -0.2097 -0.0044 -0.1278
  199YOPE   D2A 2516  17.970   2.706   9.149  0.0822 -0.2516 -0.0425
  199YOPE   C3A 2517  18.096   2.558   8.851 -0.0719 -0.0221 -0.2437
  199YOPE   C4A 2518  18.340   2.299   8.557 -0.0061 -0.0525 -0.0256
  199YOPE   C1B 2519  18.219   3.111   9.455  0.1977  0.1303  0.3544
  199YOPE   C2B 2520  18.442   2.951   9.032 -0.2690 -0.0976 -0.3526
  199YOPE   D3B 2521  18.509   2.833   8.569 -0.2042  0.1733 -0.1968
  199YOPE   C4B 2522  18.605   2.679   8.225 -0.1002  0.2167  0.0464
  200YOPE   NH3 2523  13.108  16.733  10.178 -0.0520 -0.1048  0.2460
  200YOPE   PO4 2524  12.880  17.159  10.167  0.1949  0.0567 -0.2835
  200YOPE   GL1 2525  12.863  17.082   9.765  0.0933  0.0094  0.1425
  200YOPE   GL2 2526  12.626  17.271   9.695  0.1061  0.0210  0.0017
  200YOPE   C1A 2527  13.114  17.145   9.348  0.1559 -0.1186  0.1222
  200YOPE   D2A 2528  13.107  17.295   8.922 -0.2762  0.1685 -0.0412
  200YOPE   C3A 2529  13.248  17.203   8.432 -0.0497 -0.0029  0.1868
  200YOPE   C4A 2530  13.201  17.110   8.016 -0.3143  0.3665 -0.1581
  200YOPE   C1B 2531  12.639  17.270   9.270 -0.0620  0.0137 -0.0103
  200YOPE   C2B 2532  12.590  17.376   8.829  0.0106 -0.1836  0.0652
  200YOPE   D3B 2533  12.715  17.522   8.550  0.1005 -0.2953 -0.1135
  200YOPE   C4B 2534  12.575  17.563   8.162  0.0995  0.1507 -0.0347
  201YOPE   NH3 2535  15.510   4.784  10.144  0.3867 -0.0053  0.0873
  201YOPE   PO4 2536  15.317   4.466  10.040  0.2526 -0.1010  0.2040
  201YOPE   GL1 2537  15.248   4.576   9.579  0.0313  0.2255 -0.1365
  201YOPE   GL2 2538  15.010   4.422   9.439  0.0464 -0.0434  0.0817
  201YOPE   C1A 2539  15.347   4.863   9.270  0.0767  0.4580  0.2773
  201YOPE   D2A 2540  15.639   4.721   8.895 -0.0007  0.1649  0.0790
  201YOPE   C3A 2541  15.715   4.534   8.563 -0.0920  0.1557 -0.0520
  201YOPE   C4A 2542  15.575   4.083   8.361 -0.2131  0.1013  0.1829
  201YOPE   C1B 2543  14.748   4.513   9.043  0.0308  0.1764  0.0225
  201YOPE   C2B 2544  14.493   4.554   8.684 -0.1731  0.0382 -0.1717
  201YOPE   D3B 2545  14.164   4.792   8.514 -0.0254  0.5929  0.2107
  201YOPE   C4B 2546  13.782   4.861   8.272  0.0012  0.1156  0.1589
  202YOPE   NH3 2547  12.430  15.015  10.120  0.2312 -0.0594 -0.1760
  202YOPE   PO4 2548  12.223  15.327  10.333  0.0567  0.0711  0.1691
  202YOPE   GL1 2549  12.381  15.487   9.926 -0.1939 -0.0888  0.3948
  202YOPE   GL2 2550  12.205  15.637   9.644 -0.2095  0.1505 -0.4056
  202YOPE   C1A 2551  12.679  15.451   9.502  0.0925  0.1417 -0.0440
  202YOPE   D2A 2552  13.070  15.170   9.281 -0.0911  0.1066 -0.0516
  202YOPE   C3A 2553  13.102  15.187   8.827 -0.2147  0.1337 -0.0625
  202YOPE   C4A 2554  13.274  15.366   8.490  0.0510  0.2043  0.2329
  202YOPE   C1B 2555  12.034  15.477   9.219  0.0476  0.0563  0.3300
  202YOPE   C2B 2556  12.070  15.361   8.885  0.1921  0.3266  0.0476
  202YOPE   D3B 2557  12.295  15.223   8.581  0.0044 -0.0633  0.5097
  202YOPE   C4B 2558  12.459  15.438   8.359  0.2598  0.0960 -0.0260
  203YOPE   NH3 2559  14.479  14.269   9.938 -0.1414  0.2580  0.3375
  203YOPE   PO4 2560  14.331  14.722   9.992 -0.2928  0.2458  0.1636
  203YOPE   GL1 2561  14.294  14.670   9.506 -0.3867 -0.0346  0.0881
  203YOPE   GL2 2562  14.190  14.992   9.439 -0.2299  0.1452  0.0976
  203YOPE   C1A 2563  14.442  14.495   9.140 -0.0660 -0.4046  0.0160
  203YOPE   D2A 2564  14.733  14.266   8.909 -0.0712  0.0441  0.0158
  203YOPE   C3A 2565  14.831  14.410   8.472 -0.0586 -0.1840  0.3289
  203YOPE   C4A 2566  15.182  14.539   8.264 -0.1028  0.2949 -0.0182
  203YOPE   C1B 2567  14.192  14.934   9.067  0.3840  0.0404  0.0198
  203YOPE   C2B 2568  14.304  15.173   8.707  0.1587 -0.2086  0.0103
  203YOPE   D3B 2569  14.491  14.947   8.413  0.0606  0.2552 -0.0492
  203YOPE   C4B 2570  14.667  14.647   8.062  0.1113 -0.2839 -0.0960
  204YOPE   NH3 2571  17.455  16.549  10.171  0.0182 -0.1729 -0.1131
  204YOPE   PO4 2572  17.526  16.917   9.842  0.1287  0.0599  0.0372
  204YOPE   GL1 2573  17.386  16.841   9.521  0.2069  0.0348  0.3951
  204YOPE   GL2 2574  17.572  16.659   9.262  0.1600 -0.0245  0.2963
  204YOPE   C1A 2575  17.344  17.029   9.017 -0.1050 -0.0593  0.0541
  204YOPE   D2A 2576  17.398  17.372   8.713  0.0256  0.2216  0.0561
  204YOPE   C3A 2577  17.032  17.697   8.663  0.1838  0.1509  0.0476
  204YOPE   C4A 2578  16.743  17.943   8.454 -0.0743 -0.0485  0.2443
  204YOPE   C1B 2579  17.867  16.300   9.105 -0.4159  0.1669  0.0109
  204YOPE   C2B 2580  18.165  16.116   8.750  0.1329 -0.2270 -0.1965
  204YOPE   D3B 2581  18.094  15.864   8.415 -0.0641 -0.2469  0.0101
  204YOPE   C4B 2582  17.790  15.985   8.142  0.1052  0.2167  0.2046
  205YOPE   NH3 2583   5.782  12.958   9.521  0.0098  0.0412 -0.1556
  205YOPE   PO4 2584   6.093  13.370   9.368  0.0715  0.1632  0.3396
  205YOPE   GL1 2585   6.111  13.487   8.862 -0.2491  0.1640 -0.0604
  205YOPE   GL2 2586   5.769  13.625   8.949  0.0194 -0.0949  0.0313
  205YOPE   C1A 2587   6.263  13.505   8.406 -0.0301 -0.1874 -0.2742
  205YOPE   D2A 2588   6.196  13.353   8.102  0.1984 -0.0842  0.2727
  205YOPE   C3A 2589   5.940  13.334   7.756 -0.1996 -0.0068  0.0310
  205YOPE   C4A 2590   5.443  13.474   7.705  0.0653 -0.0371 -0.0305
  205YOPE   C1B 2591   5.768  13.680   8.428  0.1695 -0.2156  0.0717
  205YOPE   C2B 2592   5.768  13.779   7.961 -0.2283  0.1174 -0.4567
  205YOPE   D3B 2593   6.035  13.910   7.726  0.0071 -0.1594  0.1874
  205YOPE   C4B 2594   6.476  13.804   7.642 -0.1999 -0.0185 -0.2358
  206YOPE   NH3 2595   3.237   0.796  10.611 -0.1643  0.3959  0.0267
  206YOPE   PO4 2596   3.536   0.396  10.717  0.0655 -0.2060 -0.0675
  206YOPE   GL1 2597   3.392   0.441  10.296  0.1142 -0.0446 -0.3671
  206YOPE   GL2 2598   3.316   0.189  10.029 -0.0726 -0.0180 -0.3183
  206YOPE   C1A 2599   3.574   0.640   9.960  0.2461 -0.5155  0.0875
  206YOPE   D2A 2600   3.616   1.022   9.640  0.1848  0.1959  0.0163
  206YOPE   C3A 2601   3.225   1.212   9.721 -0.3781 -0.1101  0.2013
  206YOPE   C4A 2602   2.834   0.885   9.692 -0.2112 -0.1067  0.1050
  206YOPE   C1B 2603   3.122   0.519   9.767  0.2942  0.4040 -0.0812
  206YOPE   C2B 2604   3.259   0.783   9.465  0.1003  0.4137  0.0419
  206YOPE   D3B 2605   3.307   1.134   9.205  0.3861 -0.0746  0.1221
  206YOPE   C4B 2606   3.623   1.467   9.382  0.2730  0.3379 -0.5056
  207YOPE   NH3 2607  11.411  17.836   9.697  0.2445 -0.2220 -0.0603
  207YOPE   PO4 2608  11.051  17.930   9.814  0.0015  0.1137  0.0774
  207YOPE   GL1 2609  11.095  17.989   9.251  0.0023 -0.1745 -0.0918
  207YOPE   GL2 2610  11.399  17.906   9.200  0.1274 -0.3228 -0.0862
  207YOPE   C1A 2611  10.794  17.996   8.937 -0.1407  0.1784 -0.4384
  207YOPE   D2A 2612  10.948  17.794   8.538  0.2537 -0.2621 -0.3314
  207YOPE   C3A 2613  10.847  17.787   8.154  0.1618  0.0982 -0.0421
  207YOPE   C4A 2614  10.769  17.679   7.774  0.1797 -0.3455 -0.0470
  207YOPE   C1B 2615  11.346  18.223   8.869  0.1569  0.0176 -0.1071
  207YOPE   C2B 2616  11.415  18.515   8.544  0.0421  0.1813 -0.1274
  207YOPE   D3B 2617  11.493  18.759   8.222 -0.0937  0.2780  0.0545
  207YOPE   C4B 2618  11.182  18.726   7.942  0.2250 -0.0610  0.2002
  208YOPE   NH3 2619   8.829  17.857  10.678  0.1442  0.1860  0.1806
  208YOPE   PO4 2620   8.807  17.966  10.215 -0.0300 -0.1008  0.0036
  208YOPE   GL1 2621   8.911  18.188   9.813 -0.0513 -0.1559  0.1151
  208YOPE   GL2 2622   9.161  18.456   9.681  0.3003  0.2439  0.0182
  208YOPE   C1A 2623   8.578  18.143   9.455 -0.0940 -0.2421  0.1550
  208YOPE   D2A 2624   8.565  17.706   9.195  0.3764 -0.4565  0.2192
  208YOPE   C3A 2625   8.529  17.595   8.748 -0.0297  0.2189 -0.2648
  208YOPE   C4A 2626   8.341  17.632   8.314  0.0243 -0.2669 -0.0992
  208YOPE   C1B 2627   8.952  18.593   9.321 -0.3976  0.1020  0.1749
  208YOPE   C2B 2628   8.787  18.427   9.068  0.3909 -0.0047 -0.1432
  208YOPE   D3B 2629   8.623  18.381   8.625  0.0096  0.0771 -0.3253
  208YOPE   C4B 2630   8.462  18.150   8.311 -0.1094 -0.1661  0.1516
  209YOPE   NH3 2631  14.723  12.859  10.446  0.3836  0.0401  0.0020
  209YOPE   PO4 2632  14.557  13.215  10.372  0.0246  0.2666 -0.1493
  209YOPE   GL1 2633  14.720  13.227  10.010  0.1324  0.1081  0.0575
  209YOPE   GL2 2634  15.000  13.434   9.958  0.1591 -0.0981  0.0332
  209YOPE   C1A 2635  14.453  13.193   9.641  0.1019 -0.2282 -0.1787
  209YOPE   D2A 2636  14.461  12.996   9.222 -0.0055  0.1948  0.0058
  209YOPE   C3A 2637  14.308  12.996   8.770 -0.1758  0.1689 -0.1019
  209YOPE   C4A 2638  14.254  12.886   8.386  0.1069 -0.0596 -0.3006
  209YOPE   C1B 2639  15.351  13.229   9.806 -0.4221  0.0162  0.4324
  209YOPE   C2B 2640  15.419  13.087   9.389  0.0964 -0.4322 -0.1889
  209YOPE   D3B 2641  15.313  12.875   9.036 -0.2264 -0.3896  0.3012
  209YOPE   C4B 2642  15.459  12.732   8.629  0.1213 -0.0069 -0.3220
  210YOPE   NH3 2643  16.480   3.859  10.039  0.2320  0.0929  0.0325
  210YOPE   PO4 2644  16.652   4.198  10.160  0.4398 -0.1182 -0.4056
  210YOPE   GL1 2645  16.685   4.335   9.734 -0.1618 -0.0599 -0.2363
  210YOPE   GL2 2646  16.482   4.111   9.542  0.1256  0.0894  0.0766
  210YOPE   C1A 2647  16.984   4.213   9.383 -0.4332 -0.2286 -0.3445
  210YOPE   D2A 2648  17.249   3.914   9.474 -0.3915 -0.3836 -0.0371
  210YOPE   C3A 2649  17.415   3.964   9.100 -0.0133  0.1755  0.1746
  210YOPE   C4A 2650  17.583   4.048   8.688  0.0996  0.3929 -0.0495
  210YOPE   C1B 2651  16.472   4.148   9.112 -0.0531  0.2240  0.3690
  210YOPE   C2B 2652  16.581   4.251   8.635 -0.1903  0.2216 -0.0137
  210YOPE   D3B 2653  16.589   4.396   8.288  0.1447  0.0012 -0.0860
  210YOPE   C4B 2654  16.534   4.854   8.082  0.1737  0.1610  0.2769
  211YOPE   NH3 2655  11.766   2.702  10.675 -0.2801 -0.0632 -0.0949
  211YOPE   PO4 2656  11.323   2.736  10.658  0.3221  0.1670 -0.0580
  211YOPE   GL1 2657  11.481   2.814  10.243 -0.0275  0.1861 -0.3882
  211YOPE   GL2 2658  11.790   2.792  10.130  0.0401  0.0247 -0.0974
  211YOPE   C1A 2659  11.292   2.966   9.876  0.2060 -0.0097  0.1697
  211YOPE   D2A 2660  11.058   3.160   9.442 -0.2064  0.2550 -0.1837
  211YOPE   C3A 2661  11.219   3.262   9.002 -0.3466  0.0085 -0.1010
  211YOPE   C4A 2662  11.252   3.100   8.587 -0.3318 -0.0846  0.0916
  211YOPE   C1B 2663  11.822   2.749   9.722  0.0699  0.0849  0.0715
  211YOPE   C2B 2664  11.695   2.821   9.319  0.0260 -0.2536 -0.0803
  211YOPE   D3B 2665  11.605   2.938   8.868  0.2292 -0.1895  0.0204
  211YOPE   C4B 2666  11.732   2.941   8.408 -0.0736  0.0062  0.0005
  212YOPE   NH3 2667   7.749   7.745  10.544  0.0185  0.0913 -0.1893
  212YOPE   PO4 2668   7.563   8.125  10.587 -0.4097 -0.1397  0.1191
  212YOPE   GL1 2669   7.644   8.059  10.129  0.0419 -0.0528  0.0158
  212YOPE   GL2 2670   7.476   7.765  10.119  0.3431 -0.0153  0.0039
  212YOPE   C1A 2671   7.726   8.147   9.694 -0.2630 -0.0359  0.0561
  212YOPE   D2A 2672   7.492   8.214   9.328 -0.0403 -0.0427 -0.2442
  212YOPE   C3A 2673   7.738   8.327   8.945  0.2133  0.1862 -0.0135
  212YOPE   C4A 2674   7.995   8.363   8.534 -0.0664  0.0434  0.1828
  212YOPE   C1B 2675   7.190   8.005   9.725  0.0706 -0.1941 -0.1615
  212YOPE   C2B 2676   6.989   8.032   9.239 -0.0261  0.0339  0.0602
  212YOPE   D3B 2677   6.709   8.275   8.945  0.2621 -0.1900 -0.2908
  212YOPE   C4B 2678   6.850   8.467   8.581 -0.0763  0.1192 -0.2474
  213YOPE   NH3 2679  12.206   7.753  10.023 -0.0164  0.0838  0.1564
  213YOPE   PO4 2680  12.157   8.174   9.790 -0.2192  0.0579 -0.1205
  213YOPE   GL1 2681  12.146   7.867   9.485  0.2392 -0.2061 -0.0669
  213YOPE   GL2 2682  12.218   7.622   9.537 -0.0179 -0.1627 -0.1737
  213YOPE   C1A 2683  12.083   7.790   9.079  0.0308  0.3070 -0.0327
  213YOPE   D2A 2684  12.185   7.454   8.933  0.1513  0.0204  0.0271
  213YOPE   C3A 2685  12.424   7.479   8.512 -0.1066  0.2290 -0.1907
  213YOPE   C4A 2686  12.747   7.554   8.237 -0.0881  0.0865  0.4313
  213YOPE   C1B 2687  12.238   7.235   9.378  0.3319  0.1362 -0.2222
  213YOPE   C2B 2688  12.168   6.959   8.999  0.0414 -0.2108 -0.1436
  213YOPE   D3B 2689  12.366   6.999   8.701  0.2808 -0.1297  0.2359
  213YOPE   C4B 2690  12.814   6.795   8.625 -0.0118  0.0273  0.3080
  214YOPE   NH3 2691   4.103  13.867   9.835  0.1295  0.1379  0.0010
  214YOPE   PO4 2692   3.795  13.698   9.637 -0.1888 -0.2529  0.0560
  214YOPE   GL1 2693   4.053  13.649   9.319  0.1194 -0.0003  0.3348
  214YOPE   GL2 2694   4.129  13.957   9.330  0.0481  0.0749  0.2863
  214YOPE   C1A 2695   4.036  13.647   8.914 -0.1880 -0.2510 -0.0461
  214YOPE   D2A 2696   4.063  13.855   8.528 -0.2701 -0.1513 -0.0253
  214YOPE   C3A 2697   3.961  13.893   8.062  0.2902  0.1530 -0.0278
  214YOPE   C4A 2698   4.107  13.639   7.743  0.1232 -0.0895  0.1251
  214YOPE   C1B 2699   4.312  14.075   9.070  0.2144  0.1792  0.0625
  214YOPE   C2B 2700   4.418  14.161   8.610 -0.2357 -0.1319  0.3582
  214YOPE   D3B 2701   4.371  14.166   8.264 -0.0412  0.1139 -0.3576
  214YOPE   C4B 2702   4.256  14.248   7.881  0.1280 -0.2250  0.2125
  215YOPE   NH3 2703   1.743   0.413   9.909  0.0854  0.1346 -0.0662
  215YOPE   PO4 2704   2.149   0.449   9.948  0.2180  0.0427  0.0987
  215YOPE   GL1 2705   2.136   0.238   9.577  0.1435 -0.0395  0.0522
  215YOPE   GL2 2706   1.899   0.005   9.622 -0.0546 -0.0433 -0.0493
  215YOPE   C1A 2707   2.014   0.464   9.241  0.2140  0.1649  0.0404
  215YOPE   D2A 2708   1.809   0.088   8.906  0.0477  0.0598 -0.0005
  215YOPE   C3A 2709   1.581   0.169   8.527 -0.1026 -0.0710 -0.2387
  215YOPE   C4A 2710   1.539   0.304   8.068 -0.1125  0.3855 -0.0100
  215YOPE   C1B 2711   1.969  -0.233   9.270 -0.1501  0.2129  0.3396
  215YOPE   C2B 2712   2.022  -0.321   8.851  0.0983 -0.1148  0.1512
  215YOPE   D3B 2713   2.042  -0.445   8.395  0.0469  0.0080  0.0407
  215YOPE   C4B 2714   2.237  -0.464   7.972  0.0367  0.0284 -0.0356
  216YOPE   NH3 2715  14.024   6.822  10.018 -0.0906  0.2106 -0.1078
  216YOPE   PO4 2716  14.188   7.305  10.137  0.1201 -0.2603  0.0182
  216YOPE   GL1 2717  14.278   7.299   9.740 -0.1255 -0.1346  0.1578
  216YOPE   GL2 2718  14.496   7.693   9.561  0.0262 -0.2267 -0.1041
  216YOPE   C1A 2719  14.342   7.049   9.358  0.0481  0.0718 -0.2235
  216YOPE   D2A 2720  14.304   6.725   8.941  0.0990 -0.4147  0.2300
  216YOPE   C3A 2721  14.535   6.440   8.823  0.2397 -0.1109  0.0687
  216YOPE   C4A 2722  14.644   6.286   8.489  0.1018 -0.3122 -0.1402
  216YOPE   C1B 2723  14.380   7.554   9.127 -0.3177 -0.1160 -0.1529
  216YOPE   C2B 2724  14.547   7.210   8.900  0.0781 -0.1501  0.1313
  216YOPE   D3B 2725  14.349   7.096   8.548  0.0624  0.5193 -0.1468
  216YOPE   C4B 2726  14.060   7.031   8.217 -0.0062 -0.0744  0.2550
  217YOPE   NH3 2727  14.675   7.009  10.742  0.2161 -0.2387 -0.1703
  217YOPE   PO4 2728  14.664   7.287  10.405 -0.1146 -0.3143  0.3926
  217YOPE   GL1 2729  14.935   7.331  10.129 -0.0809 -0.1135 -0.2775
  217YOPE   GL2 2730  14.735   7.391   9.868  0.0723  0.2023  0.1456
  217YOPE   C1A 2731  15.472   7.293  10.130  0.2319  0.2438 -0.2310
  217YOPE   D2A 2732  15.768   7.002   9.890 -0.0874 -0.1548  0.1548
  217YOPE   C3A 2733  15.552   7.015   9.575  0.0627 -0.0413  0.1907
  217YOPE   C4A 2734  15.281   6.894   9.413  0.0773  0.4717  0.2040
  217YOPE   C1B 2735  15.172   7.328   9.674  0.1144 -0.0805 -0.0049
  217YOPE   C2B 2736  15.437   7.404   9.294 -0.1930 -0.4058 -0.1164
  217YOPE   D3B 2737  15.551   7.478   8.920  0.3121 -0.2108 -0.0940
  217YOPE   C4B 2738  15.603   7.824   8.650  0.2733 -0.2632 -0.0065
  218YOPE   NH3 2739  11.904  14.962  10.248 -0.1300  0.2970 -0.1911
  218YOPE   PO4 2740  12.157  14.579  10.285  0.0736  0.2274 -0.2055
  218YOPE   GL1 2741  12.045  14.633   9.860  0.0524 -0.0928  0.0035
  218YOPE   GL2 2742  11.804  14.405   9.748  0.1425 -0.1294 -0.0008
  218YOPE   C1A 2743  12.090  14.596   9.423 -0.0121  0.0820  0.1457
  218YOPE   D2A 2744  12.156  14.550   8.945 -0.0182  0.1153 -0.0259
  218YOPE   C3A 2745  12.409  14.780   8.744 -0.0497  0.1297 -0.2757
  218YOPE   C4A 2746  12.734  15.014   8.578  0.2402 -0.0367  0.0233
  218YOPE   C1B 2747  11.595  14.450   9.348 -0.3145  0.0390  0.0121
  218YOPE   C2B 2748  11.552  14.526   8.946 -0.0573  0.1059  0.3507
  218YOPE   D3B 2749  11.810  14.450   8.645  0.0255 -0.1393 -0.2689
  218YOPE   C4B 2750  12.205  14.400   8.405  0.2230  0.2732 -0.0263
  219YOPE   NH3 2751   0.200   5.240  10.275  0.1852 -0.1544  0.2071
  219YOPE   PO4 2752   0.623   5.326  10.386 -0.0050  0.4231  0.0114
  219YOPE   GL1 2753   0.587   5.355  10.005  0.0653 -0.1703 -0.1871
  219YOPE   GL2 2754   0.880   5.329   9.942  0.1982 -0.1767 -0.0704
  219YOPE   C1A 2755   0.483   5.370   9.541  0.0831 -0.1508 -0.1079
  219YOPE   D2A 2756   0.681   5.230   9.128 -0.3754  0.2994 -0.2414
  219YOPE   C3A 2757   0.878   5.368   8.703 -0.2924 -0.2794 -0.1766
  219YOPE   C4A 2758   1.097   5.390   8.272 -0.0648  0.1085 -0.1452
  219YOPE   C1B 2759   0.978   5.255   9.571 -0.0001  0.0843 -0.1570
  219YOPE   C2B 2760   1.134   4.944   9.339 -0.0646 -0.1368 -0.0087
  219YOPE   D3B 2761   1.176   5.074   8.963  0.1031 -0.1306 -0.2103
  219YOPE   C4B 2762   1.393   5.140   8.642  0.0048 -0.1316  0.0421
  220YOPE   NH3 2763   6.864  11.332   9.991  0.2422 -0.1365  0.1297
  220YOPE   PO4 2764   6.639  10.957   9.895 -0.0710 -0.3031 -0.3989
  220YOPE   GL1 2765   6.866  11.067   9.540 -0.2050 -0.5610 -0.1036
  220YOPE   GL2 2766   7.101  11.294   9.561  0.2138  0.2612 -0.1628
  220YOPE   C1A 2767   6.808  11.065   9.075 -0.1292 -0.0232 -0.3633
  220YOPE   D2A 2768   7.076  11.137   8.690 -0.1194 -0.0355 -0.1883
  220YOPE   C3A 2769   6.931  11.070   8.250 -0.2256 -0.2541  0.0563
  220YOPE   C4A 2770   7.118  11.250   7.863 -0.1205  0.1675 -0.0035
  220YOPE   C1B 2771   7.237  11.334   9.139  0.1642  0.0877 -0.0398
  220YOPE   C2B 2772   7.552  11.285   8.864 -0.0667 -0.0117  0.1913
  220YOPE   D3B 2773   7.541  10.995   8.456 -0.0492  0.1360  0.0713
  220YOPE   C4B 2774   7.516  11.009   8.046  0.0571 -0.0637  0.2637
  221YOPE   NH3 2775   6.492   4.966   9.810 -0.1238  0.3110  0.1065
  221YOPE   PO4 2776   6.263   4.604  10.019 -0.0381 -0.1831  0.1327
  221YOPE   GL1 2777   5.919   4.732   9.695 -0.1039  0.1752  0.0340
  221YOPE   GL2 2778   6.051   4.931   9.525  0.0892 -0.1101  0.2927
  221YOPE   C1A 2779   5.735   4.269   9.333 -0.2555 -0.1036  0.0112
  221YOPE   D2A 2780   5.526   4.032   9.002  0.1117  0.3343  0.2721
  221YOPE   C3A 2781   5.222   4.167   8.830 -0.1949  0.1091  0.3374
  221YOPE   C4A 2782   5.157   4.260   8.446  0.2080  0.1873  0.2215
  221YOPE   C1B 2783   5.952   5.042   9.062 -0.1678  0.0111  0.0637
  221YOPE   C2B 2784   6.004   5.102   8.728 -0.0697 -0.0270  0.1929
  221YOPE   D3B 2785   5.851   5.395   8.460  0.0079  0.2916 -0.0452
  221YOPE   C4B 2786   5.859   5.758   8.352 -0.2528  0.0290 -0.0888
  222YOPE   NH3 2787  12.011   3.662  10.620  0.0552  0.0065  0.2179
  222YOPE   PO4 2788  12.113   3.183  10.491  0.1480 -0.1943  0.1072
  222YOPE   GL1 2789  12.142   3.184  10.055  0.0514  0.0931  0.0337
  222YOPE   GL2 2790  12.472   3.104  10.112  0.0539  0.0329 -0.0679
  222YOPE   C1A 2791  12.152   3.124   9.610  0.0019 -0.0540  0.1206
  222YOPE   D2A 2792  12.311   3.048   9.257 -0.0993 -0.2094  0.0606
  222YOPE   C3A 2793  12.110   3.146   8.874  0.0658  0.2647 -0.1692
  222YOPE   C4A 2794  12.020   3.334   8.445 -0.1346  0.0055 -0.2004
  222YOPE   C1B 2795  12.631   3.192   9.776  0.0951  0.0050 -0.1193
  222YOPE   C2B 2796  12.431   3.519   9.524 -0.1880  0.0230 -0.1166
  222YOPE   D3B 2797  12.270   3.537   9.130 -0.1567 -0.0090 -0.0457
  222YOPE   C4B 2798  12.281   3.621   8.679 -0.2520  0.2542 -0.0842
  223YOPE   NH3 2799  18.287   6.825  10.222  0.1514  0.0681 -0.1164
  223YOPE   PO4 2800  18.063   6.467  10.294  0.2596 -0.1455  0.0409
  223YOPE   GL1 2801  18.026   6.386   9.799 -0.0904  0.0607 -0.1455
  223YOPE   GL2 2802  17.818   6.287   9.791  0.0890  0.2735  0.0425
  223YOPE   C1A 2803  18.188   6.398   9.415 -0.2266  0.1459  0.2889
  223YOPE   D2A 2804  18.058   6.392   9.129  0.3462 -0.1419  0.1831
  223YOPE   C3A 2805  17.743   6.474   8.970 -0.0215  0.3155 -0.1409
  223YOPE   C4A 2806  17.491   6.340   8.649  0.3175 -0.5391  0.2032
  223YOPE   C1B 2807  17.633   6.454   9.449 -0.0906 -0.2186 -0.2178
  223YOPE   C2B 2808  17.346   6.356   9.193  0.0545 -0.5378  0.1409
  223YOPE   D3B 2809  17.082   6.221   8.901 -0.1261 -0.0693 -0.1896
  223YOPE   C4B 2810  16.731   6.036   8.635 -0.0824  0.2833  0.1291
  224YOPE   NH3 2811   0.217  15.415  10.216  0.1400  0.0066  0.1785
  224YOPE   PO4 2812   0.680  15.454  10.134  0.2183 -0.1955 -0.0633
  224YOPE   GL1 2813   0.539  15.309   9.632 -0.0718  0.0938 -0.4103
  224YOPE   GL2 2814   0.444  15.511   9.352 -0.0922 -0.0541  0.2602
  224YOPE   C1A 2815   0.084  15.245   9.437 -0.1108 -0.0448  0.3564
  224YOPE   D2A 2816  -0.279  15.274   9.566  0.1719 -0.0150  0.0693
  224YOPE   C3A 2817  -0.517  15.345   9.220  0.0167 -0.0817  0.4816
  224YOPE   C4A 2818  -0.453  15.226   8.841  0.0307 -0.4442  0.0749
  224YOPE   C1B 2819   0.562  15.708   8.965  0.0733  0.1925 -0.0154
  224YOPE   C2B 2820   0.559  15.747   8.540  0.1737 -0.2094  0.0164
  224YOPE   D3B 2821   0.434  15.841   8.192  0.0200  0.3696 -0.0544
  224YOPE   C4B 2822  -0.017  15.818   8.041 -0.3326  0.0109  0.0987
  225YOPE   NH3 2823   5.828   0.600   9.908 -0.1100 -0.3162  0.1855
  225YOPE   PO4 2824   5.784   0.926  10.119 -0.0698 -0.0137 -0.1960
  225YOPE   GL1 2825   5.749   1.110   9.760 -0.0438 -0.0916  0.1758
  225YOPE   GL2 2826   5.582   0.854   9.498 -0.0368  0.1845 -0.0998
  225YOPE   C1A 2827   5.837   1.401   9.522 -0.3961  0.0357  0.0649
  225YOPE   D2A 2828   5.947   1.434   9.161 -0.0668 -0.0006  0.2213
  225YOPE   C3A 2829   5.640   1.489   8.864  0.0998  0.0896  0.0832
  225YOPE   C4A 2830   5.324   1.374   8.713  0.2257 -0.2101 -0.1553
  225YOPE   C1B 2831   5.381   0.540   9.224  0.2937 -0.0698 -0.0073
  225YOPE   C2B 2832   5.349   0.470   8.802 -0.0050 -0.2172  0.0846
  225YOPE   D3B 2833   5.364   0.487   8.392 -0.0399  0.4957  0.0577
  225YOPE   C4B 2834   5.417   0.708   7.921 -0.1958 -0.0652 -0.2790
  226YOPE   NH3 2835   3.009  10.750  10.067  0.2231 -0.0492 -0.0562
  226YOPE   PO4 2836   2.574  10.634  10.229 -0.4808 -0.0058 -0.2043
  226YOPE   GL1 2837   2.598  10.561   9.781 -0.1153  0.0087  0.1363
  226YOPE   GL2 2838   2.487  10.291   9.807 -0.1426  0.0448  0.0275
  226YOPE   C1A 2839   2.662  10.520   9.411  0.0365  0.0218 -0.1055
  226YOPE   D2A 2840   2.675  10.591   8.907 -0.3152  0.2766  0.0594
  226YOPE   C3A 2841   2.475  10.407   8.620 -0.0583 -0.2580 -0.0637
  226YOPE   C4A 2842   2.550  10.177   8.316  0.2034  0.1185 -0.0476
  226YOPE   C1B 2843   2.724  10.065   9.518  0.1558 -0.0766  0.0336
  226YOPE   C2B 2844   2.751  10.133   9.086 -0.1302  0.3996  0.4885
  226YOPE   D3B 2845   2.920  10.100   8.714 -0.0282 -0.2470  0.0675
  226YOPE   C4B 2846   3.357   9.962   8.638  0.3841  0.0175  0.1786
  227YOPE   NH3 2847  11.575  11.011  10.331  0.1453  0.3753 -0.0263
  227YOPE   PO4 2848  11.350  11.473  10.278 -0.1021  0.3142  0.0386
  227YOPE   GL1 2849  11.140  11.269  10.064 -0.1880 -0.1157  0.0419
  227YOPE   GL2 2850  11.374  11.120   9.886 -0.1769 -0.2634  0.1024
  227YOPE   C1A 2851  10.848  11.342   9.754  0.2219  0.1116 -0.2253
  227YOPE   D2A 2852  10.857  11.297   9.299  0.1233 -0.1378  0.0969
  227YOPE   C3A 2853  11.075  11.526   9.076 -0.1648  0.1038 -0.0445
  227YOPE   C4A 2854  11.444  11.772   9.116 -0.3005  0.0544 -0.1570
  227YOPE   C1B 2855  11.228  11.019   9.576 -0.2585  0.0415  0.1010
  227YOPE   C2B 2856  11.223  10.748   9.157 -0.0790  0.2177  0.0313
  227YOPE   D3B 2857  10.986  10.980   8.795 -0.0190  0.1229 -0.3827
  227YOPE   C4B 2858  10.789  11.102   8.343 -0.1180 -0.2410 -0.0483
  228YOPE   NH3 2859   3.476   6.255  10.157 -0.0505 -0.2569  0.1821
  228YOPE   PO4 2860   3.743   6.649  10.136  0.0373 -0.1369 -0.1860
  228YOPE   GL1 2861   3.609   6.466   9.703  0.1453 -0.0355 -0.0318
  228YOPE   GL2 2862   3.962   6.505   9.628 -0.0628  0.1826 -0.0775
  228YOPE   C1A 2863   3.665   6.474   9.252  0.0145 -0.0310 -0.1059
  228YOPE   D2A 2864   3.567   6.791   8.971  0.1640  0.3513 -0.0235
  228YOPE   C3A 2865   3.507   6.567   8.656 -0.4777 -0.1020  0.3189
  228YOPE   C4A 2866   3.347   6.564   8.188 -0.0246  0.0294 -0.3257
  228YOPE   C1B 2867   4.139   6.261   9.373 -0.1209  0.2167  0.1824
  228YOPE   C2B 2868   4.256   6.060   8.969  0.1198 -0.1408 -0.2246
  228YOPE   D3B 2869   4.082   5.723   8.848  0.0356  0.0527 -0.2372
  228YOPE   C4B 2870   3.682   5.651   8.511 -0.4762  0.0604  0.2580
  229YOPE   NH3 2871   8.317  16.825   9.923 -0.2195 -0.0459 -0.0709
  229YOPE   PO4 2872   8.314  17.201   9.891 -0.1722 -0.0329  0.1195
  229YOPE   GL1 2873   8.362  17.213   9.517  0.0776  0.4486 -0.0975
  229YOPE   GL2 2874   8.423  16.928   9.380  0.0825  0.2716  0.0644
  229YOPE   C1A 2875   8.191  17.374   9.100  0.1285  0.5153  0.1142
  229YOPE   D2A 2876   8.020  17.594   8.728 -0.1620  0.0767  0.2217
  229YOPE   C3A 2877   7.832  17.494   8.352  0.0518 -0.1703  0.2365
  229YOPE   C4A 2878   7.554  17.686   8.047 -0.1450  0.0722  0.1293
  229YOPE   C1B 2879   8.615  17.059   8.931 -0.1270  0.0680  0.0793
  229YOPE   C2B 2880   8.607  17.082   8.562 -0.0940 -0.2046 -0.1651
  229YOPE   D3B 2881   8.576  17.162   8.212 -0.1170 -0.2233 -0.1357
  229YOPE   C4B 2882   8.716  17.028   7.920 -0.2904  0.2080  0.0605
  230YOPE   NH3 2883  17.610   9.055  10.256  0.0224  0.1933  0.0132
  230YOPE   PO4 2884  17.221   9.234  10.226  0.2047  0.0548  0.2967
  230YOPE   GL1 2885  17.121   9.309   9.815 -0.2893  0.0308  0.3621
  230YOPE   GL2 2886  16.794   9.251   9.760  0.0953 -0.0201  0.0446
  230YOPE   C1A 2887  17.064   9.558   9.529 -0.0725  0.0196  0.1485
  230YOPE   D2A 2888  16.702   9.427   9.265 -0.1435 -0.1516 -0.1088
  230YOPE   C3A 2889  16.767   9.489   8.849  0.1687 -0.2042  0.0516
  230YOPE   C4A 2890  16.598   9.296   8.494  0.0961 -0.0401  0.3997
  230YOPE   C1B 2891  16.474   9.655   9.627 -0.1107 -0.3576  0.1367
  230YOPE   C2B 2892  16.692   9.982   9.300  0.1560 -0.0440  0.0988
  230YOPE   D3B 2893  16.710  10.055   8.938  0.0051 -0.2476 -0.0899
  230YOPE   C4B 2894  16.759  10.225   8.623  0.0716  0.0638 -0.0230
  231YOPE   NH3 2895   9.068   6.268  10.570 -0.2564  0.0896 -0.0753
  231YOPE   PO4 2896   9.090   6.672  10.420  0.0806 -0.0395  0.0046
  231YOPE   GL1 2897   9.055   7.025  10.284 -0.0008 -0.1085  0.1174
  231YOPE   GL2 2898   8.701   7.117  10.404 -0.3890 -0.1558  0.0642
  231YOPE   C1A 2899   9.430   7.343  10.062  0.0678  0.0860  0.0613
  231YOPE   D2A 2900   9.586   7.453   9.616  0.2431  0.1351  0.1455
  231YOPE   C3A 2901   9.550   7.461   9.127  0.3931 -0.4210  0.0975
  231YOPE   C4A 2902   9.398   7.489   8.732  0.0978  0.0202  0.2050
  231YOPE   C1B 2903   8.909   7.437  10.133  0.1538 -0.0814 -0.0541
  231YOPE   C2B 2904   8.718   7.834  10.015  0.0768 -0.0976 -0.2456
  231YOPE   D3B 2905   8.674   8.078   9.668  0.1233  0.1942 -0.1843
  231YOPE   C4B 2906   8.855   8.452   9.573 -0.0038 -0.0272 -0.1078
  232YOPE   NH3 2907   9.755   2.242  10.786 -0.0232  0.1817  0.0369
  232YOPE   PO4 2908   9.495   2.460  10.405 -0.1978  0.2064 -0.0879
  232YOPE   GL1 2909   9.509   2.710  10.115  0.0037 -0.1056  0.1294
  232YOPE   GL2 2910   9.243   2.681   9.902  0.1536 -0.1418 -0.2298
  232YOPE   C1A 2911   9.707   2.922   9.828  0.2519  0.3974  0.2513
  232YOPE   D2A 2912   9.517   3.198   9.552  0.0749  0.3268  0.1025
  232YOPE   C3A 2913   9.771   3.426   9.135 -0.2179  0.0824  0.3129
  232YOPE   C4A 2914   9.893   3.761   8.884  0.1104 -0.2843 -0.0184
  232YOPE   C1B 2915   9.226   2.790   9.543  0.0513 -0.3678 -0.3701
  232YOPE   C2B 2916   9.367   2.855   9.166 -0.0028 -0.2214  0.1611
  232YOPE   D3B 2917   9.712   2.940   8.851  0.1130 -0.0939 -0.2752
  232YOPE   C4B 2918  10.029   2.723   8.784  0.2958 -0.0744  0.0387
  233YOPE   NH3 2919   1.551   9.932   9.974 -0.1187 -0.3220 -0.1365
  233YOPE   PO4 2920   1.225  10.295  10.030 -0.1731 -0.0138  0.1191
  233YOPE   GL1 2921   1.257  10.312   9.567 -0.0644 -0.1545 -0.0994
  233YOPE   GL2 2922   1.360  10.649   9.521  0.3373 -0.2934  0.0987
  233YOPE   C1A 2923   1.258  10.226   9.108  0.0497  0.0794 -0.1701
  233YOPE   D2A 2924   1.168  10.186   8.694  0.2564  0.1083  0.2535
  233YOPE   C3A 2925   1.119   9.854   8.399 -0.0144  0.0047  0.5561
  233YOPE   C4A 2926   1.067   9.490   8.314 -0.2269 -0.3209 -0.2424
  233YOPE   C1B 2927   1.270  10.706   9.184  0.0514  0.0682 -0.0760
  233YOPE   C2B 2928   1.146  10.699   8.698 -0.0579  0.0162  0.1735
  233YOPE   D3B 2929   1.270  10.526   8.292  0.2505  0.2567  0.0296
  233YOPE   C4B 2930   1.182  10.215   8.006 -0.0542 -0.1215 -0.1511
  234YOPE   NH3 2931  17.408  16.391   9.701 -0.1839 -0.1459 -0.0393
  234YOPE   PO4 2932  17.142  16.175   9.911 -0.1602 -0.2486  0.2587
  234YOPE   GL1 2933  16.994  16.096   9.527  0.3756 -0.0423 -0.0865
  234YOPE   GL2 2934  17.198  16.176   9.335  0.2940  0.0135 -0.0828
  234YOPE   C1A 2935  16.571  16.217   9.272  0.1250  0.1071 -0.2457
  234YOPE   D2A 2936  16.545  16.340   8.854 -0.1144 -0.1627 -0.1136
  234YOPE   C3A 2937  16.578  16.158   8.450  0.0993 -0.0486  0.0079
  234YOPE   C4A 2938  16.729  16.376   8.127 -0.1357 -0.1716  0.0952
  234YOPE   C1B 2939  17.412  16.192   9.010  0.0528 -0.1457 -0.1128
  234YOPE   C2B 2940  17.502  15.996   8.639 -0.2157  0.0411 -0.0231
  234YOPE   D3B 2941  17.373  15.724   8.313  0.1937  0.2887  0.0689
  234YOPE   C4B 2942  17.485  15.362   7.989 -0.2819  0.0208 -0.1355
  235YOPE   NH3 2943  10.800   4.908  10.169 -0.3085  0.1482  0.1046
  235YOPE   PO4 2944  10.613   4.634  10.326 -0.2472  0.0117  0.3605
  235YOPE   GL1 2945  10.307   4.954  10.049 -0.2094  0.2293  0.0129
  235YOPE   GL2 2946   9.907   4.894  10.095 -0.1849 -0.2555 -0.2569
  235YOPE   C1A 2947  10.250   5.037   9.647 -0.0190 -0.2749 -0.0192
  235YOPE   D2A 2948  10.218   5.173   9.250 -0.0724  0.2001 -0.1030
  235YOPE   C3A 2949  10.061   5.136   8.739  0.1401 -0.0926 -0.1104
  235YOPE   C4A 2950  10.008   4.898   8.396  0.3746  0.1784 -0.3216
  235YOPE   C1B 2951   9.742   5.024   9.685  0.1914 -0.1526  0.0372
  235YOPE   C2B 2952   9.324   5.214   9.403  0.1501  0.1759  0.2354
  235YOPE   D3B 2953   9.166   5.344   8.987  0.0033  0.2925 -0.0860
  235YOPE   C4B 2954   9.206   5.632   8.655 -0.1158 -0.0978  0.1159
  236YOPE   NH3 2955  10.556  13.060   9.819 -0.0012 -0.2020  0.0509
  236YOPE   PO4 2956  10.420  12.615   9.700  0.0933 -0.1205 -0.0593
  236YOPE   GL1 2957  10.417  12.683   9.310  0.1772 -0.0643 -0.2895
  236YOPE   GL2 2958  10.400  12.325   9.294  0.1182  0.0832  0.2194
  236YOPE   C1A 2959  10.645  12.871   8.997 -0.1283  0.1160  0.0582
  236YOPE   D2A 2960  10.561  12.786   8.524 -0.2698  0.1250 -0.1951
  236YOPE   C3A 2961  10.676  13.216   8.281  0.1301  0.0074 -0.0519
  236YOPE   C4A 2962  10.715  13.636   8.099  0.0210  0.0187 -0.2622
  236YOPE   C1B 2963  10.590  12.367   8.907  0.1061  0.1208 -0.0580
  236YOPE   C2B 2964  10.725  12.335   8.549  0.1207  0.0898 -0.0078
  236YOPE   D3B 2965  11.038  12.154   8.320  0.1914  0.0541 -0.0951
  236YOPE   C4B 2966  11.163  12.289   7.908  0.0327  0.1634 -0.1239
  237YOPE   NH3 2967  12.430   9.908  10.181 -0.0624  0.2425 -0.1693
  237YOPE   PO4 2968  12.037  10.071  10.235  0.0844 -0.0808  0.0938
  237YOPE   GL1 2969  12.034   9.920   9.783  0.0364 -0.1344 -0.0877
  237YOPE   GL2 2970  12.229   9.958   9.687 -0.4754 -0.0885 -0.1309
  237YOPE   C1A 2971  11.726   9.842   9.401 -0.0106  0.1134  0.1915
  237YOPE   D2A 2972  11.809   9.899   8.939  0.4405  0.0477  0.0444
  237YOPE   C3A 2973  12.154   9.836   8.792 -0.0943 -0.3830  0.2706
  237YOPE   C4A 2974  12.559   9.635   8.586  0.3365 -0.0012 -0.0546
  237YOPE   C1B 2975  12.345   9.656   9.461 -0.2928 -0.1901  0.0488
  237YOPE   C2B 2976  12.443   9.573   9.135  0.0737  0.3969  0.1903
  237YOPE   D3B 2977  12.684   9.267   8.904  0.0061 -0.1913  0.3499
  237YOPE   C4B 2978  13.007   9.075   8.949  0.0504  0.1336  0.0700
  238YOPE   NH3 2979  12.873  11.541  10.548 -0.0413 -0.0768 -0.1392
  238YOPE   PO4 2980  12.509  11.647  10.257 -0.0110 -0.0410 -0.2921
  238YOPE   GL1 2981  12.450  11.704   9.878 -0.0813  0.2018 -0.2566
  238YOPE   GL2 2982  12.228  11.454   9.845  0.2380  0.1200 -0.2174
  238YOPE   C1A 2983  12.303  11.991   9.600 -0.1892 -0.0584 -0.0701
  238YOPE   D2A 2984  12.187  12.289   9.389 -0.0416  0.0454  0.2261
  238YOPE   C3A 2985  12.189  12.317   8.918 -0.3247  0.2481 -0.1327
  238YOPE   C4A 2986  12.376  12.428   8.490  0.0173 -0.0750  0.5256
  238YOPE   C1B 2987  12.084  11.300   9.512  0.1436 -0.1040 -0.1158
  238YOPE   C2B 2988  12.022  11.275   9.105  0.0522 -0.3539 -0.1286
  238YOPE   D3B 2989  11.799  11.094   8.647  0.0771 -0.4759  0.0100
  238YOPE   C4B 2990  11.394  10.872   8.477  0.0011  0.3226 -0.1027
  239YOPE   NH3 2991  15.582   6.249  10.532  0.0862 -0.1200 -0.0264
  239YOPE   PO4 2992  15.319   5.919  10.745  0.0790 -0.0359  0.3086
  239YOPE   GL1 2993  15.356   5.657  10.429 -0.2676 -0.3683  0.1955
  239YOPE   GL2 2994  15.639   5.782  10.271  0.1514 -0.1576  0.0487
  239YOPE   C1A 2995  15.338   5.557   9.922  0.1396 -0.0211 -0.0062
  239YOPE   D2A 2996  15.529   5.660   9.527 -0.3219  0.1092  0.0209
  239YOPE   C3A 2997  15.438   6.057   9.331  0.1112  0.0294  0.4160
  239YOPE   C4A 2998  15.546   6.475   9.244  0.3369  0.0367  0.0804
  239YOPE   C1B 2999  15.845   5.822   9.923 -0.2415 -0.0620  0.1575
  239YOPE   C2B 3000  15.876   6.065   9.556 -0.3040  0.0352  0.3766
  239YOPE   D3B 3001  15.929   5.974   9.150  0.0721 -0.0850  0.1162
  239YOPE   C4B 3002  15.586   5.997   8.827 -0.1266  0.0894 -0.2056
  240YOPE   NH3 3003  10.624   5.776  10.514  0.1402  0.2429  0.2895
  240YOPE   PO4 3004  10.926   5.462  10.367  0.1391  0.3607 -0.2395
  240YOPE   GL1 3005  10.941   5.358   9.891 -0.3453 -0.1840  0.1480
  240YOPE   GL2 3006  10.783   5.084   9.699  0.2660  0.0172 -0.1360
  240YOPE   C1A 3007  11.008   5.518   9.509 -0.1278 -0.1442 -0.1674
  240YOPE   D2A 3008  10.902   5.497   9.099 -0.1030 -0.0458  0.3252
  240YOPE   C3A 3009  11.010   5.864   8.826 -0.1642  0.4335  0.3785
  240YOPE   C4A 3010  11.009   6.306   8.648 -0.3177 -0.1327 -0.2943
  240YOPE   C1B 3011  10.738   5.096   9.343 -0.4712 -0.2057  0.0179
  240YOPE   C2B 3012  10.618   4.871   9.002  0.4009 -0.0926  0.0881
  240YOPE   D3B 3013  10.519   4.719   8.672 -0.2515  0.1061  0.1157
  240YOPE   C4B 3014  10.705   4.334   8.538  0.1203 -0.2987  0.0756
  241YOPE   NH3 3015  16.327   0.426  10.105  0.0448 -0.1615  0.0054
  241YOPE   PO4 3016  16.189   0.888  10.111  0.1093 -0.1969  0.0767
  241YOPE   GL1 3017  16.214   0.902   9.693 -0.1842  0.0007 -0.2690
  241YOPE   GL2 3018  15.899   0.829   9.580  0.2503  0.1761 -0.4489
  241YOPE   C1A 3019  16.424   0.738   9.325 -0.1128  0.1126  0.0509
  241YOPE   D2A 3020  16.605   0.452   9.118 -0.3763  0.0119 -0.1300
  241YOPE   C3A 3021  16.582   0.382   8.742 -0.0318 -0.0385  0.0591
  241YOPE   C4A 3022  16.407   0.330   8.316  0.0569 -0.3073 -0.1808
  241YOPE   C1B 3023  15.962   0.751   9.161  0.2501 -0.1674 -0.1670
  241YOPE   C2B 3024  15.865   0.739   8.694 -0.1137 -0.0424  0.0827
  241YOPE   D3B 3025  15.906   0.630   8.173 -0.0970 -0.0015  0.3600
  241YOPE   C4B 3026  15.980   0.395   7.829  0.0384  0.0178 -0.1721
  242YOPE   NH3 3027  11.218  13.337   9.955 -0.0166  0.2016  0.1629
  242YOPE   PO4 3028  10.897  13.500   9.764  0.4422 -0.1166  0.1888
  242YOPE   GL1 3029  10.948  13.738   9.439  0.2444  0.3854  0.0991
  242YOPE   GL2 3030  11.140  14.038   9.405 -0.0124 -0.0663  0.0291
  242YOPE   C1A 3031  10.909  13.831   8.980 -0.0810  0.0327  0.1158
  242YOPE   D2A 3032  10.935  13.961   8.668 -0.2066  0.0647  0.3147
  242YOPE   C3A 3033  11.152  13.909   8.235  0.3822 -0.0359  0.0945
  242YOPE   C4A 3034  11.183  13.631   7.918  0.0947 -0.0080  0.0719
  242YOPE   C1B 3035  11.265  14.111   8.980 -0.0405  0.2489 -0.1398
  242YOPE   C2B 3036  11.359  14.257   8.590  0.0643  0.0177  0.0169
  242YOPE   D3B 3037  11.667  14.043   8.291  0.2795 -0.0193 -0.1065
  242YOPE   C4B 3038  11.785  13.639   8.202  0.0372 -0.0926 -0.2734
  243YOPE   NH3 3039  11.327   7.884  10.201  0.1029 -0.6007 -0.3384
  243YOPE   PO4 3040  11.222   7.513  10.368 -0.0378  0.2115  0.0804
  243YOPE   GL1 3041  11.344   7.518   9.892  0.2567 -0.1554 -0.1059
  243YOPE   GL2 3042  11.384   7.201   9.734 -0.3061  0.1983 -0.0579
  243YOPE   C1A 3043  11.252   7.656   9.490  0.0472  0.1674 -0.1198
  243YOPE   D2A 3044  10.804   7.658   9.365 -0.2904  0.0235 -0.0738
  243YOPE   C3A 3045  10.676   7.942   9.058 -0.1673  0.0207 -0.1333
  243YOPE   C4A 3046  10.813   8.100   8.693  0.2232 -0.2575  0.0784
  243YOPE   C1B 3047  11.052   7.215   9.370  0.0910 -0.2120  0.2946
  243YOPE   C2B 3048  10.999   7.411   8.993 -0.0075 -0.0239  0.0161
  243YOPE   D3B 3049  11.175   7.369   8.613 -0.1391  0.2608  0.1213
  243YOPE   C4B 3050  11.185   7.241   8.205 -0.0933  0.1880 -0.0596
  244YOPE   NH3 3051   5.780   7.867   9.923 -0.0039  0.0606  0.0509
  244YOPE   PO4 3052   5.664   8.181   9.997 -0.0850 -0.1156 -0.1311
  244YOPE   GL1 3053   5.502   8.539   9.816  0.4525  0.4733 -0.1651
  244YOPE   GL2 3054   5.491   8.807   9.516 -0.0656  0.0884  0.0467
  244YOPE   C1A 3055   5.149   8.505   9.506  0.2259 -0.1792 -0.0067
  244YOPE   D2A 3056   4.693   8.762   9.432 -0.2101 -0.2622  0.1161
  244YOPE   C3A 3057   4.674   8.899   8.958 -0.0377 -0.0409 -0.3576
  244YOPE   C4A 3058   4.614   8.831   8.445  0.0790  0.0069 -0.2931
  244YOPE   C1B 3059   5.768   9.111   9.257 -0.0395 -0.0195  0.1004
  244YOPE   C2B 3060   6.016   9.434   8.979  0.1134 -0.0626 -0.1473
  244YOPE   D3B 3061   6.111   9.694   8.770  0.0481  0.0659  0.1240
  244YOPE   C4B 3062   6.101   9.975   8.451 -0.1496  0.1934  0.0279
  245YOPE   NH3 3063   6.699  12.538   9.629  0.0468  0.0835  0.3517
  245YOPE   PO4 3064   6.389  12.919   9.479  0.3998  0.4881  0.0299
  245YOPE   GL1 3065   6.592  13.398   9.255  0.0059  0.3545 -0.2390
  245YOPE   GL2 3066   6.850  13.412   9.329 -0.0111 -0.2521 -0.1837
  245YOPE   C1A 3067   6.664  13.394   8.777 -0.1200 -0.1362 -0.0208
  245YOPE   D2A 3068   6.763  13.265   8.234 -0.1412  0.0005  0.0180
  245YOPE   C3A 3069   6.666  13.497   8.027 -0.0372 -0.3225  0.5560
  245YOPE   C4A 3070   6.931  13.612   7.659  0.2466 -0.2145 -0.3105
  245YOPE   C1B 3071   7.044  13.832   9.131 -0.2502  0.1196 -0.0463
  245YOPE   C2B 3072   7.123  14.017   8.741  0.2076 -0.0968 -0.0731
  245YOPE   D3B 3073   7.497  13.846   8.556  0.2293 -0.0026 -0.0323
  245YOPE   C4B 3074   7.871  13.836   8.632 -0.0703  0.3413 -0.1254
  246YOPE   NH3 3075   3.110  13.786  10.021 -0.0459 -0.1360  0.0770
  246YOPE   PO4 3076   3.553  14.006  10.020 -0.0433  0.0582 -0.1760
  246YOPE   GL1 3077   3.338  13.978   9.579  0.0227 -0.0927 -0.1767
  246YOPE   GL2 3078   3.524  13.895   9.254  0.0788  0.1533 -0.0360
  246YOPE   C1A 3079   3.285  14.367   9.317  0.0087  0.0631 -0.1356
  246YOPE   D2A 3080   2.982  14.560   9.106  0.0198 -0.0748 -0.1574
  246YOPE   C3A 3081   3.056  14.712   8.714 -0.2245  0.2585 -0.1822
  246YOPE   C4A 3082   3.550  14.694   8.678  0.1091 -0.1677 -0.2377
  246YOPE   C1B 3083   3.349  13.756   8.922  0.1483  0.0765  0.3687
  246YOPE   C2B 3084   3.107  13.778   8.602 -0.0858 -0.1849 -0.0494
  246YOPE   D3B 3085   3.007  13.547   8.275  0.2538 -0.0567 -0.0056
  246YOPE   C4B 3086   2.907  13.767   7.874  0.1113  0.1624 -0.2075
  247YOPE   NH3 3087   0.480   9.616  10.095 -0.1620  0.2269  0.1192
  247YOPE   PO4 3088   0.458  10.115  10.057  0.0033 -0.0867 -0.3427
  247YOPE   GL1 3089   0.264  10.026   9.749 -0.1946 -0.3681 -0.1178
  247YOPE   GL2 3090   0.500   9.842   9.627 -0.0834  0.2763  0.2341
  247YOPE   C1A 3091  -0.121   9.884   9.466 -0.3024  0.1368  0.1316
  247YOPE   D2A 3092  -0.097   9.704   9.129  0.3826  0.2004 -0.1672
  247YOPE   C3A 3093  -0.257   9.979   8.836 -0.0663 -0.0893  0.4395
  247YOPE   C4A 3094  -0.470   9.813   8.569  0.2399 -0.0916 -0.0932
  247YOPE   C1B 3095   0.360   9.985   9.283 -0.2446  0.1046 -0.1517
  247YOPE   C2B 3096   0.245  10.003   8.853 -0.2976  0.0720  0.0348
  247YOPE   D3B 3097   0.252  10.114   8.385 -0.2698 -0.0561  0.0259
  247YOPE   C4B 3098  -0.083  10.026   8.073  0.2308 -0.0761 -0.0960
  248YOPE   NH3 3099   8.452  12.854   9.507 -0.2027  0.1720 -0.2452
  248YOPE   PO4 3100   8.250  12.510   9.641 -0.0238 -0.0946 -0.0338
  248YOPE   GL1 3101   8.623  12.394   9.359  0.2339  0.1345 -0.0255
  248YOPE   GL2 3102   8.911  12.227   9.520 -0.0042  0.1505  0.1245
  248YOPE   C1A 3103   8.939  12.298   8.975 -0.2417 -0.0002  0.0842
  248YOPE   D2A 3104   9.196  12.216   8.538 -0.1002 -0.1032  0.3553
  248YOPE   C3A 3105   9.036  11.892   8.333 -0.1462 -0.2403 -0.2371
  248YOPE   C4A 3106   8.738  11.518   8.168 -0.0290  0.0709  0.1239
  248YOPE   C1B 3107   9.092  11.929   9.213 -0.0221 -0.2841 -0.1055
  248YOPE   C2B 3108   8.958  11.770   8.839  0.1017 -0.0746 -0.0523
  248YOPE   D3B 3109   8.549  11.556   8.746 -0.0656  0.0022  0.1973
  248YOPE   C4B 3110   8.345  11.344   8.416  0.2107 -0.2569  0.2377
  249YOPE   NH3 3111  13.493   4.276  10.605 -0.0947  0.3477 -0.0950
  249YOPE   PO4 3112  13.843   4.498  10.473  0.1188  0.2689  0.3567
  249YOPE   GL1 3113  13.901   4.623  10.020 -0.0969 -0.1373 -0.1811
  249YOPE   GL2 3114  13.964   4.469   9.747  0.1222  0.0013 -0.0345
  249YOPE   C1A 3115  13.871   4.934   9.612 -0.0638 -0.0641 -0.0223
  249YOPE   D2A 3116  14.015   5.040   9.311 -0.2507 -0.3024 -0.0770
  249YOPE   C3A 3117  14.129   5.038   9.014  0.0544  0.1531  0.0961
  249YOPE   C4A 3118  14.512   5.003   8.807 -0.0615 -0.4190  0.1243
  249YOPE   C1B 3119  13.713   4.242   9.464 -0.3679  0.1269 -0.1460
  249YOPE   C2B 3120  13.430   4.161   9.227  0.0495  0.1919 -0.3005
  249YOPE   D3B 3121  13.186   3.957   8.955  0.2048 -0.0618 -0.0418
  249YOPE   C4B 3122  13.038   4.030   8.638  0.0150  0.0976  0.0234
  250YOPE   NH3 3123  16.583  17.285   9.960  0.2387  0.0763 -0.1360
  250YOPE   PO4 3124  16.219  17.505   9.984 -0.0133 -0.0602  0.0089
  250YOPE   GL1 3125  15.931  17.249   9.604 -0.2738 -0.1548 -0.0607
  250YOPE   GL2 3126  15.879  17.556   9.524  0.0300  0.0954 -0.0082
  250YOPE   C1A 3127  15.763  17.081   9.277  0.1806  0.2156 -0.2255
  250YOPE   D2A 3128  15.821  16.922   8.849  0.2015  0.0207  0.1952
  250YOPE   C3A 3129  15.521  16.842   8.618  0.1761 -0.0757  0.1585
  250YOPE   C4A 3130  15.395  16.889   8.192  0.0220  0.0070  0.0611
  250YOPE   C1B 3131  16.137  17.522   9.108 -0.0753  0.0302  0.0028
  250YOPE   C2B 3132  16.010  17.402   8.756 -0.0576  0.0779 -0.2083
  250YOPE   D3B 3133  15.806  17.229   8.453  0.0277 -0.2669  0.0530
  250YOPE   C4B 3134  15.956  16.842   8.295  0.0776 -0.2937 -0.2481
  251YOPE   NH3 3135  10.522  17.734   9.981 -0.1625  0.0285 -0.0140
  251YOPE   PO4 3136  10.278  18.144  10.047  0.4738  0.0951 -0.1327
  251YOPE   GL1 3137  10.341  18.298   9.621 -0.2001  0.1575  0.1159
  251YOPE   GL2 3138  10.150  18.543   9.472  0.1270 -0.1118  0.1730
  251YOPE   C1A 3139  10.762  18.352   9.384 -0.0121  0.2340 -0.3546
  251YOPE   D2A 3140  10.791  18.521   9.030 -0.1739  0.1063  0.0035
  251YOPE   C3A 3141  10.654  18.382   8.717  0.1863  0.1482 -0.2126
  251YOPE   C4A 3142  10.528  18.216   8.278  0.1844  0.0841  0.0547
  251YOPE   C1B 3143  10.253  18.506   9.044  0.3650  0.1304 -0.2185
  251YOPE   C2B 3144  10.151  18.427   8.617 -0.1808 -0.0880  0.4312
  251YOPE   D3B 3145   9.964  18.466   8.140 -0.1140  0.0891  0.2972
  251YOPE   C4B 3146   9.689  18.551   7.723  0.2358  0.0182  0.3180
  252YOPE   NH3 3147   6.819   3.814  10.018 -0.0078  0.1379  0.3153
  252YOPE   PO4 3148   7.147   4.018  10.116  0.0812  0.3102 -0.0442
  252YOPE   GL1 3149   7.167   4.293   9.757  0.2650  0.2958  0.1872
  252YOPE   GL2 3150   6.914   4.149   9.595  0.3472 -0.1980  0.1161
  252YOPE   C1A 3151   7.232   4.242   9.238 -0.3753  0.1317  0.2637
  252YOPE   D2A 3152   7.170   4.137   8.783  0.1711 -0.0949 -0.0147
  252YOPE   C3A 3153   7.409   4.322   8.387  0.0584  0.0860  0.1928
  252YOPE   C4A 3154   7.723   4.243   8.110  0.2173  0.1175  0.0398
  252YOPE   C1B 3155   6.776   4.222   9.157  0.0193  0.1040 -0.0092
  252YOPE   C2B 3156   6.707   4.300   8.784 -0.2493 -0.1089  0.0189
  252YOPE   D3B 3157   6.565   4.473   8.437  0.1465  0.2754  0.1264
  252YOPE   C4B 3158   6.566   4.457   8.018 -0.0174  0.0862 -0.0110
  253YOPE   NH3 3159   1.997  14.830  10.034 -0.1629  0.4444 -0.1479
  253YOPE   PO4 3160   2.351  14.835   9.843  0.1366  0.1528  0.0236
  253YOPE   GL1 3161   2.086  14.903   9.500 -0.0509 -0.0177  0.2751
  253YOPE   GL2 3162   1.800  14.775   9.537  0.0490 -0.3124 -0.1127
  253YOPE   C1A 3163   1.929  15.027   9.059  0.2211  0.0803 -0.1410
  253YOPE   D2A 3164   1.810  15.019   8.658  0.1538 -0.0548  0.2316
  253YOPE   C3A 3165   2.097  15.160   8.408  0.1165  0.1924 -0.2536
  253YOPE   C4A 3166   2.448  15.326   8.456 -0.2186 -0.1223  0.1354
  253YOPE   C1B 3167   1.588  14.603   9.180 -0.1314 -0.0415 -0.1266
  253YOPE   C2B 3168   1.779  14.501   8.815 -0.1090  0.3084  0.0389
  253YOPE   D3B 3169   1.730  14.503   8.380  0.1337  0.1777  0.1840
  253YOPE   C4B 3170   1.722  14.471   7.992 -0.1349 -0.0928  0.0513
  254YOPE   NH3 3171   0.230   1.012  10.283 -0.3052 -0.2187  0.4168
  254YOPE   PO4 3172   0.461   0.646  10.238 -0.0591 -0.0094 -0.3110
  254YOPE   GL1 3173   0.388   0.823   9.820 -0.1639  0.3164  0.0379
  254YOPE   GL2 3174   0.288   0.457   9.572  0.2747 -0.0901 -0.0620
  254YOPE   C1A 3175   0.381   0.859   9.351  0.0438  0.1093  0.1476
  254YOPE   D2A 3176   0.252   0.832   8.932 -0.1489  0.0214  0.0496
  254YOPE   C3A 3177  -0.120   1.049   8.728  0.2050 -0.0084  0.0647
  254YOPE   C4A 3178  -0.500   1.171   8.640 -0.1376 -0.0225 -0.1955
  254YOPE   C1B 3179   0.528   0.426   9.192 -0.2930 -0.1048 -0.0966
  254YOPE   C2B 3180   0.780   0.603   8.815  0.2821 -0.0755  0.1044
  254YOPE   D3B 3181   1.167   0.634   8.591  0.1037  0.2946 -0.0207
  254YOPE   C4B 3182   1.599   0.718   8.445 -0.3312  0.0942 -0.1649
  255YOPE   NH3 3183  10.663   9.324  10.597 -0.0055  0.0383 -0.2488
  255YOPE   PO4 3184  10.645   9.047  10.214  0.2059  0.2194  0.0239
  255YOPE   GL1 3185  10.452   9.064   9.745 -0.0758  0.2932 -0.1937
  255YOPE   GL2 3186  10.358   9.355   9.729 -0.1036 -0.0393 -0.5888
  255YOPE   C1A 3187  10.612   8.999   9.327  0.0005  0.1083  0.0032
  255YOPE   D2A 3188  10.506   9.097   8.998  0.1267 -0.2618 -0.3198
  255YOPE   C3A 3189  10.558   8.934   8.618 -0.2233 -0.1528  0.2538
  255YOPE   C4A 3190  10.838   8.614   8.548  0.0151  0.1424  0.1948
  255YOPE   C1B 3191  10.164   9.367   9.420 -0.0021  0.1098  0.2631
  255YOPE   C2B 3192  10.118   9.384   9.010 -0.1181 -0.1682  0.0641
  255YOPE   D3B 3193  10.159   9.235   8.621 -0.0967  0.0208  0.1020
  255YOPE   C4B 3194  10.374   9.229   8.262 -0.1629  0.0728  0.0951
  256YOPE   NH3 3195   5.733   5.219  10.406 -0.5283 -0.0250  0.2154
  256YOPE   PO4 3196   5.507   5.194  10.112  0.0947 -0.0843  0.0056
  256YOPE   GL1 3197   5.480   4.955   9.763  0.0180  0.0426  0.0560
  256YOPE   GL2 3198   5.167   4.894   9.707  0.0494 -0.0950 -0.1633
  256YOPE   C1A 3199   5.583   4.719   9.360  0.1266 -0.2328 -0.1685
  256YOPE   D2A 3200   5.558   4.652   8.993  0.2439 -0.0265  0.1204
  256YOPE   C3A 3201   5.569   4.872   8.606  0.0567  0.1399 -0.1319
  256YOPE   C4A 3202   5.363   5.275   8.452 -0.0674 -0.0718 -0.2570
  256YOPE   C1B 3203   5.293   5.086   9.279  0.1745  0.0271  0.0681
  256YOPE   C2B 3204   5.171   5.025   8.917  0.0056  0.0180  0.2258
  256YOPE   D3B 3205   4.868   5.044   8.599  0.0417  0.1315  0.3714
  256YOPE   C4B 3206   4.489   4.927   8.365  0.1328  0.0706 -0.0668
  257YOPE   NH3 3207  17.736   4.969  10.180  0.0443  0.1676  0.2519
  257YOPE   PO4 3208  17.406   4.866   9.806 -0.2943 -0.0291 -0.0370
  257YOPE   GL1 3209  17.526   4.792   9.410 -0.0815 -0.2528  0.0853
  257YOPE   GL2 3210  17.496   4.568   9.424  0.1895  0.3904 -0.0190
  257YOPE   C1A 3211  17.604   4.877   8.914 -0.3238  0.2958  0.1925
  257YOPE   D2A 3212  17.618   5.252   8.665  0.2027  0.1251 -0.0218
  257YOPE   C3A 3213  17.308   5.464   8.411  0.0170  0.2123  0.0663
  257YOPE   C4A 3214  17.132   5.403   8.047  0.2338 -0.0752 -0.2668
  257YOPE   C1B 3215  17.752   4.451   9.152  0.0004  0.1401  0.1447
  257YOPE   C2B 3216  17.832   4.444   8.714 -0.3649  0.0048  0.0336
  257YOPE   D3B 3217  17.879   4.430   8.299  0.2029  0.0520 -0.2454
  257YOPE   C4B 3218  17.981   4.685   7.872 -0.2980  0.5419  0.1592
  258YOPE   NH3 3219   7.440  16.744  10.137  0.0652  0.1041  0.0638
  258YOPE   PO4 3220   7.805  16.929   9.915  0.2231 -0.0162 -0.0114
  258YOPE   GL1 3221   7.883  17.028   9.601  0.0786 -0.1200  0.4082
  258YOPE   GL2 3222   7.912  16.751   9.509  0.2157  0.4461 -0.1979
  258YOPE   C1A 3223   7.668  17.181   9.291 -0.2131 -0.0414  0.5344
  258YOPE   D2A 3224   7.627  17.248   8.754  0.0297  0.2339 -0.1911
  258YOPE   C3A 3225   7.571  16.990   8.361 -0.2799 -0.0174 -0.0963
  258YOPE   C4A 3226   7.328  16.878   7.957 -0.1163 -0.1123 -0.1485
  258YOPE   C1B 3227   8.039  16.902   9.105  0.0658 -0.0197  0.3939
  258YOPE   C2B 3228   8.146  17.069   8.668 -0.0848 -0.1310 -0.0969
  258YOPE   D3B 3229   8.059  17.103   8.235 -0.0613  0.2948 -0.0155
  258YOPE   C4B 3230   8.243  17.276   7.876  0.1220  0.1105 -0.1137
  259YOPE   NH3 3231   0.388  16.410  10.035  0.1061 -0.2690 -0.3313
  259YOPE   PO4 3232   0.545  16.784  10.012  0.1138 -0.1062  0.0734
  259YOPE   GL1 3233   0.529  16.979   9.744  0.0834 -0.0246 -0.2057
  259YOPE   GL2 3234   0.764  17.200   9.689 -0.3399  0.0152 -0.2096
  259YOPE   C1A 3235   0.446  17.059   9.318 -0.1348 -0.1417 -0.2475
  259YOPE   D2A 3236   0.361  17.098   8.910  0.2046 -0.0370  0.1087
  259YOPE   C3A 3237   0.377  16.783   8.597  0.4405  0.0696 -0.1211
  259YOPE   C4A 3238   0.495  16.582   8.173 -0.1287 -0.1224 -0.3117
  259YOPE   C1B 3239   0.703  17.605   9.500 -0.2512  0.2436  0.0983
  259YOPE   C2B 3240   0.825  17.748   9.167  0.0781  0.2113  0.1941
  259YOPE   D3B 3241   1.005  18.180   9.029  0.0331 -0.1217 -0.2081
  259YOPE   C4B 3242   1.074  18.335   8.621 -0.4691  0.3280  0.2912
  260YOPE   NH3 3243   3.882  11.336   9.942 -0.0061 -0.0008  0.2647
  260YOPE   PO4 3244   3.571  11.336  10.165  0.0772 -0.0214  0.2393
  260YOPE   GL1 3245   3.428  11.416   9.719  0.0680 -0.0752  0.0262
  260YOPE   GL2 3246   3.139  11.543   9.564 -0.2142  0.1679 -0.0032
  260YOPE   C1A 3247   3.624  11.587   9.314  0.3816  0.0142 -0.2834
  260YOPE   D2A 3248   3.851  11.840   9.019 -0.0151  0.0551  0.0215
  260YOPE   C3A 3249   3.843  11.676   8.605  0.3039  0.0757  0.3210
  260YOPE   C4A 3250   4.082  11.745   8.203  0.1146 -0.0355 -0.1251
  260YOPE   C1B 3251   3.208  11.316   9.242 -0.0481  0.2758 -0.0352
  260YOPE   C2B 3252   3.095  11.114   8.811  0.1104  0.1856 -0.1217
  260YOPE   D3B 3253   2.899  11.236   8.434  0.0585 -0.1102 -0.0714
  260YOPE   C4B 3254   3.115  11.497   8.192 -0.2408 -0.1076 -0.1378
  261YOPE   NH3 3255  17.464   7.386  10.583 -0.3167 -0.2579 -0.2033
  261YOPE   PO4 3256  17.473   7.328  10.186  0.0348 -0.1990 -0.3108
  261YOPE   GL1 3257  17.140   7.681   9.897 -0.1695  0.1854 -0.0240
  261YOPE   GL2 3258  17.150   8.002   9.764 -0.0682  0.1577 -0.0087
  261YOPE   C1A 3259  16.957   7.679   9.372  0.1603 -0.1698  0.0118
  261YOPE   D2A 3260  16.928   7.822   9.024 -0.1927 -0.0296  0.0797
  261YOPE   C3A 3261  16.918   7.486   8.700  0.2322 -0.0035 -0.0657
  261YOPE   C4A 3262  17.058   7.233   8.456 -0.1039  0.1972  0.2452
  261YOPE   C1B 3263  16.995   8.173   9.408 -0.0297  0.3249 -0.1510
  261YOPE   C2B 3264  17.110   8.323   8.978  0.0051 -0.3054 -0.0251
  261YOPE   D3B 3265  17.318   8.708   8.879 -0.1634  0.1289 -0.1006
  261YOPE   C4B 3266  17.698   8.785   8.841 -0.1931  0.1168  0.2795
  262YOPE   NH3 3267   2.493   6.465  10.230  0.1005  0.0480  0.2572
  262YOPE   PO4 3268   2.283   6.051  10.195  0.1405  0.1983  0.1086
  262YOPE   GL1 3269   2.425   6.106   9.780  0.1705 -0.3645  0.1787
  262YOPE   GL2 3270   2.395   6.386   9.720 -0.3589  0.3731 -0.1919
  262YOPE   C1A 3271   2.400   5.894   9.482 -0.0853  0.2122  0.3242
  262YOPE   D2A 3272   2.445   5.734   9.111 -0.0514 -0.1587 -0.1780
  262YOPE   C3A 3273   2.498   5.672   8.751 -0.2515  0.0752 -0.1933
  262YOPE   C4A 3274   2.814   5.571   8.472  0.0608  0.0341  0.3518
  262YOPE   C1B 3275   2.528   6.602   9.409  0.1948 -0.2464 -0.0425
  262YOPE   C2B 3276   2.446   6.753   9.056 -0.0107  0.1629 -0.2501
  262YOPE   D3B 3277   2.144   6.600   8.911  0.0074  0.2788 -0.2079
  262YOPE   C4B 3278   1.844   6.561   8.466  0.0296 -0.2978 -0.2360
  263YOPE   NH3 3279  14.066  10.231  10.654  0.2629 -0.2087  0.1660
  263YOPE   PO4 3280  13.946   9.905  10.487  0.5144 -0.0600 -0.1517
  263YOPE   GL1 3281  13.865   9.723  10.026  0.1744 -0.0175 -0.1264
  263YOPE   GL2 3282  13.659   9.439   9.952  0.1031  0.3171  0.0575
  263YOPE   C1A 3283  13.734   9.905   9.651  0.0773  0.3607  0.0383
  263YOPE   D2A 3284  13.710  10.271   9.355 -0.0556  0.0121 -0.2742
  263YOPE   C3A 3285  14.027  10.444   8.987  0.1999  0.0405 -0.0540
  263YOPE   C4A 3286  14.355  10.313   8.831 -0.0856 -0.1353  0.2852
  263YOPE   C1B 3287  13.468   9.315   9.549  0.0303 -0.0076 -0.2113
  263YOPE   C2B 3288  13.467   9.383   9.088 -0.1081  0.3671  0.1830
  263YOPE   D3B 3289  13.592   9.730   8.792  0.2958 -0.1342  0.0716
  263YOPE   C4B 3290  13.349   9.947   8.494  0.2567  0.1197  0.2585
  264YOPE   NH3 3291   7.116  11.753   9.725  0.2844  0.0165  0.1505
  264YOPE   PO4 3292   6.882  12.074   9.617 -0.1722  0.2566 -0.3074
  264YOPE   GL1 3293   6.652  12.125   9.274  0.0905 -0.0550  0.1089
  264YOPE   GL2 3294   6.350  12.019   9.408  0.0789 -0.1041 -0.2125
  264YOPE   C1A 3295   6.442  12.073   8.848 -0.2607  0.3189  0.0387
  264YOPE   D2A 3296   6.080  11.889   8.604  0.0364 -0.0696 -0.1232
  264YOPE   C3A 3297   6.080  11.762   8.258 -0.0234  0.3252  0.2256
  264YOPE   C4A 3298   6.262  11.469   7.855 -0.1985  0.1298 -0.0141
  264YOPE   C1B 3299   5.983  12.253   9.238 -0.0867 -0.2578  0.0894
  264YOPE   C2B 3300   6.077  12.370   8.823  0.0039  0.0811  0.2952
  264YOPE   D3B 3301   6.244  12.446   8.404  0.3374  0.1384 -0.0058
  264YOPE   C4B 3302   6.084  12.310   8.132 -0.1824  0.0559  0.1372
  265YOPE   NH3 3303  15.940   1.337  10.083 -0.0291  0.1370  0.1597
  265YOPE   PO4 3304  15.591   1.410   9.950  0.2582  0.0757  0.1687
  265YOPE   GL1 3305  15.640   1.486   9.581 -0.1754 -0.2977  0.1945
  265YOPE   GL2 3306  15.950   1.348   9.578  0.0779  0.0972 -0.0911
  265YOPE   C1A 3307  15.668   1.565   9.106 -0.1202 -0.1451  0.3002
  265YOPE   D2A 3308  15.949   1.646   8.911 -0.0005  0.0969 -0.2302
  265YOPE   C3A 3309  15.966   1.941   8.628  0.0835  0.0432 -0.0920
  265YOPE   C4A 3310  16.056   2.437   8.678 -0.0004  0.0840  0.0010
  265YOPE   C1B 3311  16.060   1.202   9.262  0.0448 -0.1457  0.2992
  265YOPE   C2B 3312  16.035   1.198   8.773  0.2521 -0.0568  0.4885
  265YOPE   D3B 3313  15.814   1.508   8.444  0.1571  0.2713  0.0662
  265YOPE   C4B 3314  15.490   1.624   8.111  0.0685  0.2170  0.2307
  266YOPE   NH3 3315  11.307   5.150  10.269  0.5028  0.1769  0.1338
  266YOPE   PO4 3316  11.784   4.768  10.332 -0.1540  0.0527 -0.0299
  266YOPE   GL1 3317  11.900   4.897   9.944 -0.1772  0.0148 -0.0702
  266YOPE   GL2 3318  11.951   5.151   9.960  0.0167  0.2023  0.0166
  266YOPE   C1A 3319  12.096   4.740   9.579 -0.0873 -0.1198  0.1702
  266YOPE   D2A 3320  11.963   4.425   9.295  0.0968 -0.5752  0.1440
  266YOPE   C3A 3321  12.284   4.517   8.950 -0.1435 -0.0530 -0.0850
  266YOPE   C4A 3322  12.224   4.703   8.511  0.3538  0.0794 -0.0338
  266YOPE   C1B 3323  11.875   5.224   9.584  0.0413 -0.1377  0.1327
  266YOPE   C2B 3324  11.869   5.405   9.175  0.0519  0.1112 -0.0527
  266YOPE   D3B 3325  11.779   5.177   8.685  0.0793 -0.4403 -0.0052
  266YOPE   C4B 3326  11.900   5.108   8.281  0.1526 -0.1761  0.0012
  267YOPE   NH3 3327  16.012   5.521  10.504  0.0554  0.2200  0.4170
  267YOPE   PO4 3328  16.213   5.084  10.353 -0.1148  0.3932  0.0473
  267YOPE   GL1 3329  16.493   4.915   9.952 -0.2324 -0.1333 -0.1788
  267YOPE   GL2 3330  16.340   4.690   9.781 -0.1732  0.0028  0.1758
  267YOPE   C1A 3331  16.530   5.029   9.449 -0.1429  0.0558  0.0139
  267YOPE   D2A 3332  16.422   5.024   9.017 -0.0412  0.1027 -0.0323
  267YOPE   C3A 3333  16.629   4.793   8.675 -0.0451  0.1475  0.1760
  267YOPE   C4A 3334  17.039   4.614   8.445  0.0107 -0.1711  0.2226
  267YOPE   C1B 3335  16.399   4.555   9.387  0.2440  0.1281  0.2385
  267YOPE   C2B 3336  16.669   4.590   9.166 -0.1757  0.0517 -0.2363
  267YOPE   D3B 3337  16.920   4.516   8.936  0.0706  0.2167 -0.0917
  267YOPE   C4B 3338  17.282   4.456   8.899 -0.2553 -0.1018 -0.1953
  268POPC   NC3 3339   9.019   1.831  10.788 -0.2993  0.0857  0.0101
  268POPC   PO4 3340   9.032   1.635  10.410  0.1048  0.2573 -0.2592
  268POPC   GL1 3341   8.875   1.813   9.986  0.4021  0.1867  0.4119
  268POPC   GL2 3342   9.043   1.559   9.794  0.0572  0.0330  0.2073
  268POPC   C1A 3343   8.652   2.007   9.671  0.0041 -0.0568 -0.1029
  268POPC   D2A 3344   8.588   2.187   9.339  0.2596 -0.2521  0.0693
  268POPC   C3A 3345   8.285   1.998   8.911  0.1893  0.0233 -0.0853
  268POPC   C4A 3346   7.939   1.752   8.749  0.3103 -0.0203  0.4256
  268POPC   C1B 3347   8.937   1.681   9.354  0.0816  0.1358 -0.1834
  268POPC   C2B 3348   8.882   1.825   8.933  0.0786 -0.0154 -0.0415
  268POPC   C3B 3349   8.695   1.988   8.528 -0.1231 -0.2535  0.2150
  268POPC   C4B 3350   8.314   2.226   8.454 -0.3346 -0.3151  0.0354
  269POPC   NC3 3351   8.512   9.878  10.771 -0.0558 -0.4981  0.0273
  269POPC   PO4 3352   8.458   9.589  10.473  0.1937 -0.0519 -0.2498
  269POPC   GL1 3353   8.132   9.660  10.158 -0.2838  0.1380  0.1451
  269POPC   GL2 3354   8.107   9.904   9.956 -0.1161  0.2214 -0.0548
  269POPC   C1A 3355   8.102   9.378   9.769 -0.2297  0.2013 -0.1355
  269POPC   D2A 3356   7.878   9.442   9.268  0.1789 -0.0928 -0.2369
  269POPC   C3A 3357   7.989   9.414   8.868  0.0207  0.2919 -0.3798
  269POPC   C4A 3358   7.702   9.412   8.505 -0.0479 -0.3464  0.0581
  269POPC   C1B 3359   8.152   9.842   9.494 -0.1036 -0.0571 -0.0175
  269POPC   C2B 3360   8.249   9.790   9.110 -0.0236 -0.0678 -0.1582
  269POPC   C3B 3361   8.234   9.858   8.691 -0.4619  0.1062 -0.1557
  269POPC   C4B 3362   7.995   9.942   8.370  0.1909  0.0229 -0.0540
  270POPC   NC3 3363  14.733   9.430  10.186 -0.0229  0.0308 -0.1461
  270POPC   PO4 3364  15.147   9.734  10.198  0.1799 -0.1908  0.2298
  270POPC   GL1 3365  15.279   9.937   9.801 -0.1192 -0.0043  0.0927
  270POPC   GL2 3366  15.019   9.922   9.466 -0.1551  0.1356  0.1122
  270POPC   C1A 3367  15.466  10.086   9.374  0.1282 -0.0345 -0.0651
  270POPC   D2A 3368  15.645  10.291   9.022 -0.1206  0.1144 -0.1441
  270POPC   C3A 3369  15.582  10.693   8.913  0.1269 -0.2240 -0.0569
  270POPC   C4A 3370  15.514  11.037   8.671 -0.0606  0.0758 -0.0765
  270POPC   C1B 3371  14.868   9.589   9.124  0.3703  0.1041  0.1525
  270POPC   C2B 3372  14.659   9.551   8.628 -0.1823 -0.1704 -0.1533
  270POPC   C3B 3373  14.455   9.242   8.466 -0.0045 -0.1271  0.0651
  270POPC   C4B 3374  14.643   8.883   8.446  0.1897 -0.0264 -0.0916
  271POPC   NC3 3375  10.647  14.771   9.966 -0.0109 -0.3238  0.0658
  271POPC   PO4 3376  10.561  14.333  10.096  0.1570  0.0278  0.1521
  271POPC   GL1 3377  10.245  14.401   9.687 -0.1916 -0.3259 -0.0301
  271POPC   GL2 3378  10.381  14.793   9.500  0.0172 -0.2916  0.0368
  271POPC   C1A 3379  10.101  14.455   9.220  0.0926 -0.1137  0.0946
  271POPC   D2A 3380  10.160  14.565   8.757  0.1325 -0.1678 -0.0975
  271POPC   C3A 3381  10.021  14.929   8.684  0.0953  0.1958  0.2310
  271POPC   C4A 3382  10.068  15.419   8.583  0.2094 -0.1787 -0.1847
  271POPC   C1B 3383  10.296  14.892   9.110  0.1316 -0.2582  0.2207
  271POPC   C2B 3384  10.526  14.865   8.654 -0.0746 -0.5083 -0.1212
  271POPC   C3B 3385  10.638  15.065   8.214 -0.1356  0.0479  0.0828
  271POPC   C4B 3386  10.799  15.015   7.842  0.2523  0.0505  0.0674
  272POPC   NC3 3387  10.688  15.538  10.143  0.3343  0.1840 -0.0580
  272POPC   PO4 3388  10.841  15.248   9.941  0.0794 -0.3739 -0.2980
  272POPC   GL1 3389  10.644  15.671   9.622  0.0980 -0.5744  0.1265
  272POPC   GL2 3390  11.033  15.895   9.632 -0.8481 -0.2078 -0.2355
  272POPC   C1A 3391  10.543  15.834   9.254  0.0894  0.1618 -0.1410
  272POPC   D2A 3392  10.391  15.872   8.880 -0.0187  0.0775  0.0836
  272POPC   C3A 3393  10.518  15.905   8.547  0.2491 -0.0611  0.1292
  272POPC   C4A 3394  10.452  16.121   8.119 -0.0108 -0.0079 -0.0204
  272POPC   C1B 3395  10.995  16.096   9.232 -0.3531 -0.1176 -0.0520
  272POPC   C2B 3396  10.891  16.125   8.882  0.0926  0.1023  0.0697
  272POPC   C3B 3397  10.865  16.221   8.447 -0.1185 -0.1352  0.0243
  272POPC   C4B 3398  10.981  16.301   8.037  0.1191  0.1525  0.2458
  273POPC   NC3 3399  11.685   0.180  10.280 -0.0928  0.2992 -0.2492
  273POPC   PO4 3400  11.549  -0.250   9.994 -0.1616 -0.1110 -0.2940
  273POPC   GL1 3401  11.864  -0.396   9.637 -0.1191 -0.1582  0.1627
  273POPC   GL2 3402  11.850  -0.751   9.509 -0.1541  0.1447  0.3673
  273POPC   C1A 3403  11.760  -0.201   9.204  0.0021 -0.3469 -0.1171
  273POPC   D2A 3404  11.826  -0.164   8.859 -0.1943 -0.4590 -0.0239
  273POPC   C3A 3405  11.783  -0.327   8.483 -0.0056  0.0932 -0.0481
  273POPC   C4A 3406  11.874  -0.239   8.008 -0.0283 -0.2866  0.4110
  273POPC   C1B 3407  11.947  -0.637   9.128  0.1873 -0.2440  0.1132
  273POPC   C2B 3408  11.758  -0.758   8.756  0.0328  0.0791 -0.1857
  273POPC   C3B 3409  11.394  -0.645   8.493  0.0606  0.4664 -0.0417
  273POPC   C4B 3410  11.048  -0.255   8.443  0.2480  0.0087 -0.2937
  274POPC   NC3 3411   9.108  17.614   9.814  0.1431  0.0554  0.1498
  274POPC   PO4 3412   9.541  17.714   9.737  0.0333 -0.0856  0.3315
  274POPC   GL1 3413   9.288  18.007   9.500  0.3121  0.3317  0.1038
  274POPC   GL2 3414   9.004  17.867   9.381  0.2214  0.1752  0.1383
  274POPC   C1A 3415   9.285  18.163   9.108 -0.2734 -0.0666  0.0412
  274POPC   D2A 3416   9.196  18.339   8.727  0.0850  0.1613  0.0408
  274POPC   C3A 3417   9.457  18.642   8.644 -0.0757 -0.0324 -0.1684
  274POPC   C4A 3418   9.457  19.094   8.609 -0.0255  0.1543 -0.1731
  274POPC   C1B 3419   8.901  17.912   8.897  0.1899  0.1263 -0.2168
  274POPC   C2B 3420   8.830  17.921   8.511  0.0249  0.4634 -0.0397
  274POPC   C3B 3421   8.815  17.783   8.224 -0.0024  0.1547 -0.4253
  274POPC   C4B 3422   8.770  17.511   7.886  0.2814  0.0598 -0.1036
  275POPC   NC3 3423   6.574   0.074   9.921  0.3399  0.0888 -0.1135
  275POPC   PO4 3424   6.274   0.377   9.781  0.1358  0.3905 -0.0292
  275POPC   GL1 3425   6.310   0.096   9.407  0.0190  0.0966 -0.1123
  275POPC   GL2 3426   6.528  -0.112   9.446 -0.0145 -0.2060  0.0783
  275POPC   C1A 3427   6.392   0.043   8.969 -0.1008  0.0905 -0.0479
  275POPC   D2A 3428   6.337   0.019   8.540  0.2080  0.3887  0.1394
  275POPC   C3A 3429   6.216  -0.206   8.224  0.0022  0.0610 -0.2464
  275POPC   C4A 3430   6.410  -0.281   7.900  0.1528 -0.1398 -0.0391
  275POPC   C1B 3431   6.836  -0.153   8.998  0.2578  0.0790 -0.2861
  275POPC   C2B 3432   7.206  -0.277   8.705 -0.1468  0.0739 -0.3174
  275POPC   C3B 3433   7.274  -0.183   8.358  0.0870 -0.3169 -0.0442
  275POPC   C4B 3434   7.472  -0.321   7.955  0.0202  0.2798 -0.1847
  276POPC   NC3 3435  12.765   1.246  10.182  0.0473  0.0593 -0.2301
  276POPC   PO4 3436  13.072   1.020  10.174 -0.1300  0.3306  0.0966
  276POPC   GL1 3437  13.156   1.061   9.844  0.1521  0.0452 -0.1295
  276POPC   GL2 3438  13.348   1.316   9.806  0.2702 -0.4696  0.0092
  276POPC   C1A 3439  12.918   0.782   9.540 -0.1431  0.2340  0.0169
  276POPC   D2A 3440  13.180   0.461   9.192 -0.0974  0.1388  0.2626
  276POPC   C3A 3441  13.240   0.372   8.802 -0.0532 -0.0742 -0.0693
  276POPC   C4A 3442  13.143   0.407   8.478 -0.2519 -0.0847 -0.1213
  276POPC   C1B 3443  13.224   1.250   9.371  0.0608  0.2623 -0.0059
  276POPC   C2B 3444  13.047   1.319   9.003 -0.1160  0.4159 -0.0307
  276POPC   C3B 3445  13.072   1.213   8.659 -0.1955 -0.1026  0.1788
  276POPC   C4B 3446  13.202   0.909   8.328 -0.0807 -0.0153 -0.1431
  277POPC   NC3 3447   2.281   2.426  10.560 -0.2001  0.2243  0.1768
  277POPC   PO4 3448   2.322   1.964  10.570  0.1694  0.0087  0.0319
  277POPC   GL1 3449   2.450   2.109  10.230 -0.0844 -0.0551 -0.1597
  277POPC   GL2 3450   2.766   2.151  10.132  0.2221  0.0717  0.1252
  277POPC   C1A 3451   2.290   2.197   9.745  0.2477 -0.0514  0.2473
  277POPC   D2A 3452   2.373   2.357   9.330 -0.0734 -0.1138 -0.0468
  277POPC   C3A 3453   2.356   2.670   9.228  0.2851 -0.2097 -0.1978
  277POPC   C4A 3454   2.168   3.089   9.231  0.3670  0.0315  0.0495
  277POPC   C1B 3455   2.688   1.982   9.770  0.2321 -0.2106  0.0329
  277POPC   C2B 3456   2.794   2.079   9.390 -0.2678  0.0678  0.1649
  277POPC   C3B 3457   2.689   2.170   9.008 -0.2902 -0.2287  0.0445
  277POPC   C4B 3458   2.322   2.383   8.737  0.0354  0.1102 -0.0995
  278POPC   NC3 3459   4.440   7.727  10.136 -0.2539  0.0614 -0.0672
  278POPC   PO4 3460   4.787   7.991   9.930  0.1507  0.1328  0.0187
  278POPC   GL1 3461   5.061   7.973   9.608  0.0987 -0.2152 -0.3092
  278POPC   GL2 3462   5.301   7.815   9.666 -0.3444  0.0095 -0.0815
  278POPC   C1A 3463   5.153   8.017   9.154  0.1890  0.0320 -0.1887
  278POPC   D2A 3464   5.314   7.949   8.861 -0.0238  0.1573 -0.2458
  278POPC   C3A 3465   5.580   8.327   8.650  0.5316  0.0842  0.2763
  278POPC   C4A 3466   5.742   8.755   8.412  0.0232  0.0910  0.0187
  278POPC   C1B 3467   5.560   7.674   9.290 -0.0901 -0.0410 -0.1780
  278POPC   C2B 3468   5.578   7.415   8.946  0.0081  0.1995  0.0035
  278POPC   C3B 3469   5.857   7.288   8.548 -0.1723 -0.1631 -0.3428
  278POPC   C4B 3470   5.695   7.112   8.151 -0.0910 -0.0939 -0.0369
  279POPC   NC3 3471   5.514   9.414  10.132  0.0601  0.2702  0.1015
  279POPC   PO4 3472   5.855   9.430   9.779  0.0947  0.2467  0.2915
  279POPC   GL1 3473   5.923   9.726   9.492  0.3070 -0.2047  0.1076
  279POPC   GL2 3474   5.871  10.058   9.551  0.2413 -0.0414 -0.1071
  279POPC   C1A 3475   6.364   9.733   9.333  0.3805 -0.3830  0.0374
  279POPC   D2A 3476   6.703   9.762   9.066 -0.2064 -0.3156 -0.3711
  279POPC   C3A 3477   6.626   9.831   8.757  0.0549  0.0491  0.1459
  279POPC   C4A 3478   6.791   9.725   8.359  0.0647 -0.4045  0.0049
  279POPC   C1B 3479   5.846  10.228   9.152 -0.0326 -0.0818  0.1229
  279POPC   C2B 3480   5.846  10.279   8.728 -0.0435  0.1359 -0.2153
  279POPC   C3B 3481   5.964  10.467   8.230  0.0524  0.5188  0.2170
  279POPC   C4B 3482   5.942  10.431   7.771  0.0393  0.0805 -0.1465
  280POPC   NC3 3483  18.477   1.487  10.258  0.2684 -0.1477  0.0982
  280POPC   PO4 3484  18.929   1.702  10.304 -0.0652  0.0654  0.2248
  280POPC   GL1 3485  18.855   1.536   9.976  0.0356 -0.1229  0.1368
  280POPC   GL2 3486  19.052   1.363   9.954 -0.0502  0.1695 -0.1262
  280POPC   C1A 3487  18.777   1.340   9.543 -0.1361  0.0642 -0.2043
  280POPC   D2A 3488  18.716   1.321   9.069 -0.0425 -0.1223 -0.2319
  280POPC   C3A 3489  18.870   1.513   8.745  0.0076  0.0482 -0.1610
  280POPC   C4A 3490  19.222   1.510   8.440 -0.3225  0.2976  0.1661
  280POPC   C1B 3491  19.289   1.123   9.647 -0.0510  0.1077 -0.0914
  280POPC   C2B 3492  19.383   0.830   9.269 -0.1467  0.0631  0.0882
  280POPC   C3B 3493  19.549   0.453   9.216  0.0639 -0.2936 -0.1086
  280POPC   C4B 3494  19.794   0.172   8.914 -0.0116 -0.0349 -0.5405
  281POPC   NC3 3495  10.888  16.946  10.193  0.0099 -0.0277  0.2395
  281POPC   PO4 3496  11.013  16.560  10.173  0.2920 -0.1397  0.0147
  281POPC   GL1 3497  11.006  16.697   9.751 -0.3536 -0.1660  0.2075
  281POPC   GL2 3498  10.903  16.386   9.616  0.0488  0.1877  0.1880
  281POPC   C1A 3499  10.894  17.037   9.541  0.1658 -0.0458  0.1583
  281POPC   D2A 3500  10.591  17.323   9.406 -0.0959 -0.0581 -0.0887
  281POPC   C3A 3501  10.582  17.536   9.051 -0.0201 -0.0269 -0.0267
  281POPC   C4A 3502  10.548  17.555   8.589  0.5041  0.1698  0.2846
  281POPC   C1B 3503  10.924  16.603   9.232 -0.0683 -0.0238 -0.1088
  281POPC   C2B 3504  10.918  16.666   8.835 -0.0357 -0.1794  0.0138
  281POPC   C3B 3505  10.948  16.723   8.356 -0.1588 -0.0199 -0.3163
  281POPC   C4B 3506  10.891  16.870   7.933  0.1860  0.1766  0.1063
  282POPC   NC3 3507  10.929  14.032   9.897 -0.3109  0.0992  0.2250
  282POPC   PO4 3508  10.587  13.881   9.812  0.1096 -0.1736  0.0209
  282POPC   GL1 3509  10.411  14.020   9.478  0.0699  0.0884  0.2038
  282POPC   GL2 3510  10.072  13.846   9.349 -0.0698  0.1438  0.3226
  282POPC   C1A 3511  10.432  14.085   9.070 -0.1746  0.0678 -0.1208
  282POPC   D2A 3512  10.484  14.173   8.652  0.1381  0.0194  0.0314
  282POPC   C3A 3513  10.390  14.463   8.350 -0.2435 -0.0818  0.0037
  282POPC   C4A 3514  10.419  14.560   7.960 -0.0848 -0.1385 -0.2129
  282POPC   C1B 3515  10.017  13.968   8.836  0.0539 -0.0170 -0.0625
  282POPC   C2B 3516  10.002  14.129   8.447 -0.1127  0.2338 -0.0836
  282POPC   C3B 3517   9.954  14.146   8.063  0.3760 -0.1460 -0.0166
  282POPC   C4B 3518  10.005  14.511   7.773  0.0261  0.0020  0.2537
  283POPC   NC3 3519   1.163  15.430  10.235  0.0397 -0.1981 -0.0750
  283POPC   PO4 3520   1.378  15.770  10.091 -0.4029 -0.1486 -0.1678
  283POPC   GL1 3521   1.314  15.496   9.703  0.1781 -0.1758  0.1269
  283POPC   GL2 3522   0.974  15.601   9.632  0.1915  0.3876  0.1862
  283POPC   C1A 3523   1.622  15.502   9.303 -0.0997  0.1247 -0.1103
  283POPC   D2A 3524   1.719  15.669   8.963  0.0999  0.2109 -0.1226
  283POPC   C3A 3525   1.722  16.039   8.756 -0.2916  0.1617 -0.1991
  283POPC   C4A 3526   1.760  16.429   8.680 -0.3943  0.1255  0.2221
  283POPC   C1B 3527   1.011  15.409   9.256 -0.0413  0.3756 -0.4865
  283POPC   C2B 3528   1.012  15.463   8.856 -0.0136 -0.1314 -0.2228
  283POPC   C3B 3529   0.977  15.293   8.483 -0.0130 -0.0633  0.0107
  283POPC   C4B 3530   0.733  15.045   8.236  0.2026 -0.0750  0.0648
  284POPC   NC3 3531  13.028   8.693  10.197  0.1518 -0.1168 -0.2502
  284POPC   PO4 3532  13.105   8.288  10.148  0.0542 -0.3272  0.2567
  284POPC   GL1 3533  13.105   8.213   9.725  0.2689 -0.0114 -0.0244
  284POPC   GL2 3534  13.365   8.382   9.512  0.0061  0.1119 -0.0148
  284POPC   C1A 3535  13.042   8.004   9.420  0.0034  0.1789  0.1403
  284POPC   D2A 3536  13.080   7.659   9.125  0.1821 -0.1474 -0.0797
  284POPC   C3A 3537  13.154   7.770   8.537 -0.0682 -0.1597 -0.2764
  284POPC   C4A 3538  13.056   7.974   8.146 -0.3105  0.0691  0.2090
  284POPC   C1B 3539  13.749   8.457   9.188 -0.0842  0.0815 -0.2760
  284POPC   C2B 3540  13.745   8.547   8.736 -0.1289  0.0643 -0.0985
  284POPC   C3B 3541  13.615   8.697   8.246  0.0217  0.2534 -0.1424
  284POPC   C4B 3542  13.817   8.554   7.869 -0.0524 -0.0036 -0.1232
  285POPC   NC3 3543  16.972  18.249  10.119  0.1008  0.1885  0.3286
  285POPC   PO4 3544  16.627  18.565  10.100  0.0866 -0.1819 -0.1403
  285POPC   GL1 3545  16.654  18.761   9.705  0.3480 -0.2403  0.0093
  285POPC   GL2 3546  16.854  18.777   9.473 -0.1523 -0.1455 -0.0623
  285POPC   C1A 3547  16.352  18.826   9.506 -0.1262 -0.2276  0.2806
  285POPC   D2A 3548  16.125  18.807   9.220 -0.5194 -0.1591 -0.0033
  285POPC   C3A 3549  15.992  18.777   8.754 -0.0140 -0.0672 -0.0682
  285POPC   C4A 3550  15.963  18.655   8.416 -0.0921 -0.0726  0.0749
  285POPC   C1B 3551  16.996  18.639   9.073 -0.1145  0.0426 -0.0270
  285POPC   C2B 3552  17.019  18.587   8.620 -0.0134  0.4154  0.2839
  285POPC   C3B 3553  17.175  18.702   8.226  0.0912 -0.2453  0.0071
  285POPC   C4B 3554  17.422  18.955   8.113 -0.0799  0.2689  0.1270
  286POPC   NC3 3555   5.992   2.536  10.049 -0.0262 -0.0003  0.1065
  286POPC   PO4 3556   6.168   2.938   9.959  0.1998  0.1331 -0.1645
  286POPC   GL1 3557   6.047   3.175   9.522 -0.0951  0.1622 -0.1083
  286POPC   GL2 3558   6.328   3.422   9.400  0.0603  0.1485  0.0895
  286POPC   C1A 3559   5.985   3.110   9.088 -0.5223  0.2655 -0.1195
  286POPC   D2A 3560   5.951   3.059   8.572  0.0652 -0.1506  0.0261
  286POPC   C3A 3561   6.128   3.237   8.290  0.1351 -0.0763  0.0484
  286POPC   C4A 3562   6.070   3.715   8.277  0.4414 -0.4441  0.0098
  286POPC   C1B 3563   6.329   3.426   8.936  0.1597  0.0996  0.1654
  286POPC   C2B 3564   6.432   3.546   8.549  0.1145 -0.0161 -0.1079
  286POPC   C3B 3565   6.613   3.793   8.367  0.0808  0.1926 -0.1576
  286POPC   C4B 3566   6.858   4.104   8.293  0.0894 -0.3105  0.0715
  287POPC   NC3 3567   9.677   8.857  10.509 -0.0343 -0.1896 -0.1969
  287POPC   PO4 3568   9.240   8.934  10.393 -0.0224 -0.1362  0.2785
  287POPC   GL1 3569   8.935   9.034  10.079  0.0281 -0.1197 -0.1679
  287POPC   GL2 3570   9.141   8.786   9.921 -0.1326 -0.1576  0.2659
  287POPC   C1A 3571   8.712   8.931   9.660 -0.0491  0.0589 -0.0549
  287POPC   D2A 3572   8.739   8.664   9.136 -0.0070 -0.1265  0.1389
  287POPC   C3A 3573   8.659   8.810   8.717 -0.0303  0.1377 -0.0562
  287POPC   C4A 3574   8.699   9.102   8.437  0.3060 -0.1086 -0.0917
  287POPC   C1B 3575   9.376   8.829   9.476  0.4335  0.4537  0.1306
  287POPC   C2B 3576   9.320   8.902   9.076 -0.0802 -0.2692  0.1252
  287POPC   C3B 3577   9.226   8.681   8.719  0.3468  0.3754 -0.2648
  287POPC   C4B 3578   9.169   8.774   8.152 -0.0692  0.0873  0.1843
  288POPC   NC3 3579   4.251   3.985  10.262  0.0521  0.2163 -0.0441
  288POPC   PO4 3580   3.852   4.055  10.465 -0.2130  0.2524  0.1541
  288POPC   GL1 3581   3.715   3.914  10.088 -0.2106  0.0488  0.1505
  288POPC   GL2 3582   3.868   3.813   9.857 -0.1498  0.3464 -0.1697
  288POPC   C1A 3583   3.582   4.200   9.741 -0.2672  0.0879 -0.0542
  288POPC   D2A 3584   3.505   4.242   9.277  0.0117 -0.1005 -0.1788
  288POPC   C3A 3585   3.627   4.525   8.953 -0.2055 -0.0477 -0.3288
  288POPC   C4A 3586   3.525   4.842   8.643 -0.2003  0.0985 -0.0418
  288POPC   C1B 3587   3.758   3.844   9.407 -0.0070  0.0456  0.2774
  288POPC   C2B 3588   3.649   3.811   9.000  0.0774 -0.3463  0.0018
  288POPC   C3B 3589   3.791   3.634   8.592  0.2465  0.0573  0.1041
  288POPC   C4B 3590   3.723   3.781   8.255  0.1114 -0.1074 -0.0004
  289POPC   NC3 3591   3.010  15.555  10.143  0.3866 -0.0295 -0.0165
  289POPC   PO4 3592   3.176  15.239   9.900 -0.0429 -0.4728  0.1725
  289POPC   GL1 3593   3.144  15.161   9.447  0.1784  0.2853  0.3342
  289POPC   GL2 3594   3.197  15.489   9.304 -0.0254  0.0796  0.0121
  289POPC   C1A 3595   2.980  15.127   9.068 -0.1808  0.1365  0.0142
  289POPC   D2A 3596   2.810  15.147   8.720 -0.0196  0.3253 -0.1464
  289POPC   C3A 3597   2.710  14.790   8.398  0.0431 -0.2177  0.1769
  289POPC   C4A 3598   2.737  14.598   7.980  0.0475  0.3068  0.0944
  289POPC   C1B 3599   3.148  15.531   8.835  0.1710  0.1231  0.0806
  289POPC   C2B 3600   3.011  15.522   8.473 -0.0090  0.0507 -0.2540
  289POPC   C3B 3601   2.883  15.203   8.173  0.0840 -0.1447  0.1616
  289POPC   C4B 3602   2.437  15.019   8.015 -0.2011 -0.1032 -0.0350
  290POPC   NC3 3603  14.779  15.972  10.225 -0.1292 -0.0161 -0.1764
  290POPC   PO4 3604  14.375  15.706  10.084 -0.1348 -0.0034 -0.1487
  290POPC   GL1 3605  14.769  15.843   9.721  0.0737  0.2166  0.0496
  290POPC   GL2 3606  14.868  15.562   9.568 -0.0687 -0.2399  0.0371
  290POPC   C1A 3607  14.854  15.991   9.365 -0.0675 -0.1732  0.1228
  290POPC   D2A 3608  14.634  16.263   9.098 -0.0303  0.1295 -0.1854
  290POPC   C3A 3609  14.588  16.267   8.729 -0.2126 -0.2665 -0.1946
  290POPC   C4A 3610  14.229  16.334   8.438  0.2474 -0.0089  0.1083
  290POPC   C1B 3611  15.070  15.308   9.210  0.2065  0.1292  0.2447
  290POPC   C2B 3612  15.164  15.238   8.797  0.3154  0.1013  0.0254
  290POPC   C3B 3613  15.124  15.474   8.319 -0.0290  0.2428  0.0597
  290POPC   C4B 3614  15.169  15.809   8.059  0.0597 -0.0743  0.1374
  291POPC   NC3 3615  14.590   1.879  10.476  0.0100  0.1224 -0.1903
  291POPC   PO4 3616  14.358   2.270  10.406 -0.0522 -0.0946  0.1686
  291POPC   GL1 3617  14.108   2.248   9.990 -0.1888  0.2738 -0.0494
  291POPC   GL2 3618  14.328   2.424   9.825 -0.0540 -0.0238 -0.3250
  291POPC   C1A 3619  14.010   1.935   9.687  0.2872 -0.1103 -0.0279
  291POPC   D2A 3620  14.199   1.555   9.702  0.4689  0.0843  0.0746
  291POPC   C3A 3621  14.076   1.099   9.580  0.0267 -0.3714 -0.2389
  291POPC   C4A 3622  14.144   0.720   9.526 -0.1328 -0.2239 -0.0967
  291POPC   C1B 3623  14.439   2.238   9.559 -0.1464  0.0648  0.5610
  291POPC   C2B 3624  14.541   2.227   9.061 -0.1475 -0.0381  0.1273
  291POPC   C3B 3625  14.350   2.009   8.818  0.0112 -0.1168  0.1591
  291POPC   C4B 3626  14.082   1.973   8.578 -0.1321  0.0074  0.0513
  292POPC   NC3 3627   6.922  10.566  10.163  0.0734 -0.0131 -0.0609
  292POPC   PO4 3628   6.453  10.418  10.001  0.3445  0.0408 -0.0103
  292POPC   GL1 3629   6.362  10.633   9.621  0.1457 -0.1729 -0.1519
  292POPC   GL2 3630   6.320  10.367   9.494  0.2046 -0.2498 -0.0235
  292POPC   C1A 3631   6.591  10.678   9.275  0.0558  0.0456  0.0487
  292POPC   D2A 3632   6.629  10.724   8.770  0.1670 -0.2331 -0.1664
  292POPC   C3A 3633   6.570  11.133   8.548  0.3226 -0.2029 -0.0747
  292POPC   C4A 3634   6.440  11.479   8.342 -0.3250  0.2297 -0.1748
  292POPC   C1B 3635   6.348  10.173   9.069 -0.2178 -0.1174  0.0231
  292POPC   C2B 3636   6.432  10.310   8.618  0.0604 -0.2922 -0.2669
  292POPC   C3B 3637   6.521  10.148   8.266  0.1689  0.1775 -0.0726
  292POPC   C4B 3638   6.420  10.428   7.922 -0.2266 -0.0170 -0.1278
  293POPC   NC3 3639  12.942  15.654  10.021 -0.3938  0.0978 -0.0865
  293POPC   PO4 3640  13.406  15.797  10.052  0.3512 -0.2209  0.0137
  293POPC   GL1 3641  13.696  15.973   9.749  0.1639 -0.2737 -0.1818
  293POPC   GL2 3642  13.555  16.279   9.600  0.0184 -0.1319 -0.1587
  293POPC   C1A 3643  13.785  15.933   9.300  0.0794 -0.2638 -0.1517
  293POPC   D2A 3644  13.933  15.914   8.946  0.2797 -0.1620  0.1538
  293POPC   C3A 3645  13.845  16.026   8.524 -0.0415  0.0379  0.1196
  293POPC   C4A 3646  13.636  16.351   8.301 -0.0108  0.2509 -0.2471
  293POPC   C1B 3647  13.323  16.188   9.296  0.3880 -0.1844  0.0559
  293POPC   C2B 3648  13.141  16.311   8.991  0.0440 -0.1427 -0.2459
  293POPC   C3B 3649  13.216  16.374   8.650  0.3448 -0.2524  0.1174
  293POPC   C4B 3650  13.153  16.708   8.344 -0.0180 -0.0336  0.0895
  294POPC   NC3 3651  16.365   9.878  10.496  0.1036 -0.0050  0.3101
  294POPC   PO4 3652  16.209   9.521  10.196 -0.1156 -0.2797  0.1726
  294POPC   GL1 3653  16.140   9.886   9.957  0.1644 -0.1365 -0.0566
  294POPC   GL2 3654  16.065  10.242  10.100 -0.1060 -0.0072  0.1312
  294POPC   C1A 3655  16.230  10.189   9.636 -0.1915 -0.1587  0.2161
  294POPC   D2A 3656  16.313  10.272   9.113  0.3042  0.2688  0.1602
  294POPC   C3A 3657  16.275  10.281   8.729  0.1874  0.0028  0.0608
  294POPC   C4A 3658  15.905  10.140   8.590  0.0440  0.0693 -0.0769
  294POPC   C1B 3659  15.950  10.660   9.930  0.2946 -0.0579 -0.0212
  294POPC   C2B 3660  16.002  11.039   9.647 -0.1668  0.0414  0.1624
  294POPC   C3B 3661  16.174  11.301   9.334  0.2228 -0.0868  0.1795
  294POPC   C4B 3662  16.275  11.339   8.927 -0.0258  0.1483 -0.1348
  295POPC   NC3 3663   2.748  16.796  10.728  0.5039 -0.0046  0.2161
  295POPC   PO4 3664   3.031  16.672  10.384 -0.0143 -0.0580 -0.0346
  295POPC   GL1 3665   2.750  16.482   9.980 -0.2182  0.1324  0.1375
  295POPC   GL2 3666   2.564  16.220  10.092  0.1571 -0.0196  0.0016
  295POPC   C1A 3667   2.262  16.611   9.888  0.0467 -0.0787  0.2706
  295POPC   D2A 3668   1.958  16.356   9.617 -0.0925 -0.2139 -0.1977
  295POPC   C3A 3669   1.518  16.591   9.692 -0.1472 -0.1104 -0.0340
  295POPC   C4A 3670   1.332  16.946   9.594  0.1390  0.0699  0.0489
  295POPC   C1B 3671   2.547  16.243   9.588 -0.0775  0.0622  0.3982
  295POPC   C2B 3672   2.243  16.429   9.249 -0.0251 -0.0160  0.0853
  295POPC   C3B 3673   1.891  16.433   9.136  0.2582 -0.0785 -0.0148
  295POPC   C4B 3674   1.572  16.699   9.115 -0.3630  0.0092 -0.1377
  296POPC   NC3 3675   5.669  16.534  10.613  0.2518  0.2579 -0.2473
  296POPC   PO4 3676   5.638  16.517  10.158 -0.3905 -0.0869 -0.0144
  296POPC   GL1 3677   5.571  16.488   9.687 -0.2701  0.4298 -0.1050
  296POPC   GL2 3678   5.464  16.764   9.492 -0.0991  0.0187 -0.0318
  296POPC   C1A 3679   5.423  16.347   9.222 -0.2849 -0.0337 -0.1712
  296POPC   D2A 3680   5.191  16.509   8.875 -0.2855  0.5078 -0.0607
  296POPC   C3A 3681   5.167  16.568   8.481  0.3528 -0.0719  0.0492
  296POPC   C4A 3682   5.171  16.420   8.069  0.1399 -0.0219 -0.0781
  296POPC   C1B 3683   5.573  16.802   9.018  0.0034  0.1751 -0.0598
  296POPC   C2B 3684   5.635  16.716   8.625 -0.3276  0.2258  0.0164
  296POPC   C3B 3685   5.623  16.886   8.193 -0.0584  0.1888  0.0240
  296POPC   C4B 3686   5.625  17.129   7.831  0.3723 -0.1252  0.0766
  297POPC   NC3 3687   0.417   3.200  10.232 -0.1577  0.0959 -0.1236
  297POPC   PO4 3688   0.255   3.725  10.298 -0.1286  0.2412 -0.2280
  297POPC   GL1 3689   0.161   3.852   9.910 -0.0548 -0.1539 -0.1351
  297POPC   GL2 3690   0.159   4.281   9.825 -0.0506 -0.0276  0.1872
  297POPC   C1A 3691   0.030   4.045   9.457  0.1461 -0.1310 -0.1326
  297POPC   D2A 3692   0.167   4.086   9.087  0.2838  0.0604  0.2571
  297POPC   C3A 3693   0.141   3.856   8.742  0.0621  0.1114 -0.2240
  297POPC   C4A 3694   0.088   3.984   8.349  0.1545 -0.0190 -0.0801
  297POPC   C1B 3695   0.222   4.523   9.514  0.0060 -0.1868 -0.4052
  297POPC   C2B 3696  -0.024   4.564   9.139  0.0232  0.3861 -0.1689
  297POPC   C3B 3697  -0.038   4.465   8.783 -0.0484  0.0162 -0.0634
  297POPC   C4B 3698   0.297   4.600   8.511 -0.0268  0.1708 -0.0311
  298POPC   NC3 3699   2.827  12.144   9.806  0.1261  0.2506  0.3924
  298POPC   PO4 3700   2.565  12.389  10.022 -0.4378 -0.0352  0.1308
  298POPC   GL1 3701   2.117  12.215   9.926  0.2200 -0.3436 -0.2005
  298POPC   GL2 3702   1.920  12.487   9.681 -0.1877  0.1025  0.0945
  298POPC   C1A 3703   1.927  11.923   9.559 -0.0063 -0.0187 -0.0676
  298POPC   D2A 3704   1.636  11.596   9.430  0.1090  0.0042 -0.1744
  298POPC   C3A 3705   1.586  11.565   8.965 -0.1175  0.0795  0.2730
  298POPC   C4A 3706   1.388  11.529   8.503 -0.1642  0.0173 -0.1832
  298POPC   C1B 3707   1.762  12.663   9.352  0.1273  0.0740  0.0715
  298POPC   C2B 3708   1.688  12.650   8.918 -0.1597  0.1609 -0.0064
  298POPC   C3B 3709   1.447  12.541   8.622  0.2038 -0.1540  0.0894
  298POPC   C4B 3710   1.052  12.327   8.596 -0.3175 -0.1862 -0.1500
  299POPC   NC3 3711   2.618   8.954  10.417 -0.1314 -0.2531  0.0024
  299POPC   PO4 3712   2.726   8.656  10.134  0.1704  0.0826  0.3832
  299POPC   GL1 3713   2.968   8.698   9.742  0.1429  0.3462 -0.2446
  299POPC   GL2 3714   3.286   8.686   9.755 -0.2016  0.1401 -0.1202
  299POPC   C1A 3715   2.973   8.664   9.295  0.0993 -0.0727 -0.0207
  299POPC   D2A 3716   2.823   8.750   8.793  0.1612 -0.1685  0.0602
  299POPC   C3A 3717   2.349   8.769   8.507  0.3966 -0.2144 -0.0834
  299POPC   C4A 3718   2.126   8.570   8.181  0.0360  0.1524  0.1453
  299POPC   C1B 3719   3.439   8.805   9.405 -0.2122  0.0353 -0.0185
  299POPC   C2B 3720   3.746   8.945   9.081 -0.1343  0.1795  0.3608
  299POPC   C3B 3721   3.882   8.691   8.913  0.0404  0.2133  0.0533
  299POPC   C4B 3722   3.721   8.415   8.569  0.4651 -0.2982 -0.0217
  300POPC   NC3 3723   6.139  15.284   9.881 -0.0094 -0.0319  0.0660
  300POPC   PO4 3724   6.465  15.032   9.742 -0.1966  0.0487 -0.0489
  300POPC   GL1 3725   6.262  14.972   9.358  0.1097  0.1188  0.0922
  300POPC   GL2 3726   6.020  15.177   9.372 -0.5728 -0.1754 -0.1993
  300POPC   C1A 3727   6.197  15.066   8.929 -0.1131  0.0712 -0.0743
  300POPC   D2A 3728   6.200  14.983   8.441 -0.0631  0.0355 -0.2541
  300POPC   C3A 3729   6.161  15.152   7.984 -0.0763  0.0680 -0.0887
  300POPC   C4A 3730   6.020  15.583   8.174 -0.3987  0.2713 -0.1123
  300POPC   C1B 3731   5.856  15.413   9.139 -0.2673 -0.1952 -0.1412
  300POPC   C2B 3732   5.918  15.703   8.750  0.4233  0.1285  0.0279
  300POPC   C3B 3733   6.039  16.031   8.481 -0.0786  0.1312  0.1525
  300POPC   C4B 3734   6.238  16.040   8.079  0.1279 -0.0461 -0.1141
  301POPC   NC3 3735   3.791   0.115  10.376 -0.2846  0.2388 -0.2257
  301POPC   PO4 3736   3.608  -0.204  10.099  0.1220 -0.0696 -0.1080
  301POPC   GL1 3737   3.392  -0.231   9.707 -0.1250 -0.3164 -0.0767
  301POPC   GL2 3738   3.179  -0.522   9.670 -0.0539  0.2207  0.2335
  301POPC   C1A 3739   3.294  -0.211   9.324 -0.2856 -0.1318  0.0466
  301POPC   D2A 3740   3.178  -0.201   8.943  0.0730 -0.0858  0.3353
  301POPC   C3A 3741   3.317  -0.090   8.511 -0.1899 -0.2426  0.0076
  301POPC   C4A 3742   3.629  -0.153   8.304 -0.0718 -0.1413 -0.4442
  301POPC   C1B 3743   2.860  -0.506   9.332  0.0279 -0.2668  0.3072
  301POPC   C2B 3744   2.548  -0.351   8.961 -0.1924  0.0881  0.2941
  301POPC   C3B 3745   2.483  -0.331   8.488 -0.1424  0.2452 -0.0891
  301POPC   C4B 3746   2.306   0.016   8.473 -0.2595 -0.1332 -0.2569
  302POPC   NC3 3747   3.284   6.779  10.040 -0.3012  0.0183  0.2082
  302POPC   PO4 3748   3.025   6.486  10.251  0.1179 -0.1960 -0.0679
  302POPC   GL1 3749   2.892   6.173  10.034 -0.2317 -0.2076  0.1431
  302POPC   GL2 3750   3.104   6.334   9.769  0.0797 -0.0309 -0.3075
  302POPC   C1A 3751   2.943   5.855   9.666  0.0425  0.1758  0.0967
  302POPC   D2A 3752   2.911   5.639   9.271  0.3681 -0.0452  0.0926
  302POPC   C3A 3753   3.017   5.402   8.929 -0.0859  0.2508 -0.0177
  302POPC   C4A 3754   3.289   5.250   8.566 -0.0994 -0.3805  0.1266
  302POPC   C1B 3755   2.822   6.254   9.382 -0.0115 -0.1149 -0.0733
  302POPC   C2B 3756   2.723   6.153   8.929  0.0761  0.3063  0.2817
  302POPC   C3B 3757   2.733   6.090   8.463 -0.0151 -0.1159 -0.0089
  302POPC   C4B 3758   3.008   6.121   8.082  0.2942 -0.1878 -0.2414
  303POPC   NC3 3759   3.262   1.633  10.326 -0.3589 -0.3939 -0.0968
  303POPC   PO4 3760   3.258   2.045  10.216  0.2071  0.1957 -0.1106
  303POPC   GL1 3761   3.223   1.935   9.906 -0.0949  0.1528  0.2754
  303POPC   GL2 3762   3.555   2.073   9.818 -0.0635  0.0373  0.0668
  303POPC   C1A 3763   3.186   1.717   9.568 -0.3136  0.3291 -0.2530
  303POPC   D2A 3764   3.010   1.716   9.133  0.0808  0.2323 -0.1208
  303POPC   C3A 3765   2.860   1.766   8.778 -0.1496 -0.0862  0.1101
  303POPC   C4A 3766   3.118   1.778   8.438 -0.1857 -0.0706  0.3736
  303POPC   C1B 3767   3.428   2.051   9.368  0.1169  0.3091  0.3669
  303POPC   C2B 3768   3.192   2.258   9.031  0.0690 -0.1217  0.0327
  303POPC   C3B 3769   3.293   2.658   8.843  0.1276  0.1433 -0.0470
  303POPC   C4B 3770   3.528   3.007   8.773  0.2807 -0.0729 -0.2733
  304POPC   NC3 3771   3.557  16.497  10.242 -0.2058 -0.0493 -0.1368
  304POPC   PO4 3772   3.927  16.452  10.177 -0.0139  0.1284 -0.3360
  304POPC   GL1 3773   3.745  16.468   9.775 -0.0988  0.3451  0.2099
  304POPC   GL2 3774   3.837  16.705   9.687  0.0437 -0.1981 -0.1008
  304POPC   C1A 3775   3.516  16.539   9.422  0.2959  0.2527  0.4986
  304POPC   D2A 3776   3.477  16.717   9.102  0.0023 -0.0570  0.1295
  304POPC   C3A 3777   3.594  16.681   8.760  0.0694 -0.1146  0.0918
  304POPC   C4A 3778   3.857  16.578   8.549 -0.1344  0.0003  0.0749
  304POPC   C1B 3779   3.990  16.528   9.326  0.2170 -0.3144  0.0460
  304POPC   C2B 3780   4.252  16.519   8.867  0.3356  0.2018 -0.0697
  304POPC   C3B 3781   4.329  16.297   8.533 -0.0884 -0.2816 -0.2706
  304POPC   C4B 3782   3.983  15.963   8.439 -0.0382 -0.1801  0.4339
  305POPC   NC3 3783   1.130  18.401  10.144  0.1206 -0.2449  0.1809
  305POPC   PO4 3784   0.699  18.506  10.262 -0.0323  0.3565 -0.1905
  305POPC   GL1 3785   0.748  18.572   9.877  0.1744 -0.1758 -0.0927
  305POPC   GL2 3786   0.497  18.391   9.759  0.0392 -0.0537  0.0116
  305POPC   C1A 3787   1.092  18.624   9.553  0.1670  0.3960 -0.1430
  305POPC   D2A 3788   1.490  18.831   9.339  0.0005 -0.2362 -0.1970
  305POPC   C3A 3789   1.559  19.059   8.949  0.0419  0.1089 -0.0604
  305POPC   C4A 3790   1.987  19.134   8.742 -0.0964  0.0997 -0.1340
  305POPC   C1B 3791   0.638  18.484   9.363 -0.2252 -0.1333  0.3733
  305POPC   C2B 3792   0.740  18.614   8.930 -0.2744  0.3563  0.1691
  305POPC   C3B 3793   0.736  18.642   8.573  0.1251  0.0217 -0.0048
  305POPC   C4B 3794   0.991  18.768   8.322 -0.0207 -0.1327  0.0044
  306POPC   NC3 3795   7.077  16.412  10.144  0.0677 -0.0098 -0.2558
  306POPC   PO4 3796   6.909  16.763   9.978  0.1820  0.2509  0.1000
  306POPC   GL1 3797   6.904  17.023   9.618  0.0263 -0.2103  0.0692
  306POPC   GL2 3798   6.840  17.338   9.541  0.1646 -0.0846  0.1362
  306POPC   C1A 3799   7.043  16.879   9.219 -0.1068 -0.3098 -0.3733
  306POPC   D2A 3800   7.235  16.936   8.870  0.1232  0.1550 -0.3081
  306POPC   C3A 3801   7.034  16.903   8.489 -0.0414 -0.0516  0.0389
  306POPC   C4A 3802   6.839  16.906   8.003 -0.1670  0.1339 -0.1477
  306POPC   C1B 3803   7.215  17.341   9.211 -0.0198  0.0230 -0.0692
  306POPC   C2B 3804   7.152  17.380   8.770 -0.1039  0.0968 -0.1451
  306POPC   C3B 3805   7.256  17.375   8.319 -0.0542 -0.4136 -0.2888
  306POPC   C4B 3806   7.132  17.402   7.869  0.0226 -0.1526  0.0513
  307POPC   NC3 3807   5.186  12.794   9.699  0.2154  0.0685  0.2522
  307POPC   PO4 3808   5.571  12.653   9.844 -0.0612 -0.1263  0.1331
  307POPC   GL1 3809   5.649  12.459   9.465  0.0228 -0.0160 -0.1857
  307POPC   GL2 3810   5.542  12.573   9.212  0.0029  0.0568 -0.1941
  307POPC   C1A 3811   5.792  12.029   9.600 -0.2483 -0.1703  0.0058
  307POPC   D2A 3812   5.570  11.596   9.398  0.1401  0.1213 -0.1664
  307POPC   C3A 3813   5.144  11.572   9.127 -0.2621 -0.2555 -0.0986
  307POPC   C4A 3814   4.719  11.590   9.081  0.1079  0.2890  0.2107
  307POPC   C1B 3815   5.694  12.661   8.789 -0.0601  0.1751 -0.0589
  307POPC   C2B 3816   5.726  12.775   8.459 -0.2151 -0.3335  0.4179
  307POPC   C3B 3817   5.960  12.779   8.122 -0.0985 -0.2553 -0.1917
  307POPC   C4B 3818   6.183  12.844   7.795 -0.0409 -0.0244  0.1609
  308YOPC   NC3 3819   7.952  14.949   9.750 -0.0464  0.2614 -0.0623
  308YOPC   PO4 3820   8.324  14.841   9.540 -0.0081 -0.0470  0.0839
  308YOPC   GL1 3821   8.322  14.578   9.163  0.0156  0.0155  0.0444
  308YOPC   GL2 3822   8.061  14.366   9.134  0.2025  0.1081  0.3128
  308YOPC   C1A 3823   8.654  14.601   8.896 -0.0663 -0.2574  0.2623
  308YOPC   D2A 3824   8.715  14.625   8.419 -0.0038  0.0095 -0.1619
  308YOPC   C3A 3825   8.550  14.964   8.300 -0.0798 -0.0045 -0.0284
  308YOPC   C4A 3826   8.195  15.054   8.144 -0.1690 -0.0321 -0.0667
  308YOPC   C1B 3827   8.309  14.191   8.813 -0.0818  0.1812 -0.1449
  308YOPC   C2B 3828   8.373  14.175   8.370  0.1413 -0.2154 -0.0272
  308YOPC   D3B 3829   8.204  14.528   8.074  0.2656 -0.0715  0.1578
  308YOPC   C4B 3830   7.875  14.604   8.131 -0.2511  0.0498  0.0128
  309YOPC   NC3 3831  13.275  12.094  11.190  0.2054  0.2193  0.2429
  309YOPC   PO4 3832  13.233  11.927  10.791  0.3188  0.4279 -0.1258
  309YOPC   GL1 3833  13.359  12.053  10.375  0.0678  0.2423  0.1636
  309YOPC   GL2 3834  13.750  11.926  10.143 -0.2461 -0.1054 -0.0057
  309YOPC   C1A 3835  13.257  12.258   9.966 -0.1796 -0.1279  0.2603
  309YOPC   D2A 3836  13.607  12.146   9.672  0.3733  0.0107 -0.1917
  309YOPC   C3A 3837  13.721  12.152   9.309 -0.0407 -0.0440 -0.2368
  309YOPC   C4A 3838  14.055  11.915   9.050 -0.4616  0.0814  0.0819
  309YOPC   C1B 3839  14.049  11.910   9.798  0.1071 -0.2404  0.0187
  309YOPC   C2B 3840  14.493  11.988   9.483 -0.2121 -0.1065 -0.0695
  309YOPC   D3B 3841  14.575  11.734   9.017 -0.0770 -0.0684 -0.2562
  309YOPC   C4B 3842  14.523  11.285   8.871 -0.1794 -0.0694  0.0583
  310YOPC   NC3 3843   0.935   3.807  10.842 -0.0943  0.1925  0.0721
  310YOPC   PO4 3844   0.855   4.110  10.536  0.1126  0.0520 -0.2058
  310YOPC   GL1 3845   0.730   3.952  10.101 -0.0671  0.2830 -0.4830
  310YOPC   GL2 3846   0.662   3.588   9.989  0.0582  0.0745  0.0846
  310YOPC   C1A 3847   0.635   4.129   9.653  0.0552 -0.2524  0.3761
  310YOPC   D2A 3848   0.615   4.163   9.222 -0.0348 -0.1353  0.0713
  310YOPC   C3A 3849   0.572   4.156   8.795  0.2708 -0.2134 -0.0551
  310YOPC   C4A 3850   0.564   4.089   8.418 -0.1556 -0.2218 -0.3908
  310YOPC   C1B 3851   0.780   3.326   9.674 -0.0192 -0.1864 -0.0096
  310YOPC   C2B 3852   0.989   3.135   9.330  0.0590 -0.1411  0.0380
  310YOPC   D3B 3853   0.888   3.221   8.949 -0.0526  0.3303  0.0718
  310YOPC   C4B 3854   0.774   3.300   8.555 -0.1788  0.0829  0.1868
  311YOPC   NC3 3855   4.439  17.238  10.130  0.0779 -0.0728  0.2761
  311YOPC   PO4 3856   4.669  17.566  10.122  0.1102 -0.3483  0.1273
  311YOPC   GL1 3857   4.413  17.740   9.899 -0.3787  0.1546  0.3192
  311YOPC   GL2 3858   4.488  18.058   9.999 -0.2132 -0.2674 -0.1436
  311YOPC   C1A 3859   4.188  17.709   9.588  0.0880  0.0068 -0.3205
  311YOPC   D2A 3860   4.034  17.642   9.201 -0.0443 -0.0497  0.0979
  311YOPC   C3A 3861   3.818  17.606   8.866 -0.0275  0.1432  0.0058
  311YOPC   C4A 3862   3.844  17.643   8.364  0.0343  0.0759 -0.3378
  311YOPC   C1B 3863   4.602  18.065   9.598 -0.4716 -0.0315 -0.0279
  311YOPC   C2B 3864   4.561  17.933   9.167 -0.3995 -0.2291  0.3016
  311YOPC   D3B 3865   4.684  18.120   8.763 -0.1904  0.2917 -0.1669
  311YOPC   C4B 3866   4.486  18.315   8.425 -0.0699 -0.0564  0.0954
  312YOPC   NC3 3867  10.354  11.488  10.115 -0.2678 -0.2081  0.1973
  312YOPC   PO4 3868   9.877  11.490  10.049 -0.0895  0.1190 -0.1412
  312YOPC   GL1 3869  10.119  11.397   9.641 -0.4099 -0.1472  0.0965
  312YOPC   GL2 3870   9.939  11.200   9.471  0.4123 -0.0823 -0.0933
  312YOPC   C1A 3871  10.532  11.603   9.506  0.0544  0.4174 -0.0367
  312YOPC   D2A 3872  10.807  11.904   9.259 -0.0480 -0.2153  0.2919
  312YOPC   C3A 3873  10.744  11.852   8.826  0.0800 -0.2979 -0.0810
  312YOPC   C4A 3874  10.721  11.734   8.338 -0.0664 -0.0851 -0.1711
  312YOPC   C1B 3875   9.791  11.348   9.074  0.1249  0.0339 -0.1804
  312YOPC   C2B 3876   9.839  11.518   8.708 -0.1270 -0.0751  0.0458
  312YOPC   D3B 3877  10.354  11.484   8.586 -0.4946  0.2582 -0.0871
  312YOPC   C4B 3878  10.683  11.344   8.808 -0.4096 -0.0077 -0.2555
  313YOPC   NC3 3879  14.370   8.695   9.879 -0.2016 -0.0368 -0.0279
  313YOPC   PO4 3880  14.333   9.072  10.109 -0.0995  0.1754  0.2430
  313YOPC   GL1 3881  14.311   9.142   9.698  0.1544 -0.1855 -0.0062
  313YOPC   GL2 3882  14.084   9.379   9.718 -0.0426  0.1029 -0.0496
  313YOPC   C1A 3883  14.441   9.301   9.352 -0.3235  0.1173 -0.0388
  313YOPC   D2A 3884  14.263   9.560   8.942  0.2032  0.1207  0.2168
  313YOPC   C3A 3885  14.018   9.454   8.638  0.0388  0.1245  0.3220
  313YOPC   C4A 3886  13.956   9.004   8.555 -0.0312 -0.2476  0.0523
  313YOPC   C1B 3887  13.868   9.588   9.234  0.2020  0.1715  0.1122
  313YOPC   C2B 3888  13.983   9.993   9.050  0.2388 -0.4039  0.0474
  313YOPC   D3B 3889  13.991   9.952   8.589 -0.0901 -0.1436 -0.1443
  313YOPC   C4B 3890  14.336   9.861   8.389  0.1185  0.0467  0.1933
  314YOPC   NC3 3891  17.333   9.610  10.485  0.0052 -0.3153  0.0462
  314YOPC   PO4 3892  17.653   9.542  10.395 -0.0292  0.0644  0.0509
  314YOPC   GL1 3893  17.713   9.516  10.087 -0.0968  0.0170  0.1249
  314YOPC   GL2 3894  17.952   9.679  10.011 -0.2105 -0.1629  0.1498
  314YOPC   C1A 3895  17.631   9.414   9.681 -0.2502  0.1057 -0.1505
  314YOPC   D2A 3896  17.606   9.304   9.233  0.0499  0.1700 -0.2612
  314YOPC   C3A 3897  17.433   9.644   9.267  0.0737  0.3099 -0.1497
  314YOPC   C4A 3898  17.175   9.777   9.032  0.0368  0.0059  0.1246
  314YOPC   C1B 3899  17.801   9.877   9.616 -0.0408 -0.2102 -0.1865
  314YOPC   C2B 3900  17.884  10.158   9.302  0.0776 -0.3189 -0.0838
  314YOPC   D3B 3901  17.654   9.990   8.920  0.4553  0.2600  0.1274
  314YOPC   C4B 3902  17.459   9.635   8.648  0.2913 -0.0491 -0.1133
  315YOPC   NC3 3903  15.510   9.028  10.138 -0.1108 -0.2493 -0.0686
  315YOPC   PO4 3904  15.254   9.314  10.448  0.1706  0.3309 -0.0443
  315YOPC   GL1 3905  15.217   9.334   9.872 -0.0657 -0.3255 -0.1832
  315YOPC   GL2 3906  15.241   9.010   9.681  0.1138 -0.6772  0.3232
  315YOPC   C1A 3907  15.277   9.516   9.422 -0.2330 -0.0731  0.2778
  315YOPC   D2A 3908  15.357   9.766   9.047 -0.0294  0.2670  0.2584
  315YOPC   C3A 3909  15.145  10.166   8.972 -0.0763  0.1057 -0.0840
  315YOPC   C4A 3910  15.199  10.488   8.743 -0.0615 -0.0005 -0.0909
  315YOPC   C1B 3911  15.144   9.128   9.209 -0.0128 -0.0249 -0.2010
  315YOPC   C2B 3912  15.120   9.155   8.790  0.0667 -0.0441 -0.0229
  315YOPC   D3B 3913  15.205   9.524   8.510  0.0733  0.1400 -0.1966
  315YOPC   C4B 3914  15.026   9.821   8.272  0.1704  0.2762  0.1490
  316YOPC   NC3 3915   4.074   1.579  10.349 -0.2461 -0.1587  0.0119
  316YOPC   PO4 3916   4.400   1.206  10.358  0.3098  0.0323 -0.1692
  316YOPC   GL1 3917   4.324   1.235   9.962 -0.3499 -0.3213  0.0037
  316YOPC   GL2 3918   4.509   1.410   9.815 -0.5424 -0.2799  0.2505
  316YOPC   C1A 3919   4.034   1.304   9.738 -0.2185 -0.2199  0.0986
  316YOPC   D2A 3920   4.090   1.269   9.335  0.0101  0.0240 -0.0920
  316YOPC   C3A 3921   3.914   1.324   9.002  0.0855  0.0130  0.0584
  316YOPC   C4A 3922   3.815   1.598   8.726  0.5908 -0.3447  0.1041
  316YOPC   C1B 3923   4.564   1.429   9.463  0.0167  0.2368  0.3338
  316YOPC   C2B 3924   4.628   1.725   9.019  0.1518 -0.0481 -0.2069
  316YOPC   D3B 3925   4.415   1.440   8.761  0.0153  0.0482 -0.3231
  316YOPC   C4B 3926   4.196   1.593   8.325  0.2316 -0.2843  0.3662
  317YOPC   NC3 3927   7.986  12.124   9.944 -0.1327 -0.1938  0.0027
  317YOPC   PO4 3928   7.533  12.019   9.789  0.2370 -0.4115 -0.0757
  317YOPC   GL1 3929   7.391  12.023   9.397  0.0258 -0.1215  0.1022
  317YOPC   GL2 3930   7.178  11.779   9.244 -0.4716  0.4028  0.1425
  317YOPC   C1A 3931   7.457  12.104   8.974 -0.0524  0.2514  0.0377
  317YOPC   D2A 3932   7.290  12.383   8.654 -0.2286  0.1946  0.2987
  317YOPC   C3A 3933   7.620  12.565   8.498  0.1220  0.0787  0.0084
  317YOPC   C4A 3934   7.660  12.923   8.293  0.2045  0.1979 -0.0007
  317YOPC   C1B 3935   7.311  11.700   8.759  0.0475  0.1120 -0.0262
  317YOPC   C2B 3936   7.372  11.489   8.405 -0.1195  0.2312  0.0149
  317YOPC   D3B 3937   7.382  11.730   7.960  0.1410 -0.0498 -0.0509
  317YOPC   C4B 3938   7.224  11.661   7.560 -0.0953 -0.0814 -0.1637
  318YOPC   NC3 3939  11.076   3.172  10.785  0.1197  0.0397  0.3409
  318YOPC   PO4 3940  10.770   3.122  10.623 -0.0767 -0.1545  0.1238
  318YOPC   GL1 3941  10.664   3.248  10.237 -0.1672  0.1442  0.2046
  318YOPC   GL2 3942  10.510   2.945  10.109 -0.0647 -0.1995 -0.1817
  318YOPC   C1A 3943  10.930   3.405   9.915 -0.0208 -0.0094 -0.1459
  318YOPC   D2A 3944  11.222   3.467   9.766 -0.2818  0.1845 -0.0385
  318YOPC   C3A 3945  11.296   3.663   9.342  0.0564 -0.6293  0.0612
  318YOPC   C4A 3946  11.516   4.089   9.102 -0.0012 -0.0097  0.0965
  318YOPC   C1B 3947  10.641   3.067   9.678 -0.1043  0.0373  0.1905
  318YOPC   C2B 3948  10.738   2.797   9.300  0.0897  0.1292 -0.0982
  318YOPC   D3B 3949  10.474   2.731   9.000 -0.3011 -0.0302  0.1805
  318YOPC   C4B 3950  10.551   2.692   8.531  0.2263 -0.2746 -0.0522
  319YOPC   NC3 3951   5.445  18.329   9.872 -0.0045  0.3958  0.3220
  319YOPC   PO4 3952   5.051  18.451  10.039 -0.1711  0.0819  0.3189
  319YOPC   GL1 3953   5.051  18.414   9.559  0.6546 -0.0363 -0.0827
  319YOPC   GL2 3954   5.095  18.150   9.531  0.0647  0.1389  0.0749
  319YOPC   C1A 3955   5.096  18.625   9.146  0.0374  0.1711 -0.1145
  319YOPC   D2A 3956   4.952  18.567   8.768 -0.0004  0.0898 -0.0601
  319YOPC   C3A 3957   4.874  18.565   8.370 -0.0696 -0.0638 -0.2646
  319YOPC   C4A 3958   4.718  18.515   7.975  0.0410 -0.2563  0.0484
  319YOPC   C1B 3959   5.104  18.142   8.997  0.2216 -0.0656  0.0210
  319YOPC   C2B 3960   5.155  18.055   8.516 -0.3553  0.0942  0.0057
  319YOPC   D3B 3961   4.844  18.040   8.193 -0.0277 -0.0803 -0.0282
  319YOPC   C4B 3962   4.560  18.085   7.799  0.1414  0.3079 -0.2422
  320YOPC   NC3 3963   1.729   3.054  10.440  0.1520  0.0729  0.2001
  320YOPC   PO4 3964   1.533   3.410  10.237  0.0952  0.0601  0.0101
  320YOPC   GL1 3965   1.348   3.496   9.974 -0.1022 -0.2092  0.4381
  320YOPC   GL2 3966   1.142   3.763   9.898 -0.2258 -0.2333 -0.1625
  320YOPC   C1A 3967   1.318   3.436   9.483  0.0683  0.1821 -0.1342
  320YOPC   D2A 3968   1.190   3.546   9.069 -0.0419 -0.0920  0.1608
  320YOPC   C3A 3969   1.409   3.530   8.661 -0.1289 -0.0089  0.2084
  320YOPC   C4A 3970   1.649   3.568   8.335  0.3170 -0.1041  0.2337
  320YOPC   C1B 3971   0.992   3.758   9.410  0.2817 -0.2712  0.1538
  320YOPC   C2B 3972   1.056   4.136   8.996  0.2991  0.0978 -0.2136
  320YOPC   D3B 3973   1.417   4.088   8.735 -0.0153  0.0917  0.2379
  320YOPC   C4B 3974   1.618   4.094   8.305 -0.1665  0.0838 -0.0891
  321YOPC   NC3 3975   1.350   0.769  10.386  0.0119 -0.0212  0.2209
  321YOPC   PO4 3976   1.357   0.715   9.971 -0.0024 -0.3324 -0.1180
  321YOPC   GL1 3977   1.477   0.788   9.634  0.1840  0.0614  0.0332
  321YOPC   GL2 3978   1.794   0.790   9.549 -0.2027 -0.0363 -0.0396
  321YOPC   C1A 3979   1.342   0.919   9.174  0.0875  0.0339  0.1909
  321YOPC   D2A 3980   1.403   1.029   8.733  0.3723 -0.2352 -0.0623
  321YOPC   C3A 3981   1.099   1.165   8.509  0.1266 -0.3910 -0.3020
  321YOPC   C4A 3982   1.131   1.287   8.100  0.3491 -0.2175  0.0370
  321YOPC   C1B 3983   1.873   0.925   9.127 -0.0386 -0.1599  0.0593
  321YOPC   C2B 3984   1.880   1.135   8.687 -0.1824 -0.3251 -0.1031
  321YOPC   D3B 3985   1.558   1.287   8.330 -0.1247  0.1677  0.1823
  321YOPC   C4B 3986   1.506   1.302   7.763  0.0584 -0.0402 -0.2122
  322YOPC   NC3 3987  10.890  12.460  10.050 -0.0114 -0.0986  0.0996
  322YOPC   PO4 3988  11.001  12.865   9.867  0.1741  0.0097 -0.1701
  322YOPC   GL1 3989  11.125  13.078   9.471  0.1809  0.3589  0.1497
  322YOPC   GL2 3990  10.795  13.152   9.388  0.0212 -0.4062  0.2191
  322YOPC   C1A 3991  11.328  12.988   9.044 -0.1861 -0.1591  0.0749
  322YOPC   D2A 3992  11.546  12.964   8.717 -0.0103 -0.0776  0.0520
  322YOPC   C3A 3993  11.644  13.162   8.267 -0.1070  0.2221  0.0044
  322YOPC   C4A 3994  11.805  12.979   7.798  0.1354  0.2291 -0.1884
  322YOPC   C1B 3995  10.988  13.375   9.092 -0.1645  0.0866 -0.0447
  322YOPC   C2B 3996  10.951  13.278   8.703 -0.1730 -0.1647 -0.0336
  322YOPC   D3B 3997  11.052  12.872   8.648 -0.0012  0.1310 -0.0519
  322YOPC   C4B 3998  11.008  12.670   8.319 -0.0871  0.2343  0.0290
  323YOPC   NC3 3999  14.061   6.062  10.342 -0.0267 -0.2331 -0.0100
  323YOPC   PO4 4000  13.779   6.372  10.063 -0.1667 -0.0558 -0.4612
  323YOPC   GL1 4001  13.828   6.186   9.701  0.3558 -0.0322  0.0146
  323YOPC   GL2 4002  13.593   6.111   9.709 -0.0398  0.0433 -0.1198
  323YOPC   C1A 4003  13.848   5.924   9.288 -0.0071 -0.0161 -0.3930
  323YOPC   D2A 4004  13.422   5.691   9.214 -0.0420  0.0271 -0.0878
  323YOPC   C3A 4005  13.421   5.390   8.922 -0.0637  0.3451 -0.1463
  323YOPC   C4A 4006  12.950   5.328   8.696  0.3093 -0.2307 -0.0272
  323YOPC   C1B 4007  13.466   5.674   9.770  0.1489 -0.2956  0.0085
  323YOPC   C2B 4008  13.681   5.410   9.518  0.0284 -0.0232  0.0658
  323YOPC   D3B 4009  13.864   5.452   9.107 -0.1349 -0.1277 -0.2524
  323YOPC   C4B 4010  14.186   5.592   8.794 -0.1064  0.1055 -0.1207
  324YOPC   NC3 4011   5.640   3.632   9.979  0.0886  0.0936 -0.0807
  324YOPC   PO4 4012   6.076   3.757   9.980 -0.1189  0.0177  0.1047
  324YOPC   GL1 4013   5.874   3.817   9.552 -0.1411  0.0495 -0.1318
  324YOPC   GL2 4014   5.554   3.856   9.498  0.2017  0.1689 -0.1888
  324YOPC   C1A 4015   5.833   3.561   9.204 -0.1109  0.1638  0.1645
  324YOPC   D2A 4016   5.906   3.579   8.738 -0.2067  0.0073 -0.0558
  324YOPC   C3A 4017   5.731   3.942   8.566  0.1369 -0.2605 -0.0531
  324YOPC   C4A 4018   5.605   4.297   8.587 -0.3621 -0.2349  0.0296
  324YOPC   C1B 4019   5.277   3.675   9.181 -0.0505 -0.2134  0.3052
  324YOPC   C2B 4020   5.248   3.520   8.811 -0.0125  0.1757 -0.1104
  324YOPC   D3B 4021   5.226   3.751   8.404 -0.2554  0.1673 -0.0192
  324YOPC   C4B 4022   5.219   3.750   7.981  0.0686 -0.0515 -0.1681
  325YOPC   NC3 4023   6.801   0.977  10.080  0.3747 -0.2155 -0.1129
  325YOPC   PO4 4024   7.062   0.718   9.854 -0.0749  0.2525 -0.1720
  325YOPC   GL1 4025   7.307   0.738   9.491 -0.1250  0.4431 -0.0596
  325YOPC   GL2 4026   7.617   0.846   9.575 -0.4169 -0.0063  0.1467
  325YOPC   C1A 4027   7.346   0.494   9.156 -0.1075  0.0674 -0.0653
  325YOPC   D2A 4028   7.375   0.332   8.776  0.3231  0.1951 -0.1091
  325YOPC   C3A 4029   7.174   0.376   8.391  0.0760 -0.1872  0.1684
  325YOPC   C4A 4030   7.368   0.213   8.025  0.0160  0.0765 -0.2524
  325YOPC   C1B 4031   7.619   0.898   9.085 -0.5291  0.1902 -0.1207
  325YOPC   C2B 4032   7.417   0.812   8.713 -0.2884 -0.0065  0.0231
  325YOPC   D3B 4033   7.394   0.911   8.221 -0.1064  0.0058 -0.1800
  325YOPC   C4B 4034   7.144   1.069   7.952  0.0490 -0.4687  0.0942
  326YOPC   NC3 4035   4.995   5.738  10.697  0.0602  0.0581  0.0181
  326YOPC   PO4 4036   4.891   5.334  10.577  0.1013 -0.2642  0.8016
  326YOPC   GL1 4037   4.534   5.432  10.234  0.0590  0.1544  0.2088
  326YOPC   GL2 4038   4.751   5.541  10.019  0.3798 -0.2884  0.0280
  326YOPC   C1A 4039   4.155   5.233  10.024 -0.1526 -0.0947 -0.0491
  326YOPC   D2A 4040   3.794   5.001   9.824 -0.3882 -0.0471  0.0578
  326YOPC   C3A 4041   3.682   4.693   9.647  0.0816  0.2918 -0.0213
  326YOPC   C4A 4042   3.393   4.735   9.381 -0.1035 -0.0051 -0.0191
  326YOPC   C1B 4043   4.524   5.362   9.688  0.0924 -0.1721  0.0123
  326YOPC   C2B 4044   4.174   5.087   9.516  0.0748 -0.0459  0.0838
  326YOPC   D3B 4045   4.250   4.713   9.728  0.0091 -0.0176  0.0509
  326YOPC   C4B 4046   4.075   4.288   9.664 -0.4633 -0.0135  0.1292
  327YOPC   NC3 4047   8.503  13.521   9.492 -0.2454 -0.2965 -0.1597
  327YOPC   PO4 4048   8.255  13.789   9.679  0.0291  0.1168  0.1593
  327YOPC   GL1 4049   8.227  13.840   9.223  0.4059 -0.1815  0.0367
  327YOPC   GL2 4050   7.919  13.677   9.100  0.1356 -0.1326 -0.0974
  327YOPC   C1A 4051   8.325  13.705   8.795  0.1868  0.1186  0.1710
  327YOPC   D2A 4052   8.227  13.666   8.366 -0.0133  0.1155 -0.1140
  327YOPC   C3A 4053   8.642  13.872   8.068  0.0556  0.0456  0.3386
  327YOPC   C4A 4054   8.853  13.734   7.729  0.0787  0.0870 -0.1429
  327YOPC   C1B 4055   7.961  13.386   8.860 -0.0760  0.0616 -0.0457
  327YOPC   C2B 4056   7.663  13.334   8.592 -0.0062  0.1331 -0.1791
  327YOPC   D3B 4057   7.672  13.541   8.175  0.0204  0.0215  0.4370
  327YOPC   C4B 4058   7.917  13.752   7.827 -0.0294 -0.3168 -0.1077
  328YOPC   NC3 4059   3.001   7.484  10.112 -0.1703  0.1629  0.1205
  328YOPC   PO4 4060   3.056   7.213   9.828  0.3169  0.1032 -0.0436
  328YOPC   GL1 4061   3.178   7.145   9.451  0.1573 -0.1586 -0.2024
  328YOPC   GL2 4062   3.165   6.797   9.537  0.0186  0.0026 -0.1971
  328YOPC   C1A 4063   3.179   7.217   9.010  0.0560  0.1726 -0.0907
  328YOPC   D2A 4064   3.071   7.470   8.591 -0.0802 -0.0109 -0.0541
  328YOPC   C3A 4065   2.639   7.556   8.521  0.1781 -0.1387  0.1597
  328YOPC   C4A 4066   2.398   7.875   8.753  0.4488 -0.2232 -0.1601
  328YOPC   C1B 4067   2.933   6.826   9.131 -0.0511  0.0165  0.0269
  328YOPC   C2B 4068   2.723   7.098   8.751 -0.0172  0.0969 -0.0157
  328YOPC   D3B 4069   2.810   7.035   8.388  0.1795 -0.0238 -0.0642
  328YOPC   C4B 4070   2.749   7.323   8.043  0.0387 -0.2757 -0.1969
  329YOPC   NC3 4071  15.968  17.825  10.314 -0.0988 -0.3695  0.0125
  329YOPC   PO4 4072  15.741  17.505  10.002  0.0484 -0.0050  0.2278
  329YOPC   GL1 4073  15.454  17.514   9.791 -0.0142 -0.0603  0.3992
  329YOPC   GL2 4074  15.463  17.819   9.598  0.0484  0.2720 -0.1289
  329YOPC   C1A 4075  15.431  17.406   9.379 -0.1786  0.1166  0.0904
  329YOPC   D2A 4076  15.559  17.365   8.912 -0.1228 -0.2607 -0.0945
  329YOPC   C3A 4077  15.320  17.390   8.628 -0.1197 -0.1377 -0.1330
  329YOPC   C4A 4078  14.945  17.556   8.674 -0.1344  0.1455  0.3694
  329YOPC   C1B 4079  15.689  17.913   9.249 -0.2636  0.0871  0.1608
  329YOPC   C2B 4080  15.868  17.881   8.817 -0.0881 -0.2336 -0.4269
  329YOPC   D3B 4081  16.199  17.838   8.557  0.0114 -0.0058  0.1617
  329YOPC   C4B 4082  16.313  17.974   8.204  0.0441  0.1036 -0.0019
  330YOPC   NC3 4083  16.595  15.428  10.007  0.1361 -0.0058  0.0225
  330YOPC   PO4 4084  17.011  15.254  10.212  0.2622 -0.1565  0.0420
  330YOPC   GL1 4085  16.878  15.038   9.771 -0.0875  0.2350 -0.1216
  330YOPC   GL2 4086  16.556  15.189   9.556  0.1774  0.2665 -0.0472
  330YOPC   C1A 4087  16.821  14.731   9.537  0.0442  0.1492  0.0547
  330YOPC   D2A 4088  16.523  14.352   9.331 -0.2002  0.1664 -0.1793
  330YOPC   C3A 4089  16.626  13.950   9.206  0.1780 -0.0575  0.1712
  330YOPC   C4A 4090  16.896  13.707   8.978 -0.0877  0.1027 -0.1303
  330YOPC   C1B 4091  16.527  15.250   9.147 -0.1231 -0.3424 -0.1045
  330YOPC   C2B 4092  16.787  15.437   8.837  0.0945 -0.0462  0.4498
  330YOPC   D3B 4093  16.821  15.760   8.492  0.0239  0.2119 -0.2153
  330YOPC   C4B 4094  16.988  15.679   8.022  0.0199  0.0155  0.0612
  331YOPC   NC3 4095   9.011   1.064  10.672  0.1075 -0.0915 -0.0740
  331YOPC   PO4 4096   8.918   1.160  10.307 -0.4788 -0.0850  0.3215
  331YOPC   GL1 4097   8.652   1.344  10.005  0.0997  0.2067  0.2536
  331YOPC   GL2 4098   8.544   1.055   9.771  0.0066 -0.0623  0.0422
  331YOPC   C1A 4099   8.499   1.498   9.587  0.0705  0.1417 -0.1697
  331YOPC   D2A 4100   8.453   1.726   9.298 -0.0514  0.1782 -0.0696
  331YOPC   C3A 4101   8.447   1.550   8.785  0.4438 -0.2604  0.1056
  331YOPC   C4A 4102   8.502   1.360   8.463  0.0373  0.0274  0.0702
  331YOPC   C1B 4103   8.476   0.843   9.440  0.0404 -0.0617 -0.2911
  331YOPC   C2B 4104   8.325   0.828   9.070  0.0357  0.2024 -0.0097
  331YOPC   D3B 4105   8.578   0.877   8.718 -0.2931 -0.0600  0.0452
  331YOPC   C4B 4106   8.928   0.754   8.660 -0.0565 -0.3657 -0.0128
  332YOPC   NC3 4107  17.811   1.006  10.624 -0.1296 -0.1570 -0.3657
  332YOPC   PO4 4108  17.764   1.440  10.382  0.3043  0.3422 -0.3543
  332YOPC   GL1 4109  17.576   1.495  10.033  0.1603  0.0477 -0.3782
  332YOPC   GL2 4110  17.460   1.241   9.886 -0.2651  0.0436 -0.3294
  332YOPC   C1A 4111  17.237   1.551   9.594  0.1227 -0.0113 -0.0083
  332YOPC   D2A 4112  17.374   1.495   9.140  0.1049 -0.1316  0.0934
  332YOPC   C3A 4113  17.741   1.497   9.068  0.2966 -0.0549 -0.2148
  332YOPC   C4A 4114  18.140   1.528   8.959  0.0286 -0.2026  0.0697
  332YOPC   C1B 4115  17.691   1.415   9.566  0.0388  0.0216  0.0875
  332YOPC   C2B 4116  17.965   1.696   9.446  0.0180 -0.3801 -0.4533
  332YOPC   D3B 4117  18.473   1.719   9.307  0.1396  0.2947 -0.0585
  332YOPC   C4B 4118  18.900   1.817   9.143  0.0077 -0.1266  0.0441
  333YOPC   NC3 4119   4.589  18.458  10.868 -0.1630  0.0230 -0.1204
  333YOPC   PO4 4120   4.694  18.310  10.408  0.0557 -0.0129 -0.2230
  333YOPC   GL1 4121   4.549  18.591   9.998 -0.0685 -0.1038  0.0605
  333YOPC   GL2 4122   4.354  18.842  10.026 -0.3513  0.3518 -0.0403
  333YOPC   C1A 4123   4.527  18.510   9.585  0.1040  0.0201  0.0584
  333YOPC   D2A 4124   4.655  18.433   9.161  0.0142  0.2388  0.0717
  333YOPC   C3A 4125   4.394  18.600   8.825  0.0896 -0.2008 -0.0742
  333YOPC   C4A 4126   4.017  18.631   8.556 -0.0334  0.0196  0.0847
  333YOPC   C1B 4127   4.383  18.970   9.730  0.0909  0.1542 -0.1118
  333YOPC   C2B 4128   4.266  18.957   9.248  0.1817 -0.1083 -0.2026
  333YOPC   D3B 4129   3.896  18.889   9.138 -0.1759  0.0279  0.2388
  333YOPC   C4B 4130   3.680  18.501   8.917 -0.0062  0.0861 -0.3002
  334YOPC   NC3 4131  15.225   0.225   9.921  0.4533 -0.0625 -0.2792
  334YOPC   PO4 4132  15.243   0.661  10.020 -0.1680  0.0941  0.2778
  334YOPC   GL1 4133  15.407   0.810   9.650  0.2584 -0.1521  0.0127
  334YOPC   GL2 4134  15.218   1.039   9.699 -0.0359 -0.0025 -0.4574
  334YOPC   C1A 4135  15.540   1.072   9.310 -0.3148 -0.0497 -0.0766
  334YOPC   D2A 4136  15.513   1.192   8.848  0.0322 -0.1822  0.3502
  334YOPC   C3A 4137  15.384   0.853   8.591 -0.0522  0.3408  0.1138
  334YOPC   C4A 4138  15.118   0.761   8.223  0.1257 -0.0946  0.1538
  334YOPC   C1B 4139  15.098   1.148   9.281 -0.0378 -0.1548  0.1515
  334YOPC   C2B 4140  14.812   1.434   9.000 -0.2217 -0.5302  0.1075
  334YOPC   D3B 4141  14.449   1.396   8.748 -0.1002 -0.1046 -0.3002
  334YOPC   C4B 4142  14.429   1.151   8.398  0.0777  0.3209  0.1465
  335YOPC   NC3 4143   9.200  16.128  10.062  0.0346  0.1870 -0.0795
  335YOPC   PO4 4144   9.341  16.186   9.644  0.0060  0.2132  0.0326
  335YOPC   GL1 4145   9.147  16.049   9.246 -0.0664 -0.0529  0.1176
  335YOPC   GL2 4146   9.430  16.367   9.146 -0.4130 -0.5038 -0.1950
  335YOPC   C1A 4147   9.002  15.773   9.066 -0.0903 -0.0668  0.0078
  335YOPC   D2A 4148   8.889  15.684   8.669 -0.1564 -0.2337  0.4017
  335YOPC   C3A 4149   9.111  15.424   8.421  0.0774  0.1390 -0.1681
  335YOPC   C4A 4150   8.864  15.271   7.996 -0.2395 -0.2125 -0.2009
  335YOPC   C1B 4151   9.549  16.327   8.715 -0.0220  0.1588  0.3368
  335YOPC   C2B 4152   9.603  16.215   8.249  0.1312  0.0063  0.1279
  335YOPC   D3B 4153   9.935  16.150   8.022  0.0169  0.0796  0.2044
  335YOPC   C4B 4154  10.091  16.415   7.696 -0.2655  0.0876  0.2829
  336YOPC   NC3 4155  12.187  13.684  10.131 -0.2874 -0.1562 -0.3249
  336YOPC   PO4 4156  12.038  13.312  10.180  0.0296  0.0401 -0.1830
  336YOPC   GL1 4157  12.156  13.025   9.852 -0.0794  0.1000 -0.0425
  336YOPC   GL2 4158  12.021  12.598   9.845 -0.0530  0.0873  0.1525
  336YOPC   C1A 4159  12.351  13.101   9.395  0.2837 -0.0932  0.2698
  336YOPC   D2A 4160  12.324  13.133   8.973 -0.1687  0.1623  0.2869
  336YOPC   C3A 4161  12.451  13.549   8.761  0.0374  0.3376  0.1186
  336YOPC   C4A 4162  12.818  13.850   8.667 -0.1959 -0.2423  0.0093
  336YOPC   C1B 4163  11.845  12.157   9.784 -0.3522 -0.2153  0.3275
  336YOPC   C2B 4164  11.874  11.759   9.635 -0.0648  0.0342 -0.2600
  336YOPC   D3B 4165  11.973  11.770   9.306  0.3057 -0.0672 -0.3889
  336YOPC   C4B 4166  12.239  11.721   8.957 -0.1325  0.1167  0.1293
  337YOPC   NC3 4167  13.601  13.151  10.378  0.1729 -0.2084  0.2777
  337YOPC   PO4 4168  13.662  12.722  10.420  0.0244 -0.1353 -0.1974
  337YOPC   GL1 4169  13.447  12.643  10.140  0.1941 -0.0131  0.1210
  337YOPC   GL2 4170  13.320  12.900   9.997  0.2975  0.2386 -0.0122
  337YOPC   C1A 4171  13.590  12.698   9.705  0.3635  0.1395 -0.2335
  337YOPC   D2A 4172  13.586  12.655   9.316  0.0907 -0.1508  0.1373
  337YOPC   C3A 4173  13.377  12.887   9.098 -0.0116  0.3453 -0.2290
  337YOPC   C4A 4174  13.318  12.889   8.633 -0.2057 -0.1222  0.0107
  337YOPC   C1B 4175  13.359  13.074   9.554 -0.2456  0.0645  0.1728
  337YOPC   C2B 4176  13.423  13.340   9.245  0.0589 -0.2507 -0.0509
  337YOPC   D3B 4177  13.520  13.287   8.823 -0.1120  0.0321  0.0040
  337YOPC   C4B 4178  13.594  13.425   8.313  0.1150 -0.2172 -0.1964
  338YOPC   NC3 4179   4.823   3.401   9.946  0.3141 -0.3269 -0.0924
  338YOPC   PO4 4180   4.670   3.563  10.294 -0.0690 -0.0887  0.3632
  338YOPC   GL1 4181   4.289   3.502   9.970  0.1608  0.1603  0.1475
  338YOPC   GL2 4182   4.379   3.193   9.854 -0.2729  0.0544 -0.1145
  338YOPC   C1A 4183   3.956   3.372   9.683 -0.1201  0.2002  0.3372
  338YOPC   D2A 4184   3.941   3.356   9.308 -0.0854  0.2176 -0.2223
  338YOPC   C3A 4185   3.979   3.180   8.923 -0.0885 -0.1436 -0.1279
  338YOPC   C4A 4186   4.012   2.915   8.493 -0.1006 -0.4825  0.2412
  338YOPC   C1B 4187   4.445   3.247   9.434 -0.0219 -0.0533  0.1988
  338YOPC   C2B 4188   4.441   3.384   8.884  0.2302 -0.2457  0.0864
  338YOPC   D3B 4189   4.315   3.351   8.518  0.1627  0.1840 -0.0757
  338YOPC   C4B 4190   4.099   3.429   8.180  0.2634 -0.0724  0.3497
  339YOPC   NC3 4191  14.058  16.838  10.380 -0.1739  0.1364  0.1473
  339YOPC   PO4 4192  13.636  16.855  10.225 -0.0590  0.0196 -0.1871
  339YOPC   GL1 4193  13.503  16.844   9.839  0.0064  0.1928  0.2594
  339YOPC   GL2 4194  13.410  17.208   9.766 -0.0770  0.0516  0.0964
  339YOPC   C1A 4195  13.465  16.758   9.314  0.4534  0.1986 -0.1713
  339YOPC   D2A 4196  13.427  16.900   8.877 -0.1738  0.1023  0.2062
  339YOPC   C3A 4197  13.639  16.733   8.599 -0.1862 -0.0334 -0.1072
  339YOPC   C4A 4198  13.647  16.860   8.203 -0.1183  0.0543  0.0264
  339YOPC   C1B 4199  13.595  17.221   9.282  0.2578 -0.0035 -0.0559
  339YOPC   C2B 4200  13.800  17.483   9.067 -0.0998 -0.1605  0.1573
  339YOPC   D3B 4201  13.596  17.548   8.671 -0.0233 -0.5228 -0.0928
  339YOPC   C4B 4202  13.636  17.570   8.203  0.0129 -0.0083  0.0901
  340YOPC   NC3 4203  10.393   0.192  10.273 -0.0642  0.2375  0.1874
  340YOPC   PO4 4204  10.490   0.329   9.866 -0.1012 -0.0395  0.1855
  340YOPC   GL1 4205  10.333   0.673   9.573  0.0292 -0.1759 -0.4557
  340YOPC   GL2 4206  10.401   1.036   9.517  0.1277 -0.2160  0.1911
  340YOPC   C1A 4207  10.298   0.861   9.038  0.1242 -0.1042 -0.0485
  340YOPC   D2A 4208   9.924   0.834   8.774  0.0027 -0.2108  0.0950
  340YOPC   C3A 4209   9.918   0.748   8.328  0.1233  0.0640 -0.2856
  340YOPC   C4A 4210   9.498   0.860   8.109  0.3654 -0.0120  0.1299
  340YOPC   C1B 4211  10.778   0.774   9.389 -0.0084 -0.2016 -0.0559
  340YOPC   C2B 4212  11.020   0.529   9.173 -0.1815  0.1672 -0.2142
  340YOPC   D3B 4213  11.007   0.367   8.692 -0.1405  0.0054  0.2862
  340YOPC   C4B 4214  10.760   0.169   8.307 -0.0915  0.0026  0.0474
  341YOPC   NC3 4215   1.685  14.004  10.041  0.1944  0.0717  0.0572
  341YOPC   PO4 4216   1.853  14.366   9.819  0.0007 -0.0707 -0.1967
  341YOPC   GL1 4217   1.938  14.248   9.406  0.2023  0.1525  0.0304
  341YOPC   GL2 4218   2.111  14.428   9.216  0.1497  0.1919  0.1558
  341YOPC   C1A 4219   2.175  13.953   9.343 -0.1944  0.1602  0.0976
  341YOPC   D2A 4220   2.471  13.788   9.134 -0.1350  0.4736  0.4352
  341YOPC   C3A 4221   2.663  13.838   8.857 -0.0214 -0.0734  0.3174
  341YOPC   C4A 4222   2.626  13.826   8.498  0.0312  0.0745  0.2503
  341YOPC   C1B 4223   2.543  14.262   9.157  0.0577 -0.1252 -0.0969
  341YOPC   C2B 4224   2.785  14.306   8.767  0.3472  0.0103  0.0774
  341YOPC   D3B 4225   2.571  14.364   8.528  0.1646  0.1485 -0.0665
  341YOPC   C4B 4226   2.541  14.203   8.112 -0.0885  0.0894 -0.3962
  342YOPC   NC3 4227  15.436  15.582  10.027  0.2288 -0.1452 -0.0728
  342YOPC   PO4 4228  15.325  15.306   9.785  0.1781 -0.0998  0.0654
  342YOPC   GL1 4229  15.452  15.044   9.433  0.1404 -0.2226 -0.1235
  342YOPC   GL2 4230  15.314  14.871   9.378 -0.3962  0.0612  0.1569
  342YOPC   C1A 4231  15.601  14.995   8.957  0.0590 -0.0779  0.2602
  342YOPC   D2A 4232  15.482  14.930   8.479  0.1739  0.1270 -0.4369
  342YOPC   C3A 4233  15.594  14.876   8.065 -0.0479  0.0125  0.5068
  342YOPC   C4A 4234  15.725  14.624   7.829  0.0352  0.0293 -0.0827
  342YOPC   C1B 4235  15.669  14.648   9.271 -0.0564 -0.0448 -0.0827
  342YOPC   C2B 4236  16.021  14.561   8.994 -0.1221  0.0539 -0.0417
  342YOPC   D3B 4237  16.405  14.753   9.074 -0.1564  0.0418 -0.0697
  342YOPC   C4B 4238  16.408  15.003   8.725 -0.0388 -0.2266 -0.0405
  343YOPC   NC3 4239  18.310   3.519  10.180 -0.1383 -0.2639  0.2868
  343YOPC   PO4 4240  17.882   3.648  10.176  0.0842 -0.1105  0.2082
  343YOPC   GL1 4241  18.090   3.871   9.772 -0.0496  0.1364 -0.0848
  343YOPC   GL2 4242  17.786   4.058   9.603  0.0520  0.2329 -0.2823
  343YOPC   C1A 4243  18.269   3.645   9.494  0.2779 -0.0608  0.0717
  343YOPC   D2A 4244  18.325   3.714   9.121 -0.0525  0.0317 -0.1950
  343YOPC   C3A 4245  18.390   3.441   8.863  0.3531  0.0743 -0.0338
  343YOPC   C4A 4246  18.410   3.340   8.457 -0.3527 -0.0399  0.2704
  343YOPC   C1B 4247  17.958   4.010   9.218  0.2682  0.1656 -0.1051
  343YOPC   C2B 4248  18.101   4.044   8.824  0.0882 -0.1961  0.0314
  343YOPC   D3B 4249  18.113   3.863   8.577  0.2100  0.4709  0.0481
  343YOPC   C4B 4250  17.834   3.913   8.246  0.3283  0.3522 -0.0784
  344YOPC   NC3 4251  12.592  11.109  10.396  0.0159  0.0095 -0.0808
  344YOPC   PO4 4252  13.091  11.043  10.359 -0.0909 -0.1453 -0.2200
  344YOPC   GL1 4253  12.866  11.318  10.037 -0.1927 -0.2452 -0.2561
  344YOPC   GL2 4254  12.971  11.700  10.047  0.2609 -0.0803  0.0001
  344YOPC   C1A 4255  12.775  11.494   9.569  0.0458 -0.1862  0.1895
  344YOPC   D2A 4256  12.553  11.626   9.384 -0.0720 -0.0461 -0.0083
  344YOPC   C3A 4257  12.599  12.008   9.167  0.0656 -0.0463  0.0488
  344YOPC   C4A 4258  12.697  12.171   8.936  0.1527  0.0370 -0.2403
  344YOPC   C1B 4259  13.240  11.774   9.860  0.1096 -0.1826 -0.3639
  344YOPC   C2B 4260  13.670  11.633   9.697  0.0986 -0.1981  0.2471
  344YOPC   D3B 4261  13.722  11.688   9.391  0.0442 -0.1792 -0.0039
  344YOPC   C4B 4262  13.609  11.783   8.910 -0.1487 -0.0816  0.1681
  345YOPC   NC3 4263  14.142   8.632  10.356 -0.0195  0.0504  0.0279
  345YOPC   PO4 4264  13.964   8.368  10.045 -0.0753 -0.0538  0.1977
  345YOPC   GL1 4265  13.930   8.375   9.625  0.1746  0.2302  0.6452
  345YOPC   GL2 4266  13.757   8.055   9.590  0.2183  0.0991  0.1170
  345YOPC   C1A 4267  14.096   8.021   9.285 -0.0664  0.1128 -0.0567
  345YOPC   D2A 4268  13.911   8.008   8.870 -0.2648 -0.0330 -0.2402
  345YOPC   C3A 4269  13.602   7.786   8.733  0.0582  0.0139  0.1400
  345YOPC   C4A 4270  13.527   7.759   8.278  0.1388 -0.1119  0.3332
  345YOPC   C1B 4271  13.567   7.953   9.256  0.2743 -0.1162 -0.1071
  345YOPC   C2B 4272  13.415   8.221   8.903 -0.0554  0.0293  0.1368
  345YOPC   D3B 4273  13.332   8.232   8.535  0.1190  0.1775  0.1929
  345YOPC   C4B 4274  13.094   8.618   8.408  0.2412  0.0755  0.0773
  346YOPC   NC3 4275   4.943   6.709  10.140  0.2057  0.1346  0.0059
  346YOPC   PO4 4276   5.420   6.699  10.130  0.2577  0.1502  0.0961
  346YOPC   GL1 4277   5.295   6.966   9.754 -0.3351  0.2143 -0.0128
  346YOPC   GL2 4278   4.940   7.075   9.767 -0.0221  0.0128 -0.0029
  346YOPC   C1A 4279   5.387   6.855   9.353 -0.0690  0.3190  0.1410
  346YOPC   D2A 4280   5.389   6.915   8.973  0.0217  0.2369  0.0047
  346YOPC   C3A 4281   5.711   6.900   8.809  0.0858 -0.0367  0.1550
  346YOPC   C4A 4282   5.764   6.722   8.403  0.0036  0.1588  0.2726
  346YOPC   C1B 4283   4.909   6.833   9.281  0.1205 -0.3140 -0.1351
  346YOPC   C2B 4284   4.998   6.734   8.784  0.1666  0.1774 -0.2774
  346YOPC   D3B 4285   5.268   6.598   8.541 -0.4387  0.2860  0.2972
  346YOPC   C4B 4286   5.401   6.266   8.361  0.0409 -0.0020  0.2368
  347YOPC   NC3 4287   4.831   4.059  10.251  0.0173  0.3095  0.2266
  347YOPC   PO4 4288   5.007   4.245   9.944  0.2372 -0.2607 -0.2009
  347YOPC   GL1 4289   5.093   4.344   9.586 -0.2586  0.0045 -0.1679
  347YOPC   GL2 4290   5.049   4.010   9.460 -0.0789  0.2055  0.0267
  347YOPC   C1A 4291   5.097   4.618   9.241 -0.1408 -0.5494  0.1449
  347YOPC   D2A 4292   4.921   4.591   8.788  0.1898 -0.0140  0.0667
  347YOPC   C3A 4293   5.153   4.751   8.362 -0.0944  0.0525  0.0514
  347YOPC   C4A 4294   5.034   5.105   8.114  0.0977 -0.3969 -0.3579
  347YOPC   C1B 4295   4.875   4.110   9.161 -0.0848 -0.1638  0.0351
  347YOPC   C2B 4296   4.492   4.273   8.936  0.1992  0.2727  0.2500
  347YOPC   D3B 4297   4.347   4.460   8.600  0.1266 -0.1674 -0.0363
  347YOPC   C4B 4298   4.304   4.495   8.091 -0.2468 -0.1555 -0.0772
  348YOPC   NC3 4299   8.138   5.508  10.466 -0.1397 -0.3671  0.2055
  348YOPC   PO4 4300   8.542   5.685  10.431 -0.1206  0.0949  0.1199
  348YOPC   GL1 4301   8.654   5.729   9.901  0.0081 -0.1156 -0.4927
  348YOPC   GL2 4302   8.849   5.542   9.903 -0.2423  0.2678 -0.0777
  348YOPC   C1A 4303   8.399   5.827   9.502 -0.2975 -0.1396  0.2425
  348YOPC   D2A 4304   8.155   5.840   9.073 -0.1662 -0.1020 -0.3458
  348YOPC   C3A 4305   7.831   5.622   9.061 -0.0864  0.2210 -0.1387
  348YOPC   C4A 4306   7.562   5.480   8.772  0.1066  0.0066  0.0470
  348YOPC   C1B 4307   9.292   5.528   9.758 -0.2944  0.2816  0.1861
  348YOPC   C2B 4308   9.427   5.747   9.296  0.2431 -0.3795 -0.1153
  348YOPC   D3B 4309   9.382   6.151   9.256 -0.1917  0.0149 -0.1530
  348YOPC   C4B 4310   9.183   6.399   8.983  0.0698 -0.1332  0.1392
  349YOPC   NC3 4311   6.084   6.729  10.318  0.1397  0.1247 -0.1942
  349YOPC   PO4 4312   5.879   6.360  10.050 -0.0544  0.0350  0.0462
  349YOPC   GL1 4313   6.165   6.346   9.645  0.0503  0.3143  0.1429
  349YOPC   GL2 4314   6.535   6.329   9.726 -0.1181 -0.1100 -0.1840
  349YOPC   C1A 4315   6.185   6.714   9.270 -0.3122  0.0434 -0.0636
  349YOPC   D2A 4316   5.889   6.875   9.294 -0.2639  0.0643 -0.2902
  349YOPC   C3A 4317   5.710   7.263   9.435  0.2164  0.0289 -0.0978
  349YOPC   C4A 4318   5.251   7.353   9.474 -0.0162 -0.0600 -0.0183
  349YOPC   C1B 4319   6.692   6.650   9.355 -0.3089 -0.0974  0.1455
  349YOPC   C2B 4320   6.616   6.979   9.113  0.3401 -0.0851  0.0103
  349YOPC   D3B 4321   6.250   7.033   8.846  0.0028  0.1380  0.1543
  349YOPC   C4B 4322   6.259   6.998   8.328 -0.2211  0.0717 -0.1117
  350YOPC   NC3 4323   9.014  10.481  10.338 -0.0832  0.6851  0.2773
  350YOPC   PO4 4324   9.161  10.689  10.054 -0.1658  0.1141  0.1272
  350YOPC   GL1 4325   9.324  10.699   9.655  0.1620  0.3679 -0.0068
  350YOPC   GL2 4326   9.600  10.702   9.502  0.1055 -0.0685  0.0258
  350YOPC   C1A 4327   9.215  10.590   9.205 -0.2277  0.3694  0.2520
  350YOPC   D2A 4328   9.010  10.698   8.802  0.1522  0.0831 -0.0130
  350YOPC   C3A 4329   8.801  10.534   8.436  0.3138 -0.6763  0.0747
  350YOPC   C4A 4330   8.714  10.609   7.963 -0.2348  0.0127  0.1738
  350YOPC   C1B 4331   9.590  10.906   9.105  0.0597 -0.1152 -0.3386
  350YOPC   C2B 4332   9.492  10.945   8.801 -0.1510  0.1017 -0.0854
  350YOPC   D3B 4333   9.624  11.130   8.428  0.1651  0.3424  0.0387
  350YOPC   C4B 4334   9.523  11.146   7.993  0.0236 -0.0781  0.0328
  351YOPC   NC3 4335  17.255  11.092  11.261 -0.0787 -0.1037  0.0221
  351YOPC   PO4 4336  17.319  11.271  10.840 -0.0613 -0.4286 -0.0861
  351YOPC   GL1 4337  16.975  11.425  10.458 -0.0241  0.1929  0.2880
  351YOPC   GL2 4338  17.072  11.579  10.171  0.0167 -0.0858 -0.1332
  351YOPC   C1A 4339  16.611  11.258  10.356 -0.0360  0.1610  0.3210
  351YOPC   D2A 4340  16.230  11.418  10.437  0.1897 -0.0203 -0.1061
  351YOPC   C3A 4341  16.142  11.729  10.628 -0.0771  0.0652 -0.3149
  351YOPC   C4A 4342  15.760  11.910  10.645  0.4044  0.0806 -0.1065
  351YOPC   C1B 4343  16.609  11.580  10.011 -0.0228 -0.1299 -0.1869
  351YOPC   C2B 4344  16.282  11.615   9.750  0.4356 -0.0986  0.1082
  351YOPC   D3B 4345  16.306  11.795   9.327 -0.0684 -0.1281 -0.2071
  351YOPC   C4B 4346  16.074  11.887   8.938 -0.0934  0.4383  0.0734
  352YOPC   NC3 4347  16.034   7.932  10.888 -0.1874  0.4348  0.0284
  352YOPC   PO4 4348  15.905   8.127  10.449  0.1923 -0.2606  0.2526
  352YOPC   GL1 4349  16.056   8.199   9.962  0.0615  0.4712 -0.1371
  352YOPC   GL2 4350  15.751   8.280   9.821  0.1276 -0.1507 -0.1871
  352YOPC   C1A 4351  16.120   7.934   9.656 -0.0171  0.2503 -0.0389
  352YOPC   D2A 4352  15.897   7.891   9.228  0.1442  0.2128  0.2939
  352YOPC   C3A 4353  16.068   7.573   8.967  0.0571 -0.3151 -0.1703
  352YOPC   C4A 4354  16.152   7.179   8.849 -0.1994  0.3431  0.0305
  352YOPC   C1B 4355  15.948   8.363   9.386 -0.0290  0.2557 -0.2276
  352YOPC   C2B 4356  15.745   8.332   8.994  0.2932  0.1336 -0.1858
  352YOPC   D3B 4357  16.016   8.553   8.645  0.3573 -0.0860 -0.0778
  352YOPC   C4B 4358  16.431   8.836   8.607  0.2115  0.0743 -0.1755
  353YOPC   NC3 4359  12.010  15.728  10.137 -0.4016 -0.1238  0.0235
  353YOPC   PO4 4360  11.703  15.429  10.305 -0.1319  0.1511  0.2177
  353YOPC   GL1 4361  11.904  15.330   9.904  0.1335 -0.2638  0.1623
  353YOPC   GL2 4362  12.121  15.095   9.682  0.2870 -0.2728  0.0920
  353YOPC   C1A 4363  11.649  15.289   9.507  0.0539  0.1554 -0.0888
  353YOPC   D2A 4364  11.529  15.375   9.040 -0.2856  0.1279 -0.0218
  353YOPC   C3A 4365  11.362  14.957   8.850 -0.0573  0.1718 -0.0889
  353YOPC   C4A 4366  11.406  14.741   8.474  0.1749 -0.2512  0.1424
  353YOPC   C1B 4367  12.311  15.060   9.295  0.0055  0.1679  0.1607
  353YOPC   C2B 4368  12.560  15.295   9.000 -0.0931  0.1275 -0.2534
  353YOPC   D3B 4369  12.835  15.536   9.020 -0.0078  0.0175 -0.0425
  353YOPC   C4B 4370  12.923  15.867   9.340 -0.2790 -0.0897  0.0828
  354YOPC   NC3 4371   1.819  13.172  10.055  0.0507  0.0748  0.2592
  354YOPC   PO4 4372   1.693  13.549   9.830  0.0556  0.0737 -0.1028
  354YOPC   GL1 4373   1.685  13.833   9.526  0.0675  0.0721  0.1647
  354YOPC   GL2 4374   1.456  14.087   9.594  0.0007 -0.4266  0.2449
  354YOPC   C1A 4375   1.681  14.059   9.070 -0.4119 -0.1044 -0.3149
  354YOPC   D2A 4376   1.724  14.045   8.607 -0.2187  0.4900  0.0509
  354YOPC   C3A 4377   2.128  13.971   8.302  0.0496  0.1602  0.1606
  354YOPC   C4A 4378   2.347  13.716   8.139 -0.0428  0.1055 -0.1855
  354YOPC   C1B 4379   1.280  14.236   9.249  0.1073 -0.0049  0.0809
  354YOPC   C2B 4380   1.285  14.303   8.859  0.0197  0.1584  0.2186
  354YOPC   D3B 4381   0.907  14.334   8.693  0.1594  0.1213 -0.0717
  354YOPC   C4B 4382   0.473  14.171   8.768 -0.0035  0.0548 -0.0811
  355YOPC   NC3 4383   4.019   6.942   9.873  0.1977  0.0822 -0.0020
  355YOPC   PO4 4384   4.197   7.295   9.879  0.0100 -0.0194 -0.0884
  355YOPC   GL1 4385   4.145   7.444   9.487  0.0790  0.2303  0.4612
  355YOPC   GL2 4386   3.872   7.401   9.507  0.1712 -0.1389  0.4113
  355YOPC   C1A 4387   4.326   7.426   9.058 -0.3412 -0.1325  0.0280
  355YOPC   D2A 4388   4.530   7.500   8.587  0.1589 -0.0600  0.1412
  355YOPC   C3A 4389   4.934   7.498   8.402 -0.2397  0.3587 -0.1570
  355YOPC   C4A 4390   5.171   7.513   8.037  0.0689 -0.0944  0.3172
  355YOPC   C1B 4391   3.850   7.248   9.056 -0.2715  0.1735  0.4097
  355YOPC   C2B 4392   4.141   7.188   8.656 -0.0534  0.0665  0.1718
  355YOPC   D3B 4393   4.152   7.278   8.330 -0.1506 -0.0783 -0.1406
  355YOPC   C4B 4394   4.077   7.063   7.924  0.1058 -0.1014 -0.0751
  356YOPC   NC3 4395  11.219   6.446  10.659 -0.2802  0.2814 -0.1108
  356YOPC   PO4 4396  10.720   6.288  10.553  0.1600  0.1603 -0.2183
  356YOPC   GL1 4397  10.470   6.416  10.236  0.4142 -0.4362 -0.1606
  356YOPC   GL2 4398  10.531   6.096  10.110 -0.0432 -0.0820 -0.3910
  356YOPC   C1A 4399  10.169   6.148   9.748  0.0296  0.1617  0.3759
  356YOPC   D2A 4400   9.885   6.164   9.355  0.1111 -0.2784  0.2183
  356YOPC   C3A 4401   9.803   6.017   8.922  0.0003  0.0504  0.0224
  356YOPC   C4A 4402   9.506   6.030   8.622 -0.0436 -0.0719  0.1030
  356YOPC   C1B 4403  10.709   5.950   9.804 -0.0847 -0.3483  0.0642
  356YOPC   C2B 4404  10.904   6.035   9.396  0.0674  0.3637 -0.2049
  356YOPC   D3B 4405  10.972   6.270   9.151  0.0809 -0.3503  0.0819
  356YOPC   C4B 4406  11.324   6.374   9.020 -0.2647 -0.0112 -0.2037
  357YOPC   NC3 4407  14.439  18.469  10.238  0.2398  0.1383  0.0480
  357YOPC   PO4 4408  14.401  18.931  10.293  0.1340  0.0328 -0.0314
  357YOPC   GL1 4409  14.404  18.881   9.863 -0.2067  0.2115  0.1600
  357YOPC   GL2 4410  14.726  19.061   9.790  0.1479 -0.0579 -0.3015
  357YOPC   C1A 4411  14.490  18.841   9.462 -0.0018  0.0156  0.0988
  357YOPC   D2A 4412  14.644  18.998   9.067  0.0764  0.2743 -0.0644
  357YOPC   C3A 4413  14.559  18.695   8.681 -0.1708 -0.0225  0.1037
  357YOPC   C4A 4414  14.511  18.677   8.263  0.1423  0.0168 -0.4502
  357YOPC   C1B 4415  14.946  19.125   9.448 -0.1829 -0.0960 -0.0648
  357YOPC   C2B 4416  15.126  19.232   9.118 -0.1276  0.0175 -0.0726
  357YOPC   D3B 4417  14.983  19.052   8.647 -0.1298 -0.2533  0.0690
  357YOPC   C4B 4418  15.023  18.784   8.260 -0.1034 -0.2966  0.0194
  358YOPC   NC3 4419   1.720  11.099   9.909  0.2586 -0.1299 -0.0088
  358YOPC   PO4 4420   2.104  10.896   9.934 -0.1116 -0.1166  0.2949
  358YOPC   GL1 4421   2.144  11.162   9.589  0.0021  0.2522  0.2455
  358YOPC   GL2 4422   2.391  11.004   9.434  0.1151 -0.0740 -0.0053
  358YOPC   C1A 4423   2.037  11.393   9.260  0.2526 -0.1272 -0.0965
  358YOPC   D2A 4424   2.080  11.438   8.785 -0.0730 -0.0015  0.1541
  358YOPC   C3A 4425   1.892  11.632   8.483 -0.3044  0.0587 -0.2645
  358YOPC   C4A 4426   1.672  11.376   8.114  0.0776  0.1652 -0.0576
  358YOPC   C1B 4427   2.219  10.766   9.147  0.0372  0.2538  0.2250
  358YOPC   C2B 4428   2.111  10.570   8.866  0.1850  0.0796 -0.0725
  358YOPC   D3B 4429   1.995  10.710   8.507 -0.1168  0.0493  0.0280
  358YOPC   C4B 4430   2.223  10.767   8.096  0.1376 -0.0100  0.2966
  359YOPC   NC3 4431   3.650   2.546  10.155  0.0197 -0.2469 -0.1010
  359YOPC   PO4 4432   3.561   2.804  10.528  0.0170  0.1301  0.2390
  359YOPC   GL1 4433   3.486   3.046  10.098 -0.0198 -0.1382  0.0809
  359YOPC   GL2 4434   3.590   3.347   9.985 -0.0888 -0.2769  0.0799
  359YOPC   C1A 4435   3.468   2.981   9.664  0.0501 -0.0580  0.0473
  359YOPC   D2A 4436   3.165   3.024   9.446  0.1492  0.1082  0.2275
  359YOPC   C3A 4437   2.866   3.381   9.620 -0.0661  0.0084 -0.2223
  359YOPC   C4A 4438   2.513   3.574   9.729 -0.2201 -0.0633 -0.0415
  359YOPC   C1B 4439   3.408   3.483   9.579  0.1212  0.2101 -0.0722
  359YOPC   C2B 4440   3.449   3.336   9.102  0.1044  0.1515 -0.0256
  359YOPC   D3B 4441   3.343   3.470   8.738  0.0669  0.1519  0.1057
  359YOPC   C4B 4442   3.100   3.800   8.550  0.1992 -0.2089  0.0644
  360YOPC   NC3 4443   4.524   2.293  10.135 -0.3331  0.2537 -0.1807
  360YOPC   PO4 4444   4.060   2.330  10.100 -0.2239  0.0242  0.2971
  360YOPC   GL1 4445   4.063   2.268   9.651  0.1050 -0.1373  0.0294
  360YOPC   GL2 4446   4.396   2.267   9.659 -0.1054  0.0877  0.1056
  360YOPC   C1A 4447   3.931   2.450   9.302  0.0095  0.2014 -0.2106
  360YOPC   D2A 4448   3.720   2.231   8.977 -0.2716  0.0467 -0.0922
  360YOPC   C3A 4449   3.447   1.861   8.894 -0.1338  0.2111 -0.4734
  360YOPC   C4A 4450   3.262   1.463   8.822 -0.0898 -0.0620  0.1980
  360YOPC   C1B 4451   4.713   2.507   9.573  0.0442  0.1733 -0.0163
  360YOPC   C2B 4452   5.001   2.573   9.306  0.1452 -0.0589 -0.1283
  360YOPC   D3B 4453   4.965   2.598   8.808  0.2215 -0.1178 -0.2015
  360YOPC   C4B 4454   4.939   2.854   8.451 -0.1974 -0.2047  0.1746
  361YOPC   NC3 4455  11.613   9.254  10.516 -0.0939  0.0573  0.2476
  361YOPC   PO4 4456  11.267   9.353  10.168  0.2329  0.1060  0.1659
  361YOPC   GL1 4457  11.393   9.542   9.759 -0.0876  0.2103 -0.0703
  361YOPC   GL2 4458  11.231   9.816   9.777 -0.2202  0.1171  0.1906
  361YOPC   C1A 4459  11.340   9.424   9.376 -0.0437  0.1763 -0.4889
  361YOPC   D2A 4460  11.493   9.076   9.064  0.2985 -0.0107  0.1135
  361YOPC   C3A 4461  11.295   9.071   8.615 -0.0985  0.2823  0.0545
  361YOPC   C4A 4462  10.878   9.232   8.412 -0.1273 -0.0031  0.2998
  361YOPC   C1B 4463  11.557  10.072   9.796 -0.0713  0.0585 -0.0928
  361YOPC   C2B 4464  11.805  10.300   9.579 -0.1536 -0.0613  0.0365
  361YOPC   D3B 4465  11.644  10.341   9.166 -0.1279  0.4355 -0.2468
  361YOPC   C4B 4466  11.386  10.162   8.787 -0.0663  0.0257 -0.0250
  362YOPC   NC3 4467   9.415   1.347  10.088 -0.1525  0.0077 -0.1831
  362YOPC   PO4 4468   9.496   1.689   9.933  0.1085 -0.1718  0.0731
  362YOPC   GL1 4469   9.678   1.975   9.815 -0.1685 -0.0976  0.1812
  362YOPC   GL2 4470   9.598   2.227   9.916  0.0441  0.1022 -0.2431
  362YOPC   C1A 4471   9.798   1.927   9.387 -0.0285 -0.2067 -0.1143
  362YOPC   D2A 4472   9.862   1.953   8.877  0.1353 -0.0348  0.4137
  362YOPC   C3A 4473   9.749   2.256   8.493  0.0533  0.1208  0.1319
  362YOPC   C4A 4474  10.053   2.321   8.091 -0.2452 -0.0602  0.1390
  362YOPC   C1B 4475   9.607   2.414   9.517  0.2493 -0.0999  0.1529
  362YOPC   C2B 4476   9.659   2.458   9.024  0.3306  0.1141  0.2280
  362YOPC   D3B 4477   9.325   2.523   8.763 -0.0225 -0.1577 -0.2012
  362YOPC   C4B 4478   9.072   2.398   8.470  0.5289  0.2304 -0.0958
  363YOPC   NC3 4479  13.925  15.060   9.880  0.0119 -0.2983  0.0435
  363YOPC   PO4 4480  13.781  15.456   9.960  0.0777  0.0312  0.3802
  363YOPC   GL1 4481  14.074  15.621   9.719  0.1297 -0.3756  0.0734
  363YOPC   GL2 4482  14.416  15.431   9.669  0.0311  0.1473  0.2209
  363YOPC   C1A 4483  14.274  15.811   9.303  0.1307  0.0236  0.0983
  363YOPC   D2A 4484  14.416  15.848   8.847 -0.2618  0.0676 -0.1034
  363YOPC   C3A 4485  14.307  15.654   8.573 -0.1364 -0.2293 -0.0887
  363YOPC   C4A 4486  14.173  15.349   8.236  0.0557 -0.2044  0.1819
  363YOPC   C1B 4487  14.429  15.378   9.259 -0.2800  0.0937  0.2221
  363YOPC   C2B 4488  14.664  15.488   8.958 -0.1802 -0.0194  0.2320
  363YOPC   D3B 4489  14.720  15.397   8.538  0.1346  0.2646 -0.0579
  363YOPC   C4B 4490  14.687  15.645   8.159  0.0515  0.1054 -0.3301
  364YOPC   NC3 4491  18.176  17.808  10.346  0.1642 -0.0229 -0.1416
  364YOPC   PO4 4492  17.935  17.375  10.086 -0.0344 -0.1807 -0.1009
  364YOPC   GL1 4493  17.797  17.234   9.608 -0.1747  0.0269 -0.0422
  364YOPC   GL2 4494  17.421  17.303   9.442  0.0391 -0.0445 -0.1606
  364YOPC   C1A 4495  17.813  17.070   9.219 -0.3202 -0.0199 -0.0718
  364YOPC   D2A 4496  17.821  17.137   8.797 -0.1793 -0.2314  0.3747
  364YOPC   C3A 4497  17.718  17.154   8.344 -0.0763  0.0595 -0.3400
  364YOPC   C4A 4498  17.436  17.113   7.959 -0.2019  0.0413  0.1184
  364YOPC   C1B 4499  17.706  17.595   9.108 -0.0048 -0.0449 -0.1204
  364YOPC   C2B 4500  17.989  17.670   8.749  0.0048  0.1110 -0.2038
  364YOPC   D3B 4501  18.146  17.392   8.460  0.1065 -0.1020 -0.5636
  364YOPC   C4B 4502  18.237  17.408   7.992  0.1481  0.1963  0.1039
  365YOPC   NC3 4503  16.748   8.041  10.204  0.0902  0.2984 -0.0091
  365YOPC   PO4 4504  16.549   8.433  10.072 -0.0021 -0.1634 -0.0448
  365YOPC   GL1 4505  16.469   8.269   9.628 -0.2093  0.0952 -0.1524
  365YOPC   GL2 4506  16.651   7.937   9.644 -0.0726 -0.1064 -0.1784
  365YOPC   C1A 4507  16.620   8.320   9.148  0.1512  0.0851  0.2719
  365YOPC   D2A 4508  16.666   8.236   8.735  0.1601 -0.1284  0.1733
  365YOPC   C3A 4509  16.722   8.562   8.390 -0.0084  0.0235  0.0787
  365YOPC   C4A 4510  16.521   8.656   8.042  0.0914 -0.0086 -0.1610
  365YOPC   C1B 4511  16.433   7.841   9.213 -0.0154  0.0419 -0.0007
  365YOPC   C2B 4512  16.230   8.147   8.886 -0.1312  0.0163  0.1523
  365YOPC   D3B 4513  16.035   7.857   8.518  0.1998  0.2804 -0.1038
  365YOPC   C4B 4514  15.847   7.430   8.513  0.0310  0.1248 -0.4260
  366YOPC   NC3 4515   2.281  11.650  10.455  0.0876  0.3069 -0.0159
  366YOPC   PO4 4516   2.470  11.890  10.059 -0.1613 -0.6134 -0.1508
  366YOPC   GL1 4517   2.423  11.902   9.568  0.1011 -0.0367 -0.1875
  366YOPC   GL2 4518   2.635  12.021   9.400  0.3074 -0.0571 -0.1580
  366YOPC   C1A 4519   2.190  11.852   9.068 -0.5318  0.0965  0.1619
  366YOPC   D2A 4520   1.910  12.007   8.885  0.0820  0.2057 -0.4084
  366YOPC   C3A 4521   1.899  12.200   8.481 -0.3183  0.0270  0.0909
  366YOPC   C4A 4522   2.250  12.294   8.268 -0.0590 -0.0177 -0.2639
  366YOPC   C1B 4523   2.653  12.175   9.016 -0.1901 -0.0195  0.0724
  366YOPC   C2B 4524   2.589  12.102   8.777 -0.1132  0.1031  0.1111
  366YOPC   D3B 4525   2.316  11.879   8.568 -0.0417 -0.0825  0.1844
  366YOPC   C4B 4526   2.489  11.483   8.464 -0.0449  0.1450  0.2262
  367YOPC   NC3 4527   9.440   4.252  10.617 -0.1021  0.1793 -0.1790
  367YOPC   PO4 4528   9.817   4.357  10.431 -0.0603  0.1812 -0.0013
  367YOPC   GL1 4529   9.943   4.310  10.125 -0.0607  0.0337 -0.1338
  367YOPC   GL2 4530  10.000   4.039  10.116  0.1476  0.1821  0.0837
  367YOPC   C1A 4531  10.012   4.624   9.701 -0.0162  0.1806 -0.1303
  367YOPC   D2A 4532  10.010   4.727   9.240 -0.1543  0.3695 -0.0477
  367YOPC   C3A 4533   9.725   5.069   9.186  0.4922 -0.0508  0.1809
  367YOPC   C4A 4534   9.704   5.463   8.923 -0.0477  0.1772 -0.0311
  367YOPC   C1B 4535   9.927   4.068   9.714  0.1446 -0.3752 -0.2795
  367YOPC   C2B 4536   9.950   4.131   9.388 -0.0099  0.2136 -0.1164
  367YOPC   D3B 4537   9.828   4.265   9.014  0.3099  0.0625 -0.1131
  367YOPC   C4B 4538   9.818   4.529   8.779 -0.1301 -0.3621 -0.0774
  368YOPC   NC3 4539   7.420  12.830   9.815 -0.0104 -0.2998  0.2934
  368YOPC   PO4 4540   7.251  12.448   9.802  0.0271 -0.1901  0.1089
  368YOPC   GL1 4541   7.162  12.569   9.447  0.0914 -0.2269  0.1573
  368YOPC   GL2 4542   7.437  12.677   9.261  0.3067 -0.0485 -0.1315
  368YOPC   C1A 4543   7.025  12.412   9.061 -0.2966 -0.1708 -0.0070
  368YOPC   D2A 4544   6.945  12.043   8.800 -0.4543 -0.2558 -0.1143
  368YOPC   C3A 4545   6.656  11.998   8.350 -0.2891 -0.0812  0.1692
  368YOPC   C4A 4546   6.453  11.942   7.966 -0.2078  0.1695  0.0439
  368YOPC   C1B 4547   7.283  12.859   8.851 -0.3845  0.1384 -0.2993
  368YOPC   C2B 4548   7.166  12.989   8.428  0.1506  0.2186  0.0326
  368YOPC   D3B 4549   7.309  12.684   8.083  0.0699 -0.0387  0.1418
  368YOPC   C4B 4550   7.463  12.263   8.034 -0.0072  0.0872 -0.1227
  369YOPC   NC3 4551   6.496   0.147  10.425 -0.1005 -0.0848 -0.0362
  369YOPC   PO4 4552   6.685   0.479  10.087 -0.1133  0.0969  0.1258
  369YOPC   GL1 4553   6.692   0.498   9.576  0.0603 -0.0663  0.1591
  369YOPC   GL2 4554   6.913   0.276   9.468 -0.1170  0.3965 -0.0708
  369YOPC   C1A 4555   6.470   0.501   9.154  0.0355  0.3619 -0.0673
  369YOPC   D2A 4556   6.475   0.528   8.706 -0.1062  0.1154  0.2963
  369YOPC   C3A 4557   6.330   0.628   8.311  0.2315  0.0728  0.1745
  369YOPC   C4A 4558   6.049   0.657   7.912 -0.2093 -0.0166  0.0203
  369YOPC   C1B 4559   6.900   0.339   9.021  0.0638  0.0845  0.1316
  369YOPC   C2B 4560   6.777   0.156   8.616 -0.0279  0.1421 -0.0089
  369YOPC   D3B 4561   6.707   0.253   8.223  0.2108 -0.0794  0.2615
  369YOPC   C4B 4562   6.730   0.379   7.766 -0.1922  0.1700 -0.0938
  370YOPC   NC3 4563  18.322  14.222  10.644 -0.0162  0.2443  0.0085
  370YOPC   PO4 4564  17.916  14.297  10.484  0.1784  0.2868 -0.0171
  370YOPC   GL1 4565  17.797  14.224  10.003  0.1912  0.0885 -0.2121
  370YOPC   GL2 4566  17.506  14.298   9.855  0.1029  0.1039 -0.0842
  370YOPC   C1A 4567  17.826  13.860   9.691  0.3376 -0.1242  0.0992
  370YOPC   D2A 4568  17.953  13.555   9.445  0.0102 -0.1849  0.4575
  370YOPC   C3A 4569  17.794  13.490   8.991  0.0222 -0.2194 -0.1627
  370YOPC   C4A 4570  17.747  13.210   8.734  0.0342 -0.3639  0.1354
  370YOPC   C1B 4571  17.697  14.408   9.516  0.1564  0.0516 -0.0287
  370YOPC   C2B 4572  17.628  14.363   9.177  0.0225  0.1551  0.2894
  370YOPC   D3B 4573  17.902  14.236   8.770 -0.1598 -0.1847 -0.0287
  370YOPC   C4B 4574  17.924  13.777   8.563  0.2608  0.2083 -0.3426
  371YOPC   NC3 4575  13.695   7.210  10.203  0.0760 -0.2074  0.1183
  371YOPC   PO4 4576  13.497   6.853  10.046 -0.2199  0.3267  0.1313
  371YOPC   GL1 4577  13.550   6.633   9.697 -0.2140 -0.0356 -0.1509
  371YOPC   GL2 4578  13.837   6.802   9.559 -0.4834  0.0463 -0.0406
  371YOPC   C1A 4579  13.614   6.474   9.224 -0.2311 -0.0485 -0.2658
  371YOPC   D2A 4580  13.638   6.534   8.839  0.1587 -0.2433 -0.2922
  371YOPC   C3A 4581  13.740   6.196   8.515  0.1829  0.2823 -0.0520
  371YOPC   C4A 4582  14.104   6.144   8.128  0.2210 -0.0254  0.1111
  371YOPC   C1B 4583  13.889   6.960   9.157 -0.1874  0.3192  0.0573
  371YOPC   C2B 4584  13.789   7.017   8.694 -0.2008  0.0230 -0.3125
  371YOPC   D3B 4585  13.686   7.351   8.476  0.3392  0.5104 -0.4398
  371YOPC   C4B 4586  13.564   7.313   8.016 -0.6784  0.1216 -0.0459
  372YOPC   NC3 4587   8.917   7.998  11.540 -0.2112 -0.1905 -0.0689
  372YOPC   PO4 4588   8.745   8.398  11.213  0.2928  0.1817 -0.0596
  372YOPC   GL1 4589   8.514   8.210  10.803  0.0861 -0.1094  0.2995
  372YOPC   GL2 4590   8.138   8.253  10.658  0.0680 -0.2505  0.0883
  372YOPC   C1A 4591   8.570   8.166  10.348  0.1105  0.0987  0.0575
  372YOPC   D2A 4592   8.552   8.452   9.997 -0.0210 -0.1350  0.3295
  372YOPC   C3A 4593   8.213   8.632   9.806 -0.2212  0.3809 -0.1009
  372YOPC   C4A 4594   7.932   8.938   9.626 -0.1076  0.1165  0.3823
  372YOPC   C1B 4595   8.024   8.348  10.252 -0.0730 -0.2629  0.0052
  372YOPC   C2B 4596   8.179   8.151   9.847 -0.1806  0.1512  0.1785
  372YOPC   D3B 4597   8.167   8.338   9.412 -0.3098 -0.2317 -0.1305
  372YOPC   C4B 4598   8.102   8.628   8.998  0.0661  0.2175  0.1616
  373YOPC   NC3 4599   7.249  17.174   9.956 -0.1963 -0.1700  0.3408
  373YOPC   PO4 4600   7.467  17.410   9.795  0.0888  0.2777 -0.1915
  373YOPC   GL1 4601   7.696  17.633   9.484 -0.3441 -0.0410 -0.0054
  373YOPC   GL2 4602   8.081  17.606   9.516  0.0372 -0.1675 -0.1944
  373YOPC   C1A 4603   7.580  17.688   9.041  0.1029  0.1018  0.2574
  373YOPC   D2A 4604   7.561  17.790   8.624  0.0087  0.1036  0.1893
  373YOPC   C3A 4605   7.215  17.887   8.295 -0.3787  0.1188 -0.1262
  373YOPC   C4A 4606   6.997  17.925   7.934 -0.0781  0.1317  0.1390
  373YOPC   C1B 4607   8.015  17.914   9.139 -0.1367  0.2653  0.1207
  373YOPC   C2B 4608   7.650  18.186   8.867  0.1138 -0.0231  0.0018
  373YOPC   D3B 4609   7.781  18.570   8.712  0.0083  0.0563  0.0786
  373YOPC   C4B 4610   8.148  18.622   8.471 -0.2668 -0.0144 -0.0485
  374YOPC   NC3 4611   9.862   7.664  10.562  0.0074 -0.0883  0.0252
  374YOPC   PO4 4612  10.156   8.007  10.541  0.1611  0.0501 -0.0843
  374YOPC   GL1 4613  10.294   8.124  10.080  0.0323 -0.1583 -0.0403
  374YOPC   GL2 4614  10.406   8.535  10.007  0.3149  0.0225  0.1803
  374YOPC   C1A 4615  10.507   8.144   9.644  0.0398  0.1109 -0.0081
  374YOPC   D2A 4616  10.310   8.018   9.364  0.1267 -0.5093 -0.2353
  374YOPC   C3A 4617   9.985   8.325   9.147 -0.0747 -0.3402 -0.0030
  374YOPC   C4A 4618   9.638   8.545   8.966 -0.0239 -0.1003 -0.1149
  374YOPC   C1B 4619   9.974   8.372   9.777 -0.0460 -0.1388 -0.0292
  374YOPC   C2B 4620   9.618   8.387   9.417 -0.1751 -0.2009 -0.0358
  374YOPC   D3B 4621   9.341   8.401   9.752  0.0231 -0.0888 -0.0323
  374YOPC   C4B 4622   9.002   8.247   9.988 -0.3083 -0.0136  0.0560
  375YOPC   NC3 4623   9.335  12.959   9.827 -0.2539  0.0918  0.0313
  375YOPC   PO4 4624   9.511  12.500   9.901  0.2183 -0.1364 -0.3035
  375YOPC   GL1 4625   9.434  12.577   9.507 -0.3690 -0.3597 -0.1054
  375YOPC   GL2 4626   9.352  12.375   9.272 -0.1039 -0.0980  0.0083
  375YOPC   C1A 4627   9.665  12.870   9.255 -0.0318  0.4529 -0.0192
  375YOPC   D2A 4628   9.638  13.022   8.881 -0.1330 -0.0650 -0.0699
  375YOPC   C3A 4629   9.612  12.864   8.506  0.1806 -0.1350 -0.1159
  375YOPC   C4A 4630   9.323  12.766   8.193  0.0791  0.1494 -0.0781
  375YOPC   C1B 4631   9.503  12.479   8.865 -0.1340 -0.6437 -0.2086
  375YOPC   C2B 4632   9.615  12.395   8.369 -0.1282  0.0923 -0.0274
  375YOPC   D3B 4633   9.907  12.662   8.119  0.4160 -0.1849  0.1021
  375YOPC   C4B 4634   9.975  12.813   7.720  0.0323 -0.0318  0.0186
  376YOPC   NC3 4635  15.073  17.919   9.915  0.1281  0.0446  0.1206
  376YOPC   PO4 4636  15.158  18.290  10.146  0.0300  0.0317 -0.0007
  376YOPC   GL1 4637  15.250  18.270   9.652  0.1766 -0.0721  0.0847
  376YOPC   GL2 4638  15.396  18.278   9.316 -0.0337  0.1201  0.1155
  376YOPC   C1A 4639  14.973  18.590   9.340 -0.3198 -0.1803  0.1130
  376YOPC   D2A 4640  14.942  18.662   9.005  0.2039  0.3045  0.1098
  376YOPC   C3A 4641  15.222  18.517   8.708  0.1041 -0.3211  0.0916
  376YOPC   C4A 4642  15.367  18.357   8.342  0.1816 -0.4364  0.1400
  376YOPC   C1B 4643  15.378  18.018   8.820  0.0982  0.0451 -0.0127
  376YOPC   C2B 4644  15.375  17.857   8.417 -0.4558 -0.0307  0.4326
  376YOPC   D3B 4645  15.036  17.730   8.161  0.2586 -0.4652 -0.1641
  376YOPC   C4B 4646  15.003  18.035   7.761  0.1802  0.2859 -0.0725
  377YOPC   NC3 4647  16.145  14.531  10.356 -0.0418  0.1476 -0.1709
  377YOPC   PO4 4648  16.310  14.137  10.416 -0.3087  0.1541  0.2062
  377YOPC   GL1 4649  16.639  14.222  10.071  0.1327  0.5018 -0.0031
  377YOPC   GL2 4650  16.434  14.470   9.845 -0.1176 -0.1025 -0.4312
  377YOPC   C1A 4651  16.960  14.176   9.670  0.0694  0.1441  0.1337
  377YOPC   D2A 4652  17.066  14.190   9.184  0.1451  0.2090  0.2039
  377YOPC   C3A 4653  17.047  14.098   8.724 -0.0698 -0.0056 -0.0198
  377YOPC   C4A 4654  16.844  14.185   8.352  0.1146  0.1704  0.0462
  377YOPC   C1B 4655  16.365  14.014   9.672  0.2837 -0.1949  0.3791
  377YOPC   C2B 4656  16.296  13.652   9.436  0.2194  0.1692 -0.0669
  377YOPC   D3B 4657  16.474  13.479   9.134  0.2867  0.0597 -0.0186
  377YOPC   C4B 4658  16.646  13.154   8.972 -0.0276 -0.2486 -0.0783
  378YOPC   NC3 4659  15.198   1.107  10.192 -0.0729  0.2058  0.0074
  378YOPC   PO4 4660  14.858   1.401  10.465 -0.4011  0.0423  0.1612
  378YOPC   GL1 4661  14.783   1.623  10.051  0.0658  0.0745 -0.0110
  378YOPC   GL2 4662  14.986   1.474   9.802  0.1855 -0.0790 -0.0534
  378YOPC   C1A 4663  14.623   1.832   9.746 -0.0928 -0.0355  0.0692
  378YOPC   D2A 4664  14.526   1.751   9.301 -0.1325  0.1206 -0.0729
  378YOPC   C3A 4665  14.146   1.533   9.179 -0.0080 -0.4175  0.0389
  378YOPC   C4A 4666  13.991   1.231   9.123 -0.0511  0.1782 -0.0013
  378YOPC   C1B 4667  15.085   1.646   9.405  0.1408  0.2709 -0.0833
  378YOPC   C2B 4668  15.208   1.793   9.116  0.1148 -0.1157  0.0577
  378YOPC   D3B 4669  15.239   1.553   8.660  0.1925  0.1088 -0.1104
  378YOPC   C4B 4670  15.140   1.322   8.277  0.0790  0.2010  0.1627
  379YOPC   NC3 4671   0.679   6.686  10.393  0.0868 -0.0879 -0.1586
  379YOPC   PO4 4672   0.250   6.817  10.393 -0.3377 -0.4301 -0.0967
  379YOPC   GL1 4673   0.202   7.010   9.899 -0.2496 -0.0648 -0.0081
  379YOPC   GL2 4674  -0.038   6.733   9.782 -0.1986  0.2325  0.2079
  379YOPC   C1A 4675   0.284   7.170   9.449 -0.0484 -0.1840  0.1939
  379YOPC   D2A 4676   0.348   7.231   9.050  0.0343  0.1516 -0.1178
  379YOPC   C3A 4677   0.470   6.949   8.726  0.0866  0.4826 -0.2335
  379YOPC   C4A 4678   0.329   6.680   8.435 -0.1321  0.1915  0.1713
  379YOPC   C1B 4679   0.027   6.806   9.285  0.0034 -0.0523 -0.1175
  379YOPC   C2B 4680   0.015   6.872   8.876  0.1107  0.1479  0.2501
  379YOPC   D3B 4681  -0.212   6.577   8.778  0.0519  0.0361  0.4198
  379YOPC   C4B 4682  -0.466   6.179   8.708 -0.1842 -0.0634  0.0837
  380YOPC   NC3 4683   4.631   1.586  10.583 -0.1197  0.0235  0.2356
  380YOPC   PO4 4684   4.568   1.729  10.273  0.1661  0.0250  0.0948
  380YOPC   GL1 4685   4.723   1.856   9.908 -0.0966  0.0962  0.0148
  380YOPC   GL2 4686   5.003   1.794   9.894  0.3743  0.0432  0.0895
  380YOPC   C1A 4687   4.658   1.889   9.531  0.1969 -0.0165 -0.0871
  380YOPC   D2A 4688   4.594   2.201   9.213  0.1791 -0.3025 -0.1768
  380YOPC   C3A 4689   4.294   2.347   8.963  0.1005 -0.1797  0.1922
  380YOPC   C4A 4690   3.979   2.596   8.846 -0.3165  0.1057  0.1920
  380YOPC   C1B 4691   5.041   1.585   9.510  0.3692  0.2605  0.0101
  380YOPC   C2B 4692   5.066   1.580   9.078 -0.0029  0.1225 -0.1813
  380YOPC   D3B 4693   4.872   1.486   8.660 -0.1663 -0.1406  0.0977
  380YOPC   C4B 4694   4.627   1.332   8.312 -0.0783 -0.2095  0.0351
  381YOPC   NC3 4695   3.704  10.467   9.680 -0.0814 -0.0028 -0.0431
  381YOPC   PO4 4696   3.982  10.784   9.709  0.3091 -0.1086  0.1899
  381YOPC   GL1 4697   4.017  10.720   9.317  0.2091  0.1233  0.1587
  381YOPC   GL2 4698   3.797  10.502   9.199 -0.0758 -0.1936  0.3523
  381YOPC   C1A 4699   4.020  10.797   8.953 -0.0414 -0.1254  0.2259
  381YOPC   D2A 4700   3.896  10.747   8.550 -0.2921  0.0228 -0.1412
  381YOPC   C3A 4701   4.117  10.567   8.141  0.1445 -0.1452 -0.1502
  381YOPC   C4A 4702   4.167  10.205   7.961  0.1075  0.0616  0.2728
  381YOPC   C1B 4703   3.582  10.379   8.827  0.0316  0.1343  0.0786
  381YOPC   C2B 4704   3.373  10.359   8.340 -0.2986 -0.0794  0.0296
  381YOPC   D3B 4705   3.016  10.182   8.250  0.1823 -0.1870  0.0868
  381YOPC   C4B 4706   2.891   9.776   8.066 -0.0793 -0.2053 -0.3240
  382YOPC   NC3 4707  13.342   6.391  10.260  0.1391 -0.1724 -0.0018
  382YOPC   PO4 4708  13.000   6.101  10.084  0.0951  0.0516  0.1808
  382YOPC   GL1 4709  13.062   6.128   9.679 -0.1789 -0.1147 -0.2812
  382YOPC   GL2 4710  12.755   6.226   9.674 -0.1884 -0.0604  0.1757
  382YOPC   C1A 4711  13.210   6.150   9.277 -0.4174 -0.0255  0.0497
  382YOPC   D2A 4712  13.434   6.103   8.928 -0.2412 -0.1799  0.1859
  382YOPC   C3A 4713  13.725   5.768   8.760 -0.1112  0.1427  0.1132
  382YOPC   C4A 4714  13.940   5.761   8.346  0.0029  0.2000  0.0151
  382YOPC   C1B 4715  12.735   6.355   9.347 -0.0373  0.3529 -0.0073
  382YOPC   C2B 4716  12.521   6.582   8.965  0.4549  0.1298 -0.2872
  382YOPC   D3B 4717  12.358   6.449   8.591 -0.0277  0.1685 -0.3314
  382YOPC   C4B 4718  12.340   6.090   8.404 -0.2739 -0.1717  0.0260
  383YOPC   NC3 4719  13.649  11.146  10.370 -0.2100  0.1016  0.2896
  383YOPC   PO4 4720  13.854  10.686  10.549  0.1154  0.0389  0.4126
  383YOPC   GL1 4721  14.055  10.822  10.183  0.0374  0.4572  0.1756
  383YOPC   GL2 4722  14.031  11.046   9.922 -0.0295  0.1413 -0.2041
  383YOPC   C1A 4723  14.368  10.716   9.825  0.1982 -0.0624  0.0837
  383YOPC   D2A 4724  14.384  10.941   9.532  0.3647  0.2072  0.2443
  383YOPC   C3A 4725  14.300  10.863   9.082 -0.0787  0.0523  0.1786
  383YOPC   C4A 4726  14.335  10.843   8.712  0.2738  0.2633 -0.0474
  383YOPC   C1B 4727  13.689  11.130   9.566  0.1706 -0.1009  0.0916
  383YOPC   C2B 4728  13.581  11.258   9.133  0.0916  0.1382 -0.1616
  383YOPC   D3B 4729  13.778  10.933   8.997  0.1742 -0.0108  0.2836
  383YOPC   C4B 4730  13.702  10.805   8.672 -0.0850 -0.3450  0.2833
  384YOPC   NC3 4731   7.817   2.691  10.086  0.2215 -0.2514 -0.2650
  384YOPC   PO4 4732   7.441   2.476  10.152 -0.1253  0.1553  0.2408
  384YOPC   GL1 4733   7.468   2.633   9.659  0.0537  0.2973  0.4273
  384YOPC   GL2 4734   7.748   2.565   9.475 -0.1344 -0.2003  0.0346
  384YOPC   C1A 4735   7.320   2.467   9.262 -0.0487  0.0303  0.2852
  384YOPC   D2A 4736   7.405   2.379   8.804  0.2217  0.0603  0.3828
  384YOPC   C3A 4737   7.299   2.202   8.516 -0.1668 -0.3450 -0.3424
  384YOPC   C4A 4738   7.319   2.090   8.137 -0.1804 -0.0613 -0.4911
  384YOPC   C1B 4739   7.818   2.696   9.041 -0.2719 -0.0472 -0.1150
  384YOPC   C2B 4740   7.887   2.876   8.639 -0.1183 -0.0008 -0.0597
  384YOPC   D3B 4741   7.623   2.704   8.376 -0.0959  0.0770  0.0022
  384YOPC   C4B 4742   7.234   2.549   8.145 -0.2765  0.0978 -0.1347
  385YOPC   NC3 4743   3.349   9.938  10.061 -0.0201  0.0395 -0.1060
  385YOPC   PO4 4744   3.374  10.359  10.039 -0.1629 -0.1324 -0.1838
  385YOPC   GL1 4745   3.370  10.077   9.574  0.0517  0.1280  0.0007
  385YOPC   GL2 4746   3.345   9.762   9.591  0.0150 -0.0609 -0.0281
  385YOPC   C1A 4747   3.265  10.222   9.147  0.2208 -0.0463 -0.1229
  385YOPC   D2A 4748   3.144  10.617   8.896 -0.0759  0.2492  0.3681
  385YOPC   C3A 4749   2.965  10.678   8.483 -0.3317 -0.1466 -0.2339
  385YOPC   C4A 4750   2.723  10.716   8.184 -0.1841 -0.2462  0.1231
  385YOPC   C1B 4751   3.292   9.665   9.107 -0.3760 -0.0686 -0.0384
  385YOPC   C2B 4752   3.609   9.502   8.745 -0.0381 -0.0231  0.1710
  385YOPC   D3B 4753   3.905   9.779   8.513  0.0857  0.0048  0.1357
  385YOPC   C4B 4754   3.799  10.154   8.338 -0.1721 -0.1052  0.2382
  386YOPC   NC3 4755   5.817   1.669  10.327  0.2921  0.0960 -0.0127
  386YOPC   PO4 4756   5.819   2.100  10.180  0.4058  0.0358  0.3102
  386YOPC   GL1 4757   5.469   2.029   9.888  0.1834 -0.1839 -0.0802
  386YOPC   GL2 4758   5.542   1.821   9.660  0.0580 -0.0566  0.1640
  386YOPC   C1A 4759   5.195   2.114   9.520 -0.0854  0.0557  0.1936
  386YOPC   D2A 4760   5.076   2.155   9.164  0.1088  0.0302 -0.0385
  386YOPC   C3A 4761   4.836   2.114   8.787  0.1547 -0.0985 -0.0769
  386YOPC   C4A 4762   4.572   1.902   8.596  0.0499  0.2083 -0.2749
  386YOPC   C1B 4763   5.497   1.748   9.308  0.0056 -0.2964  0.0666
  386YOPC   C2B 4764   5.363   1.942   8.860 -0.2350  0.1496 -0.0437
  386YOPC   D3B 4765   5.233   1.729   8.421  0.4006 -0.0721 -0.3116
  386YOPC   C4B 4766   5.011   1.524   8.042 -0.1461 -0.2575 -0.1389
  387YOPC   NC3 4767  18.348   7.624  10.683  0.3651 -0.1960  0.2155
  387YOPC   PO4 4768  18.061   7.997  10.734  0.0743  0.2961  0.0310
  387YOPC   GL1 4769  18.245   7.979  10.311 -0.2391 -0.0029  0.2623
  387YOPC   GL2 4770  18.250   7.761  10.209  0.3260 -0.0335  0.2474
  387YOPC   C1A 4771  18.458   8.196   9.917  0.0161  0.0472 -0.2740
  387YOPC   D2A 4772  18.620   8.430   9.651  0.0488  0.0034 -0.3097
  387YOPC   C3A 4773  18.953   8.420   9.353 -0.0535 -0.0404  0.4321
  387YOPC   C4A 4774  18.965   8.320   8.930 -0.3771  0.0649  0.0407
  387YOPC   C1B 4775  18.455   7.703   9.736  0.1240 -0.2660  0.0657
  387YOPC   C2B 4776  18.314   7.728   9.361  0.1364  0.0047 -0.1411
  387YOPC   D3B 4777  17.908   8.021   9.280  0.1516 -0.0051 -0.4710
  387YOPC   C4B 4778  17.569   8.227   9.475 -0.1744 -0.1339 -0.0718
  388YOPC   NC3 4779  13.433   1.395  10.308 -0.0078  0.1082  0.0291
  388YOPC   PO4 4780  13.649   1.804  10.392  0.1011  0.1605  0.1807
  388YOPC   GL1 4781  13.612   1.792   9.961  0.0357 -0.1256  0.1352
  388YOPC   GL2 4782  13.441   1.956   9.806  0.0115  0.0916 -0.1976
  388YOPC   C1A 4783  13.644   1.602   9.458  0.0770 -0.0737 -0.0487
  388YOPC   D2A 4784  13.518   1.469   9.069 -0.3192  0.1243 -0.0372
  388YOPC   C3A 4785  13.481   1.496   8.613  0.0316 -0.1525 -0.1620
  388YOPC   C4A 4786  13.234   1.746   8.259 -0.2796  0.1207  0.1758
  388YOPC   C1B 4787  13.478   2.166   9.314  0.0642  0.0739 -0.2761
  388YOPC   C2B 4788  13.379   2.355   8.841  0.0687 -0.1088 -0.1557
  388YOPC   D3B 4789  13.529   2.653   8.607 -0.0044  0.2659 -0.2627
  388YOPC   C4B 4790  13.457   2.992   8.432  0.2419  0.0387 -0.1382
  389YOPC   NC3 4791   7.165   7.221  10.838  0.0124  0.2089  0.3473
  389YOPC   PO4 4792   7.016   7.351  10.440  0.0897 -0.0987 -0.0837
  389YOPC   GL1 4793   7.047   7.488  10.116  0.1967 -0.0511 -0.0444
  389YOPC   GL2 4794   6.896   7.618   9.999  0.0046  0.2878 -0.5155
  389YOPC   C1A 4795   7.140   7.365   9.657 -0.2731 -0.2851  0.2519
  389YOPC   D2A 4796   7.278   7.583   9.410  0.1339 -0.3053  0.1699
  389YOPC   C3A 4797   7.210   7.462   9.001  0.1277  0.1337  0.4444
  389YOPC   C4A 4798   7.536   7.190   8.891 -0.0865 -0.0518 -0.4039
  389YOPC   C1B 4799   6.677   7.955   9.775  0.1554 -0.3485 -0.2301
  389YOPC   C2B 4800   6.561   8.164   9.414 -0.2319  0.2478  0.2984
  389YOPC   D3B 4801   6.368   7.954   8.965 -0.1497 -0.1016  0.0306
  389YOPC   C4B 4802   6.207   7.951   8.473 -0.0121  0.0647 -0.0415
  390YOPC   NC3 4803  12.562   2.876  10.511  0.0909  0.0418  0.2293
  390YOPC   PO4 4804  12.189   2.510  10.387  0.0072 -0.1070  0.1214
  390YOPC   GL1 4805  12.140   2.470   9.886  0.2013 -0.1608  0.2221
  390YOPC   GL2 4806  12.404   2.641   9.760  0.0349  0.0803  0.1968
  390YOPC   C1A 4807  12.345   2.179   9.611 -0.0752  0.1724 -0.1506
  390YOPC   D2A 4808  12.851   2.168   9.328  0.2983  0.0672 -0.1548
  390YOPC   C3A 4809  12.847   2.227   8.852 -0.1119 -0.0614  0.1873
  390YOPC   C4A 4810  13.029   2.165   8.478  0.2472 -0.0156  0.1017
  390YOPC   C1B 4811  12.119   2.598   9.342 -0.2726 -0.1245  0.1364
  390YOPC   C2B 4812  12.066   2.637   8.860 -0.3322  0.1345 -0.0426
  390YOPC   D3B 4813  12.079   2.630   8.333  0.0123 -0.0743  0.0819
  390YOPC   C4B 4814  12.094   3.031   7.994  0.1830 -0.0799 -0.0802
  391YOPC   NC3 4815  13.778  17.773  10.358 -0.1353 -0.1048 -0.3697
  391YOPC   PO4 4816  13.930  17.378  10.411  0.0276 -0.2060 -0.1988
  391YOPC   GL1 4817  13.887  17.351   9.911  0.2087  0.5257  0.0377
  391YOPC   GL2 4818  14.099  17.134   9.912 -0.3961 -0.2352  0.1432
  391YOPC   C1A 4819  13.875  17.668   9.589  0.0541  0.0432  0.1038
  391YOPC   D2A 4820  13.762  17.904   9.375 -0.2934 -0.0860  0.3798
  391YOPC   C3A 4821  13.407  18.169   9.463  0.0608 -0.0717  0.0142
  391YOPC   C4A 4822  13.049  18.545   9.441 -0.0609  0.0989  0.1565
  391YOPC   C1B 4823  13.994  16.973   9.497 -0.0945  0.4229 -0.2934
  391YOPC   C2B 4824  13.949  16.865   9.100  0.2251  0.3174 -0.3415
  391YOPC   D3B 4825  14.135  16.647   8.804  0.4190  0.0435 -0.1166
  391YOPC   C4B 4826  14.200  16.831   8.369 -0.3869 -0.0875  0.2789
  392YOPC   NC3 4827   2.606   3.049  10.488 -0.0413 -0.2283  0.1160
  392YOPC   PO4 4828   2.213   2.994  10.575  0.1505 -0.0077  0.0588
  392YOPC   GL1 4829   2.162   2.798  10.196  0.0343 -0.1889 -0.1271
  392YOPC   GL2 4830   2.014   2.556  10.155 -0.0820 -0.3729  0.1066
  392YOPC   C1A 4831   2.320   2.747   9.755  0.0872  0.2253  0.0401
  392YOPC   D2A 4832   2.676   2.915   9.579 -0.1739 -0.0694 -0.1242
  392YOPC   C3A 4833   2.672   2.984   9.136 -0.0964 -0.0626 -0.3073
  392YOPC   C4A 4834   3.005   3.081   8.928  0.0257 -0.2014 -0.0619
  392YOPC   C1B 4835   1.867   2.474   9.830 -0.1327  0.1792  0.4085
  392YOPC   C2B 4836   1.689   2.300   9.479  0.2157 -0.0870 -0.2039
  392YOPC   D3B 4837   1.854   2.207   9.017 -0.0431 -0.3629 -0.2833
  392YOPC   C4B 4838   1.915   1.909   8.734  0.2560  0.2395 -0.0146
  393YOPC   NC3 4839  14.795  14.887  10.098 -0.1348  0.2445  0.2143
  393YOPC   PO4 4840  14.898  14.563  10.065 -0.2622 -0.3934 -0.1292
  393YOPC   GL1 4841  14.924  14.504   9.709  0.1423  0.0444 -0.1804
  393YOPC   GL2 4842  14.711  14.275   9.522 -0.0709 -0.3493 -0.0702
  393YOPC   C1A 4843  15.087  14.414   9.260  0.1678 -0.0890  0.2223
  393YOPC   D2A 4844  15.279  14.633   8.962 -0.0738 -0.1569  0.0376
  393YOPC   C3A 4845  15.607  14.488   8.613  0.3659 -0.0837  0.3230
  393YOPC   C4A 4846  15.660  14.363   8.195  0.0631  0.1796 -0.2159
  393YOPC   C1B 4847  14.627  13.954   9.244 -0.1139  0.2008  0.1823
  393YOPC   C2B 4848  14.861  13.769   8.935  0.0593  0.0837 -0.1651
  393YOPC   D3B 4849  14.662  13.879   8.619 -0.2859 -0.0585 -0.0487
  393YOPC   C4B 4850  14.340  13.678   8.404  0.0196 -0.0700 -0.2270
  394YOPC   NC3 4851   3.576   4.685  10.772 -0.1571 -0.3363  0.2012
  394YOPC   PO4 4852   3.627   4.795  10.339 -0.1500 -0.1040 -0.2678
  394YOPC   GL1 4853   3.316   4.724  10.072 -0.2562  0.0558  0.1029
  394YOPC   GL2 4854   3.253   5.015   9.833  0.0801 -0.0155  0.1266
  394YOPC   C1A 4855   3.063   4.522   9.790 -0.0951 -0.0283 -0.1256
  394YOPC   D2A 4856   2.930   4.358   9.369 -0.1693 -0.1420 -0.4108
  394YOPC   C3A 4857   2.799   4.360   8.938  0.0755 -0.1942  0.0861
  394YOPC   C4A 4858   2.459   4.640   8.825  0.0562  0.2300 -0.3081
  394YOPC   C1B 4859   3.167   5.161   9.397  0.0386  0.0826  0.2639
  394YOPC   C2B 4860   3.427   5.172   9.053 -0.2055  0.2643 -0.2170
  394YOPC   D3B 4861   3.774   5.295   8.837 -0.3992 -0.1066  0.3028
  394YOPC   C4B 4862   4.077   5.304   8.448 -0.1348  0.0599  0.2415
  395YOPC   NC3 4863  12.997   9.080  10.576  0.0857  0.0083 -0.0791
  395YOPC   PO4 4864  12.559   9.211  10.467 -0.0714 -0.1052 -0.2255
  395YOPC   GL1 4865  12.435   9.047   9.956 -0.1508  0.0406 -0.3864
  395YOPC   GL2 4866  12.392   9.298   9.803  0.2345 -0.3756 -0.2501
  395YOPC   C1A 4867  12.363   8.745   9.650 -0.0790  0.0756  0.0172
  395YOPC   D2A 4868  12.074   8.579   9.486 -0.0984  0.5435 -0.1092
  395YOPC   C3A 4869  11.891   8.744   9.072  0.0532 -0.0393 -0.0368
  395YOPC   C4A 4870  11.592   8.656   8.681 -0.0754 -0.1616 -0.1199
  395YOPC   C1B 4871  12.515   9.131   9.395 -0.2842 -0.2610 -0.0369
  395YOPC   C2B 4872  12.344   8.795   9.163  0.0558 -0.1026 -0.0853
  395YOPC   D3B 4873  12.247   8.940   8.734 -0.1907  0.1460  0.0100
  395YOPC   C4B 4874  12.153   9.306   8.521 -0.0172 -0.1583 -0.0522
  396YOPC   NC3 4875  17.369   1.683  10.589  0.0005  0.3805  0.1491
  396YOPC   PO4 4876  17.383   2.020  10.266 -0.4272 -0.0635 -0.0381
  396YOPC   GL1 4877  17.154   2.092   9.902 -0.4150  0.0465  0.0167
  396YOPC   GL2 4878  17.075   2.364   9.898 -0.0151 -0.3099  0.0043
  396YOPC   C1A 4879  17.124   1.995   9.427  0.1293 -0.1707  0.3946
  396YOPC   D2A 4880  16.980   1.959   8.924 -0.0222  0.0164  0.0756
  396YOPC   C3A 4881  16.828   1.754   8.595  0.1664 -0.0832 -0.1256
  396YOPC   C4A 4882  17.173   1.857   8.293  0.0494  0.1542 -0.0266
  396YOPC   C1B 4883  16.904   2.414   9.427  0.1127  0.3250  0.1462
  396YOPC   C2B 4884  16.881   2.478   8.950  0.2061  0.0042 -0.0577
  396YOPC   D3B 4885  17.075   2.324   8.599 -0.0525 -0.2101  0.3620
  396YOPC   C4B 4886  17.116   2.367   8.134 -0.1703  0.1616  0.1838
  397YOPC   NC3 4887  13.386   3.121  10.524 -0.2479 -0.2492  0.1465
  397YOPC   PO4 4888  13.853   2.890  10.648 -0.2349 -0.0792 -0.1107
  397YOPC   GL1 4889  13.794   3.066  10.255  0.0897 -0.2478 -0.0139
  397YOPC   GL2 4890  13.839   3.268  10.340  0.0245 -0.0566 -0.3185
  397YOPC   C1A 4891  13.668   3.177   9.738  0.4468 -0.2304  0.1086
  397YOPC   D2A 4892  13.281   3.230   9.542 -0.0696  0.1020 -0.3057
  397YOPC   C3A 4893  13.128   3.377   9.860  0.2791 -0.0762  0.2891
  397YOPC   C4A 4894  12.796   3.660   9.855 -0.2092 -0.2684 -0.1754
  397YOPC   C1B 4895  13.902   3.548   9.919 -0.0493  0.3312 -0.3538
  397YOPC   C2B 4896  14.059   3.877   9.635  0.1053  0.0572  0.2658
  397YOPC   D3B 4897  13.994   3.919   9.222 -0.0278  0.3516 -0.0028
  397YOPC   C4B 4898  13.801   4.066   8.893  0.1189  0.0379  0.0450
  398YOPC   NC3 4899  15.850  13.792  10.313  0.2189  0.0232  0.1153
  398YOPC   PO4 4900  15.350  13.730  10.164 -0.2944  0.2374  0.1474
  398YOPC   GL1 4901  15.516  13.889   9.848  0.1586  0.0644 -0.2059
  398YOPC   GL2 4902  15.866  13.727   9.834 -0.0348 -0.2564  0.0935
  398YOPC   C1A 4903  15.667  13.944   9.473  0.3735 -0.0401  0.0430
  398YOPC   D2A 4904  15.657  14.145   9.089 -0.3134 -0.3307  0.3096
  398YOPC   C3A 4905  15.239  14.145   8.878  0.1188  0.3401 -0.1457
  398YOPC   C4A 4906  15.170  14.018   8.443  0.0088 -0.0749  0.0730
  398YOPC   C1B 4907  15.738  13.455   9.510  0.1750  0.2644  0.4135
  398YOPC   C2B 4908  15.981  13.238   9.203 -0.2664  0.2212  0.2311
  398YOPC   D3B 4909  15.958  13.585   8.920  0.1075 -0.0639 -0.0433
  398YOPC   C4B 4910  16.360  13.773   8.739  0.0249 -0.2319 -0.1273
  399YOPC   NC3 4911  16.334   1.574  10.459 -0.3515 -0.1264  0.1159
  399YOPC   PO4 4912  15.933   1.751  10.259 -0.1675  0.1023 -0.0455
  399YOPC   GL1 4913  15.951   1.836   9.905 -0.3031  0.0898  0.0684
  399YOPC   GL2 4914  16.187   1.670   9.805  0.1844 -0.1442  0.2982
  399YOPC   C1A 4915  15.908   1.958   9.420  0.1474 -0.2592  0.2597
  399YOPC   D2A 4916  15.882   2.174   9.080 -0.0217 -0.0001 -0.2024
  399YOPC   C3A 4917  15.580   2.064   8.934 -0.0729 -0.3925  0.1715
  399YOPC   C4A 4918  15.524   2.392   8.631  0.0106 -0.4844  0.0019
  399YOPC   C1B 4919  16.317   1.679   9.282  0.0580 -0.1485 -0.0249
  399YOPC   C2B 4920  16.452   1.570   8.861  0.3367  0.2817  0.2199
  399YOPC   D3B 4921  16.492   1.274   8.637  0.1175  0.4274  0.0375
  399YOPC   C4B 4922  16.852   1.037   8.561 -0.0244 -0.1926 -0.1895
  400YOPC   NC3 4923  13.873  14.016  10.561 -0.0985 -0.1277 -0.1054
  400YOPC   PO4 4924  13.567  14.080  10.202  0.0498 -0.0457 -0.1658
  400YOPC   GL1 4925  13.555  14.357   9.858 -0.1816  0.1202  0.3075
  400YOPC   GL2 4926  13.867  14.575   9.766  0.0107  0.0053  0.2583
  400YOPC   C1A 4927  13.493  14.205   9.433 -0.1949  0.0309 -0.0624
  400YOPC   D2A 4928  13.379  13.843   9.164  0.2522 -0.0813 -0.0079
  400YOPC   C3A 4929  13.292  13.762   8.773  0.2704 -0.0568  0.1955
  400YOPC   C4A 4930  13.231  13.798   8.342  0.1910  0.1097  0.2303
  400YOPC   C1B 4931  13.881  14.578   9.257  0.0967  0.2955 -0.0964
  400YOPC   C2B 4932  13.887  14.592   8.835  0.2038 -0.1572  0.1081
  400YOPC   D3B 4933  14.215  14.635   8.679  0.0102  0.1514 -0.2342
  400YOPC   C4B 4934  14.383  14.465   8.402  0.2729 -0.0502  0.2031
  401YOPC   NC3 4935   0.389  18.054  10.109  0.0330 -0.0661  0.1272
  401YOPC   PO4 4936  -0.007  18.017  10.055 -0.1641  0.3128  0.0138
  401YOPC   GL1 4937   0.064  17.923   9.561  0.0889 -0.0790  0.0095
  401YOPC   GL2 4938   0.411  17.964   9.541 -0.2451 -0.5338 -0.1722
  401YOPC   C1A 4939  -0.161  18.053   9.140  0.1507  0.1403  0.1071
  401YOPC   D2A 4940  -0.159  18.253   8.764  0.2695  0.3355  0.1291
  401YOPC   C3A 4941  -0.532  18.530   8.603 -0.2457  0.2030 -0.1782
  401YOPC   C4A 4942  -0.725  18.719   8.395  0.2010 -0.0329 -0.2898
  401YOPC   C1B 4943   0.338  18.110   9.171  0.3182 -0.1057 -0.2915
  401YOPC   C2B 4944   0.490  18.157   8.875 -0.1699  0.0304  0.1696
  401YOPC   D3B 4945   0.307  18.277   8.565  0.0412 -0.3420  0.0599
  401YOPC   C4B 4946   0.271  18.562   8.284  0.3503  0.0224 -0.2067
  402YOPC   NC3 4947  13.385   2.198  10.447  0.1237 -0.0104 -0.0610
  402YOPC   PO4 4948  13.659   2.267  10.141 -0.1044 -0.0762 -0.1734
  402YOPC   GL1 4949  13.708   2.596   9.878  0.1972 -0.2030  0.0145
  402YOPC   GL2 4950  13.971   2.838   9.831  0.0011  0.0498 -0.1098
  402YOPC   C1A 4951  13.555   2.734   9.466 -0.2148  0.0242 -0.2488
  402YOPC   D2A 4952  13.749   2.590   9.141 -0.1552  0.1420  0.1210
  402YOPC   C3A 4953  13.878   2.336   8.812 -0.3145 -0.2252  0.0427
  402YOPC   C4A 4954  14.210   2.386   8.420  0.1675 -0.3287 -0.0782
  402YOPC   C1B 4955  13.937   2.397   9.549 -0.1902 -0.1323  0.2911
  402YOPC   C2B 4956  14.043   2.140   9.249  0.1357 -0.1173 -0.3124
  402YOPC   D3B 4957  13.758   1.874   9.046 -0.2156  0.3224  0.1373
  402YOPC   C4B 4958  13.939   1.516   8.707 -0.0100 -0.0876 -0.0504
  403YOPC   NC3 4959   4.501  12.037   9.962  0.0268 -0.0046  0.2491
  403YOPC   PO4 4960   4.804  12.289   9.824  0.2831  0.1697  0.1988
  403YOPC   GL1 4961   4.838  12.456   9.406 -0.0561  0.0440  0.1728
  403YOPC   GL2 4962   4.791  12.202   9.221 -0.1576 -0.0468 -0.0134
  403YOPC   C1A 4963   5.023  12.581   9.038 -0.0383  0.0979 -0.0351
  403YOPC   D2A 4964   5.141  12.483   8.568  0.1309 -0.1616 -0.0849
  403YOPC   C3A 4965   5.101  12.100   8.455 -0.2098  0.1055 -0.0254
  403YOPC   C4A 4966   5.042  11.666   8.590 -0.0782  0.2402  0.1056
  403YOPC   C1B 4967   4.817  12.157   8.807  0.1704  0.0589 -0.0675
  403YOPC   C2B 4968   4.565  12.243   8.452  0.4463 -0.2749 -0.1202
  403YOPC   D3B 4969   4.596  11.955   8.027  0.1031 -0.0570 -0.1987
  403YOPC   C4B 4970   4.615  12.123   7.604  0.0243  0.0605  0.0447
  404YOPC   NC3 4971   3.618  17.476  10.379  0.3152  0.0476  0.1211
  404YOPC   PO4 4972   3.242  17.555  10.508 -0.0499 -0.1478 -0.0552
  404YOPC   GL1 4973   3.220  17.360  10.058 -0.1723 -0.0616  0.0641
  404YOPC   GL2 4974   3.614  17.376   9.921  0.1502  0.0297 -0.1928
  404YOPC   C1A 4975   3.177  17.525   9.613  0.1321  0.0016 -0.0256
  404YOPC   D2A 4976   3.312  17.768   9.270 -0.0828  0.1217 -0.0557
  404YOPC   C3A 4977   3.289  17.618   8.901  0.2204  0.0536 -0.0759
  404YOPC   C4A 4978   3.317  17.609   8.502 -0.2099  0.3548  0.1257
  404YOPC   C1B 4979   3.745  17.575   9.614  0.4455  0.1878 -0.0027
  404YOPC   C2B 4980   3.707  17.954   9.494 -0.4664  0.1667 -0.2578
  404YOPC   D3B 4981   3.654  18.004   9.074  0.3093 -0.1523  0.0572
  404YOPC   C4B 4982   3.476  18.019   8.642  0.0563 -0.1380  0.0373
  405YOPC   NC3 4983   0.717   5.761  10.602 -0.0190  0.2076  0.1089
  405YOPC   PO4 4984   0.606   6.205  10.523 -0.0782 -0.1677  0.1000
  405YOPC   GL1 4985   0.456   6.297  10.031 -0.0474 -0.0186  0.2154
  405YOPC   GL2 4986   0.457   6.582   9.908  0.2245 -0.1990 -0.3274
  405YOPC   C1A 4987  -0.012   6.171   9.813  0.3558 -0.2780  0.0710
  405YOPC   D2A 4988  -0.313   5.922   9.574 -0.0564 -0.1720 -0.1059
  405YOPC   C3A 4989  -0.344   5.841   9.136 -0.4223 -0.0493 -0.1285
  405YOPC   C4A 4990  -0.093   5.892   8.806 -0.1023  0.0767 -0.1677
  405YOPC   C1B 4991   0.451   6.611   9.448 -0.2542 -0.1145 -0.4310
  405YOPC   C2B 4992   0.408   6.581   8.999  0.0068  0.2954 -0.0257
  405YOPC   D3B 4993   0.410   6.232   8.748  0.0349  0.1393 -0.0038
  405YOPC   C4B 4994   0.508   5.924   8.502 -0.0009  0.0180  0.1154
  406YOPC   NC3 4995  14.171   4.894  10.340  0.1690  0.1528  0.1520
  406YOPC   PO4 4996  14.620   4.930  10.307  0.1949  0.4488 -0.2299
  406YOPC   GL1 4997  14.833   5.155  10.010  0.0045 -0.2365 -0.3317
  406YOPC   GL2 4998  14.875   5.467  10.090  0.0374  0.3137 -0.3092
  406YOPC   C1A 4999  15.041   5.246   9.697  0.0390  0.1744  0.0637
  406YOPC   D2A 5000  15.169   5.417   9.312 -0.0645  0.0895 -0.4398
  406YOPC   C3A 5001  15.270   5.598   8.909 -0.2482 -0.2930 -0.0704
  406YOPC   C4A 5002  15.364   5.616   8.481  0.2633  0.0464 -0.1560
  406YOPC   C1B 5003  14.623   5.586   9.752 -0.2724  0.2211  0.0194
  406YOPC   C2B 5004  14.741   5.646   9.513 -0.1679  0.0404 -0.1097
  406YOPC   D3B 5005  14.744   6.133   9.377  0.2601 -0.0910 -0.1250
  406YOPC   C4B 5006  14.568   6.521   9.294 -0.1650 -0.0468 -0.2583
  407YOPC   NC3 5007  12.403  17.058  10.111  0.1030 -0.0183  0.0882
  407YOPC   PO4 5008  12.611  16.729   9.985 -0.2779  0.0075  0.0860
  407YOPC   GL1 5009  12.403  16.816   9.649  0.2477 -0.1486  0.1754
  407YOPC   GL2 5010  12.279  17.012   9.511 -0.0253  0.3908  0.3513
  407YOPC   C1A 5011  12.332  16.581   9.254  0.0251  0.2948 -0.3490
  407YOPC   D2A 5012  12.354  16.513   8.817  0.2982 -0.1075 -0.3565
  407YOPC   C3A 5013  12.697  16.342   8.638  0.0549 -0.3728  0.1194
  407YOPC   C4A 5014  12.874  16.319   8.184  0.0066  0.2042 -0.0771
  407YOPC   C1B 5015  12.268  17.039   9.096  0.2431 -0.1245 -0.3006
  407YOPC   C2B 5016  12.230  17.079   8.613 -0.2465 -0.0817  0.0870
  407YOPC   D3B 5017  12.070  17.414   8.402  0.0662  0.0026 -0.0745
  407YOPC   C4B 5018  12.133  17.449   7.989  0.2017  0.0879  0.1489
  408YOPC   NC3 5019   8.798   3.712  11.081 -0.2186  0.0557 -0.0734
  408YOPC   PO4 5020   9.004   4.145  10.849  0.1086 -0.1189 -0.2123
  408YOPC   GL1 5021   8.896   3.868  10.436 -0.1017 -0.0054 -0.0036
  408YOPC   GL2 5022   8.881   4.018  10.142  0.0069 -0.2138 -0.1645
  408YOPC   C1A 5023   9.228   3.624  10.339  0.2092  0.5844 -0.2440
  408YOPC   D2A 5024   9.380   3.379  10.037 -0.3478 -0.3609 -0.2041
  408YOPC   C3A 5025   9.743   3.539   9.804 -0.0854  0.0324 -0.0173
  408YOPC   C4A 5026  10.111   3.557  10.030  0.2488 -0.1874  0.2624
  408YOPC   C1B 5027   9.041   4.252   9.851  0.0528  0.1055 -0.0350
  408YOPC   C2B 5028   8.972   4.114   9.574  0.3877  0.2104  0.2386
  408YOPC   D3B 5029   9.103   4.232   9.160  0.2841  0.1671  0.0946
  408YOPC   C4B 5030   8.933   4.188   8.838  0.2436 -0.2003  0.0769
  409YOPC   NC3 5031   1.206   7.652  10.384  0.1472  0.2850  0.3146
  409YOPC   PO4 5032   0.802   7.770  10.434 -0.2473  0.0845 -0.1183
  409YOPC   GL1 5033   0.809   7.769  10.003  0.1242  0.1797  0.0918
  409YOPC   GL2 5034   0.903   7.441   9.977  0.1009 -0.3676  0.0444
  409YOPC   C1A 5035   0.698   7.684   9.588 -0.0905 -0.2995  0.0004
  409YOPC   D2A 5036   0.752   7.503   9.177 -0.2649 -0.2359 -0.0601
  409YOPC   C3A 5037   0.774   7.422   8.800  0.0774  0.1777  0.0086
  409YOPC   C4A 5038   0.697   7.179   8.344 -0.4248 -0.3377 -0.0169
  409YOPC   C1B 5039   0.999   7.274   9.583  0.1049 -0.2171 -0.0915
  409YOPC   C2B 5040   1.195   7.758   9.374 -0.0784  0.1855  0.2131
  409YOPC   D3B 5041   1.327   7.651   8.988  0.0345  0.0435  0.0137
  409YOPC   C4B 5042   1.430   7.897   8.609  0.0877  0.2171 -0.0125
  410YOPC   NC3 5043   4.844   4.809  10.679  0.1757  0.0924  0.4771
  410YOPC   PO4 5044   4.755   4.542  10.330 -0.1331 -0.2722  0.1914
  410YOPC   GL1 5045   4.675   4.680   9.855 -0.2067  0.4027 -0.0858
  410YOPC   GL2 5046   4.563   4.378   9.837 -0.0171  0.2731 -0.1646
  410YOPC   C1A 5047   4.729   4.982   9.438 -0.0419  0.0910  0.0844
  410YOPC   D2A 5048   4.785   5.285   9.152  0.0285 -0.0678  0.1287
  410YOPC   C3A 5049   5.202   5.510   9.038  0.0998  0.1569 -0.0577
  410YOPC   C4A 5050   5.592   5.417   8.920 -0.0938 -0.2352  0.2884
  410YOPC   C1B 5051   4.600   4.481   9.369 -0.0430 -0.1585  0.0934
  410YOPC   C2B 5052   4.491   4.785   9.041 -0.2210 -0.0128  0.0005
  410YOPC   D3B 5053   4.126   4.878   8.830  0.1179 -0.4096  0.3071
  410YOPC   C4B 5054   4.004   4.770   8.418  0.2136  0.1553  0.1426
  411YOPC   NC3 5055   9.021   5.691  10.714  0.2422  0.1784  0.1536
  411YOPC   PO4 5056   9.327   5.855  10.532 -0.1241  0.0978  0.0276
  411YOPC   GL1 5057   9.152   5.900  10.168  0.3867  0.1758  0.1912
  411YOPC   GL2 5058   8.850   6.071  10.205  0.0060 -0.0063 -0.2858
  411YOPC   C1A 5059   9.180   6.020   9.741  0.2835  0.2844 -0.0050
  411YOPC   D2A 5060   8.938   5.811   9.453 -0.2376  0.0230  0.3934
  411YOPC   C3A 5061   8.993   5.939   9.034  0.0552  0.0540 -0.2839
  411YOPC   C4A 5062   9.010   6.094   8.597  0.1599 -0.3705 -0.0081
  411YOPC   C1B 5063   8.698   6.194   9.743  0.0360  0.1707 -0.0025
  411YOPC   C2B 5064   8.688   6.212   9.319  0.3432 -0.2228  0.2307
  411YOPC   D3B 5065   8.672   6.314   8.957 -0.0776 -0.1383  0.2119
  411YOPC   C4B 5066   8.773   6.487   8.533  0.0558  0.0337  0.3194
  412YOPC   NC3 5067   8.100   3.675  10.323  0.0879 -0.1561 -0.0262
  412YOPC   PO4 5068   8.535   3.633  10.221  0.1042 -0.0787  0.0087
  412YOPC   GL1 5069   8.878   3.503   9.918 -0.0380 -0.1541  0.1017
  412YOPC   GL2 5070   8.820   3.671   9.545  0.0529 -0.0020  0.0859
  412YOPC   C1A 5071   9.000   3.267   9.584  0.0470 -0.2132 -0.0453
  412YOPC   D2A 5072   9.240   3.352   9.156 -0.1693  0.2216  0.0672
  412YOPC   C3A 5073   9.063   3.565   8.837 -0.2086 -0.0519 -0.3056
  412YOPC   C4A 5074   8.832   3.733   8.524  0.0758 -0.3326  0.2532
  412YOPC   C1B 5075   8.839   3.797   9.170 -0.0506 -0.2739  0.0538
  412YOPC   C2B 5076   8.582   3.710   8.914 -0.1796 -0.1524  0.2764
  412YOPC   D3B 5077   8.239   3.867   9.086  0.1161 -0.1496 -0.0096
  412YOPC   C4B 5078   8.033   4.224   9.071 -0.1103 -0.2471 -0.1882
  413YOPC   NC3 5079  14.818   5.829  10.643 -0.1199  0.1029 -0.0399
  413YOPC   PO4 5080  14.563   6.227  10.502  0.3333  0.1028  0.0475
  413YOPC   GL1 5081  14.467   6.398  10.154 -0.0077  0.0302  0.0205
  413YOPC   GL2 5082  14.276   6.453   9.831  0.2251  0.1654 -0.1176
  413YOPC   C1A 5083  14.751   6.418   9.797 -0.0544 -0.2509  0.2077
  413YOPC   D2A 5084  15.131   6.446   9.541 -0.0842 -0.0499  0.2901
  413YOPC   C3A 5085  15.051   6.582   9.042 -0.0962 -0.1939 -0.0191
  413YOPC   C4A 5086  14.934   6.862   8.698 -0.0617 -0.0547  0.3014
  413YOPC   C1B 5087  14.138   6.385   9.424  0.1091 -0.4967  0.1840
  413YOPC   C2B 5088  14.025   6.309   9.036 -0.3696 -0.3305  0.2844
  413YOPC   D3B 5089  14.243   6.090   8.663 -0.0559  0.1424  0.2629
  413YOPC   C4B 5090  14.463   5.817   8.383 -0.1842  0.0322 -0.0654
  414YOPC   NC3 5091  15.465   3.859  10.191 -0.0445  0.0199  0.0117
  414YOPC   PO4 5092  15.689   4.221   9.949  0.0449  0.4168  0.1432
  414YOPC   GL1 5093  15.869   3.969   9.621 -0.0395 -0.1367 -0.2327
  414YOPC   GL2 5094  16.002   4.175   9.395 -0.5412  0.1956 -0.0062
  414YOPC   C1A 5095  15.751   3.782   9.257 -0.2422 -0.1873  0.1781
  414YOPC   D2A 5096  15.705   3.925   8.831 -0.0564 -0.1551 -0.4083
  414YOPC   C3A 5097  16.020   4.157   8.550  0.3099  0.2262  0.3075
  414YOPC   C4A 5098  16.023   4.257   8.205 -0.0178 -0.0416  0.0365
  414YOPC   C1B 5099  15.911   4.359   9.062 -0.3861 -0.1089 -0.1331
  414YOPC   C2B 5100  16.163   4.579   8.884  0.0098  0.2328 -0.0079
  414YOPC   D3B 5101  16.190   4.706   8.474  0.0096 -0.0584  0.0225
  414YOPC   C4B 5102  15.960   4.936   8.106  0.1855  0.0570  0.4007
  415YOPC   NC3 5103  13.008  10.229  10.570 -0.2835 -0.0007  0.0091
  415YOPC   PO4 5104  12.891  10.068  10.208 -0.2354 -0.1552 -0.0728
  415YOPC   GL1 5105  12.870  10.159   9.714 -0.1149 -0.0214 -0.2282
  415YOPC   GL2 5106  12.669  10.030   9.431  0.0758 -0.0326 -0.1434
  415YOPC   C1A 5107  12.748  10.614   9.524 -0.2634 -0.2783  0.1074
  415YOPC   D2A 5108  12.702  10.672   9.026  0.3611 -0.0244 -0.2977
  415YOPC   C3A 5109  12.365  10.317   8.907 -0.2054 -0.1029 -0.3007
  415YOPC   C4A 5110  12.156  10.148   9.231  0.1166 -0.2061 -0.0424
  415YOPC   C1B 5111  12.694   9.976   8.984  0.1315 -0.3871 -0.1639
  415YOPC   C2B 5112  12.887  10.190   8.625 -0.0310  0.3935  0.0724
  415YOPC   D3B 5113  12.715  10.543   8.510 -0.0026 -0.0226 -0.1889
  415YOPC   C4B 5114  12.749  11.058   8.511  0.3300 -0.2005 -0.1894
  416YOPC   NC3 5115   9.114   2.804  10.730 -0.0325 -0.2743  0.2918
  416YOPC   PO4 5116   8.984   2.577  10.367 -0.1098  0.0972 -0.1391
  416YOPC   GL1 5117   8.630   2.665  10.153  0.4372 -0.0704  0.2696
  416YOPC   GL2 5118   8.749   2.974   9.894 -0.0160 -0.0337 -0.1586
  416YOPC   C1A 5119   8.471   2.419   9.861 -0.0191  0.1608 -0.2258
  416YOPC   D2A 5120   8.234   2.695   9.627 -0.2665 -0.3747 -0.0554
  416YOPC   C3A 5121   8.378   2.705   9.232  0.1143 -0.0938 -0.0471
  416YOPC   C4A 5122   8.244   2.557   8.842  0.1846 -0.0497 -0.1781
  416YOPC   C1B 5123   8.753   2.735   9.517 -0.0284  0.0993  0.0743
  416YOPC   C2B 5124   8.949   2.601   9.211  0.0586  0.1525 -0.0288
  416YOPC   D3B 5125   8.815   2.385   8.915  0.0142 -0.1646  0.1180
  416YOPC   C4B 5126   8.581   2.671   8.555 -0.1263  0.0023  0.1334
  417YOPC   NC3 5127  11.218   1.525  10.056 -0.3623  0.0728 -0.0029
  417YOPC   PO4 5128  11.268   1.171  10.145  0.0089  0.0887  0.0020
  417YOPC   GL1 5129  11.450   1.150   9.761  0.1532  0.1513 -0.0323
  417YOPC   GL2 5130  11.858   1.129   9.641 -0.0304 -0.3606 -0.1295
  417YOPC   C1A 5131  11.512   1.360   9.338 -0.1598  0.2787  0.0539
  417YOPC   D2A 5132  11.739   1.240   8.975  0.2188  0.0303 -0.2100
  417YOPC   C3A 5133  11.987   1.106   8.596  0.2394 -0.2996 -0.0844
  417YOPC   C4A 5134  12.112   1.224   8.128 -0.0623  0.1698 -0.5694
  417YOPC   C1B 5135  11.707   0.868   9.302  0.1351  0.1401 -0.2451
  417YOPC   C2B 5136  11.932   0.780   9.016  0.2511 -0.3494  0.1101
  417YOPC   D3B 5137  12.420   0.894   8.967  0.2278 -0.0444 -0.1734
  417YOPC   C4B 5138  12.561   1.246   8.891 -0.1026 -0.0730  0.0934
  418YOPC   NC3 5139   1.021   7.042  10.275  0.2404 -0.1416  0.2359
  418YOPC   PO4 5140   1.214   6.726  10.514 -0.0474 -0.1633 -0.2235
  418YOPC   GL1 5141   0.974   6.483  10.085 -0.2469 -0.2005  0.0297
  418YOPC   GL2 5142   1.241   6.702   9.823  0.1225  0.1209  0.0421
  418YOPC   C1A 5143   0.999   6.211   9.768 -0.3699 -0.0731  0.1727
  418YOPC   D2A 5144   0.767   6.228   9.370  0.1005 -0.0997  0.1427
  418YOPC   C3A 5145   0.296   6.138   9.404  0.0692  0.1980  0.0367
  418YOPC   C4A 5146   0.021   6.266   9.084 -0.0240 -0.0531 -0.2407
  418YOPC   C1B 5147   1.416   6.841   9.470 -0.0296 -0.2853  0.0631
  418YOPC   C2B 5148   1.236   7.122   9.076  0.0058 -0.2433 -0.1021
  418YOPC   D3B 5149   1.116   6.964   8.668 -0.0725  0.1373 -0.3227
  418YOPC   C4B 5150   0.854   6.734   8.385  0.1084 -0.0050 -0.0034
  419YOPC   NC3 5151   2.659   1.279  10.956  0.2646  0.0074 -0.2342
  419YOPC   PO4 5152   2.537   1.481  10.569 -0.0972 -0.1315 -0.2466
  419YOPC   GL1 5153   2.300   1.335  10.217 -0.1534  0.0356  0.1017
  419YOPC   GL2 5154   2.050   1.623  10.196  0.2571  0.0142  0.2851
  419YOPC   C1A 5155   2.192   1.157   9.834  0.0823  0.1796  0.0866
  419YOPC   D2A 5156   2.377   0.739   9.637  0.3989  0.1313 -0.1510
  419YOPC   C3A 5157   2.351   0.805   9.288 -0.0142  0.0782  0.0370
  419YOPC   C4A 5158   2.313   1.067   8.942 -0.0868 -0.2256 -0.0532
  419YOPC   C1B 5159   2.269   1.601   9.702  0.0160  0.0356  0.0439
  419YOPC   C2B 5160   2.211   1.322   9.339  0.2537 -0.2958  0.0234
  419YOPC   D3B 5161   2.487   1.679   9.158 -0.1185  0.0866 -0.0967
  419YOPC   C4B 5162   2.364   1.872   8.772 -0.2391  0.1966  0.0307
  420YOPC   NC3 5163   0.539  14.980  10.049 -0.4128  0.0526  0.2318
  420YOPC   PO4 5164   1.016  15.005   9.966 -0.0756 -0.2274  0.0477
  420YOPC   GL1 5165   1.068  14.981   9.582  0.1919 -0.2804 -0.2687
  420YOPC   GL2 5166   1.050  14.550   9.521  0.0607  0.3124 -0.0249
  420YOPC   C1A 5167   1.447  15.044   9.338  0.0707 -0.1204  0.0222
  420YOPC   D2A 5168   1.366  15.107   8.936  0.1445 -0.1181  0.0360
  420YOPC   C3A 5169   1.462  15.336   8.577  0.0233 -0.1156  0.2614
  420YOPC   C4A 5170   1.331  15.450   8.200  0.1606  0.0447 -0.4103
  420YOPC   C1B 5171   1.035  14.789   9.142  0.2303 -0.2181 -0.0290
  420YOPC   C2B 5172   0.863  14.837   8.689  0.3211  0.0284  0.2680
  420YOPC   D3B 5173   1.285  14.802   8.406  0.1710 -0.0808  0.2409
  420YOPC   C4B 5174   1.662  15.040   8.202  0.1318  0.3776  0.4547
  421YOPC   NC3 5175   2.826  12.941  10.075 -0.2350 -0.2102 -0.1824
  421YOPC   PO4 5176   3.328  13.098   9.894  0.1248 -0.1679 -0.0766
  421YOPC   GL1 5177   3.046  12.906   9.598  0.1584  0.0359 -0.0706
  421YOPC   GL2 5178   3.311  12.746   9.408  0.3469  0.1365 -0.2861
  421YOPC   C1A 5179   2.846  12.904   9.271 -0.0760 -0.0343 -0.1421
  421YOPC   D2A 5180   2.624  12.646   8.858  0.0750  0.1284  0.1405
  421YOPC   C3A 5181   2.371  12.844   8.436 -0.2129  0.3115 -0.1655
  421YOPC   C4A 5182   2.194  12.750   7.994 -0.2926 -0.1673  0.3234
  421YOPC   C1B 5183   3.228  12.721   8.878 -0.0969 -0.1335 -0.1737
  421YOPC   C2B 5184   3.388  12.713   8.568  0.1006 -0.0131 -0.0607
  421YOPC   D3B 5185   3.328  12.426   8.189  0.1146 -0.3528  0.2448
  421YOPC   C4B 5186   3.544  12.140   7.879 -0.1116  0.1778 -0.2538
  422YOPC   NC3 5187   8.975  11.390  10.325  0.2819 -0.2389  0.0634
  422YOPC   PO4 5188   8.834  10.995  10.333  0.0296 -0.0652 -0.2679
  422YOPC   GL1 5189   8.641  10.740   9.920 -0.1004 -0.0356  0.2736
  422YOPC   GL2 5190   8.273  10.517   9.930 -0.1532  0.2758  0.1026
  422YOPC   C1A 5191   8.840  10.684   9.532  0.1177 -0.0897  0.0475
  422YOPC   D2A 5192   8.713  10.768   9.152 -0.2217  0.1701 -0.0301
  422YOPC   C3A 5193   8.599  10.451   8.979  0.0508  0.2056  0.1886
  422YOPC   C4A 5194   8.312  10.386   8.633  0.0408  0.2125  0.0544
  422YOPC   C1B 5195   8.301  10.480   9.429 -0.2273  0.1931  0.0686
  422YOPC   C2B 5196   8.261  10.771   8.969 -0.3050 -0.1110 -0.1713
  422YOPC   D3B 5197   8.591  10.981   8.714 -0.0685  0.1596  0.1286
  422YOPC   C4B 5198   8.388  10.855   8.413 -0.2676 -0.1159  0.1964
  423YOPC   NC3 5199   6.283  17.392  10.322 -0.1755  0.2231  0.1679
  423YOPC   PO4 5200   6.109  17.263   9.933  0.1328 -0.1069  0.0091
  423YOPC   GL1 5201   6.377  17.087   9.664 -0.1935 -0.1485 -0.2921
  423YOPC   GL2 5202   6.514  16.680   9.620 -0.0741  0.1648  0.1438
  423YOPC   C1A 5203   6.537  17.043   9.293 -0.1357 -0.0608 -0.4674
  423YOPC   D2A 5204   6.741  17.087   8.917  0.0096  0.1348 -0.0548
  423YOPC   C3A 5205   6.718  17.390   8.532 -0.2566  0.2531 -0.1777
  423YOPC   C4A 5206   6.755  17.540   8.237 -0.2523 -0.3576 -0.1347
  423YOPC   C1B 5207   6.565  16.579   9.161 -0.1149 -0.1511 -0.1240
  423YOPC   C2B 5208   6.568  16.607   8.700 -0.0533 -0.1484 -0.0403
  423YOPC   D3B 5209   6.605  16.248   8.454  0.4777  0.1336  0.1336
  423YOPC   C4B 5210   6.765  15.916   8.208 -0.0849 -0.1899 -0.2253
  424YOPC   NC3 5211   1.371  17.371  10.350 -0.0335  0.2099  0.2406
  424YOPC   PO4 5212   0.977  17.548  10.256  0.2499 -0.0023 -0.3026
  424YOPC   GL1 5213   1.158  17.551   9.864  0.0444  0.1543  0.1441
  424YOPC   GL2 5214   1.220  17.354   9.722 -0.0393  0.0037 -0.0607
  424YOPC   C1A 5215   1.244  17.836   9.484  0.1071 -0.0054 -0.0467
  424YOPC   D2A 5216   1.312  17.647   8.942  0.2270 -0.1038  0.0515
  424YOPC   C3A 5217   0.979  17.800   8.649  0.0545  0.1736  0.2103
  424YOPC   C4A 5218   0.670  18.030   8.353  0.0124 -0.4297 -0.1887
  424YOPC   C1B 5219   1.064  17.278   9.288 -0.0965 -0.1752  0.1504
  424YOPC   C2B 5220   0.841  17.305   8.924  0.0067  0.1037 -0.3535
  424YOPC   D3B 5221   1.120  17.273   8.668  0.1319 -0.0895  0.0576
  424YOPC   C4B 5222   1.403  17.321   8.416 -0.0275  0.0203  0.2951
  425YOPC   NC3 5223  16.841   8.971  10.233  0.2687 -0.2905  0.1281
  425YOPC   PO4 5224  16.481   9.064  10.523  0.2139  0.4190 -0.0144
  425YOPC   GL1 5225  16.391   8.967   9.980  0.2259  0.2228 -0.2980
  425YOPC   GL2 5226  16.285   9.208   9.769 -0.2602 -0.1404 -0.0536
  425YOPC   C1A 5227  16.273   8.741   9.616 -0.0838 -0.1672 -0.0441
  425YOPC   D2A 5228  16.236   8.675   9.122  0.2745 -0.2239  0.0214
  425YOPC   C3A 5229  15.875   8.859   9.063 -0.3419  0.0212  0.1909
  425YOPC   C4A 5230  15.387   8.820   8.994  0.1327  0.0798 -0.2028
  425YOPC   C1B 5231  16.186   9.167   9.356  0.2566 -0.0676  0.3759
  425YOPC   C2B 5232  16.340   9.190   8.982 -0.0718 -0.0974  0.0204
  425YOPC   D3B 5233  16.046   9.243   8.659 -0.1081 -0.0974 -0.0584
  425YOPC   C4B 5234  15.767   9.615   8.458 -0.0571 -0.0554 -0.0968
  426YOPC   NC3 5235  15.413   8.140  10.243  0.0224 -0.1862  0.1381
  426YOPC   PO4 5236  15.718   8.614  10.288  0.0453 -0.3001  0.0235
  426YOPC   GL1 5237  15.840   8.776   9.885 -0.0155 -0.1780  0.1263
  426YOPC   GL2 5238  15.809   9.024   9.764  0.4299  0.2571  0.1226
  426YOPC   C1A 5239  15.547   8.684   9.511  0.1605 -0.4663 -0.2539
  426YOPC   D2A 5240  15.269   8.430   9.314 -0.0891 -0.0961 -0.2753
  426YOPC   C3A 5241  15.275   8.258   8.832 -0.0726 -0.2218  0.0570
  426YOPC   C4A 5242  15.256   8.176   8.339  0.0028 -0.0612  0.2824
  426YOPC   C1B 5243  15.625   9.184   9.347  0.0757  0.2531  0.0948
  426YOPC   C2B 5244  15.626   9.299   8.948 -0.0054 -0.3104 -0.0735
  426YOPC   D3B 5245  15.596   9.088   8.612 -0.0847 -0.0158 -0.2153
  426YOPC   C4B 5246  15.254   9.057   8.292  0.2200 -0.0654 -0.2072
  427YOPC   NC3 5247   5.120   6.325  10.881 -0.2511  0.2943  0.0381
  427YOPC   PO4 5248   5.045   6.178  10.392  0.0170 -0.4381  0.0295
  427YOPC   GL1 5249   4.898   6.091   9.926  0.0311  0.0802  0.0050
  427YOPC   GL2 5250   5.053   5.906   9.809 -0.2361 -0.4366  0.1551
  427YOPC   C1A 5251   4.543   5.937   9.643 -0.0998  0.1491 -0.0378
  427YOPC   D2A 5252   4.237   5.730   9.412 -0.1890  0.1034 -0.1808
  427YOPC   C3A 5253   4.319   5.396   9.143 -0.1802  0.0860 -0.2091
  427YOPC   C4A 5254   4.486   5.319   8.754 -0.1337  0.0933 -0.0552
  427YOPC   C1B 5255   4.938   5.758   9.362 -0.0534  0.0458 -0.1577
  427YOPC   C2B 5256   4.661   5.785   9.161 -0.1526  0.1540  0.1210
  427YOPC   D3B 5257   4.716   5.856   8.795 -0.2420  0.1696 -0.0576
  427YOPC   C4B 5258   4.965   5.619   8.585  0.3522  0.2632  0.2510
  428YOPC   NC3 5259  17.094   6.537  10.120 -0.0988  0.2834  0.2536
  428YOPC   PO4 5260  17.228   6.908  10.293 -0.0960  0.0939  0.2129
  428YOPC   GL1 5261  17.367   6.918   9.887  0.0544  0.0964  0.1380
  428YOPC   GL2 5262  17.473   7.188   9.694 -0.1669 -0.0496 -0.0397
  428YOPC   C1A 5263  17.266   6.757   9.498 -0.0548 -0.0110 -0.3376
  428YOPC   D2A 5264  17.349   6.846   9.052  0.0327  0.0471 -0.0621
  428YOPC   C3A 5265  17.105   6.768   8.739  0.2241  0.0351  0.1674
  428YOPC   C4A 5266  16.678   7.032   8.736  0.0455 -0.2047 -0.2713
  428YOPC   C1B 5267  17.431   7.228   9.301  0.1500 -0.1944 -0.0486
  428YOPC   C2B 5268  17.338   7.454   8.881 -0.2180 -0.0547  0.0872
  428YOPC   D3B 5269  17.613   7.402   8.587  0.0792  0.0892 -0.3884
  428YOPC   C4B 5270  17.724   7.662   8.110 -0.0776 -0.2006 -0.1227
  429YOPC   NC3 5271   6.523   8.558  10.149 -0.2028 -0.1185 -0.0449
  429YOPC   PO4 5272   6.486   9.020  10.157  0.2156  0.1799 -0.1327
  429YOPC   GL1 5273   6.634   9.248   9.897  0.1526  0.1512 -0.0367
  429YOPC   GL2 5274   6.313   9.191   9.726  0.0773 -0.0143 -0.0488
  429YOPC   C1A 5275   6.880   9.100   9.577  0.2096  0.2720  0.0770
  429YOPC   D2A 5276   7.276   9.002   9.336 -0.2103  0.0986 -0.0939
  429YOPC   C3A 5277   7.631   8.877   9.026 -0.0707  0.1582 -0.1511
  429YOPC   C4A 5278   7.748   8.860   8.621  0.0263 -0.1916 -0.4790
  429YOPC   C1B 5279   6.363   9.201   9.334 -0.0118 -0.0321 -0.1677
  429YOPC   C2B 5280   6.480   9.334   8.987 -0.0437 -0.2061  0.4672
  429YOPC   D3B 5281   6.491   9.379   8.644  0.4768 -0.1624  0.2379
  429YOPC   C4B 5282   6.308   9.537   8.262  0.1138 -0.0528 -0.1364
  430YOPC   NC3 5283  12.889   0.174  10.180 -0.2768  0.1726  0.0864
  430YOPC   PO4 5284  12.559  -0.218  10.212  0.0814  0.0778  0.2267
  430YOPC   GL1 5285  12.518  -0.226   9.784 -0.0026  0.0520 -0.2813
  430YOPC   GL2 5286  12.790  -0.365   9.624  0.0758 -0.0824 -0.3488
  430YOPC   C1A 5287  12.294  -0.134   9.358  0.0500  0.0369 -0.0252
  430YOPC   D2A 5288  12.316  -0.285   8.938  0.2777 -0.5163  0.0012
  430YOPC   C3A 5289  12.261  -0.043   8.576 -0.2284 -0.0063  0.1541
  430YOPC   C4A 5290  11.988   0.258   8.375 -0.2054  0.0641 -0.1583
  430YOPC   C1B 5291  12.744  -0.251   9.214 -0.0196 -0.2085  0.0344
  430YOPC   C2B 5292  13.019  -0.170   8.900  0.1957 -0.3067  0.1237
  430YOPC   D3B 5293  13.434  -0.268   8.960 -0.3460 -0.3814 -0.4537
  430YOPC   C4B 5294  13.751  -0.535   8.876  0.2317 -0.0262  0.2060
  431YOPC   NC3 5295   3.085  18.276  10.146 -0.1794  0.1754  0.2378
  431YOPC   PO4 5296   2.829  17.933  10.102 -0.4878 -0.2702  0.0303
  431YOPC   GL1 5297   2.697  17.959   9.843  0.0178  0.2438  0.3444
  431YOPC   GL2 5298   2.622  18.236   9.747  0.0844  0.2617 -0.0925
  431YOPC   C1A 5299   2.345  17.863   9.444  0.1548 -0.1392  0.2550
  431YOPC   D2A 5300   2.154  17.691   9.121 -0.3128  0.0136 -0.1272
  431YOPC   C3A 5301   2.399  17.716   8.731  0.0937 -0.2468 -0.1276
  431YOPC   C4A 5302   2.464  17.704   8.330 -0.2146 -0.0076 -0.0881
  431YOPC   C1B 5303   2.464  18.429   9.484  0.2558  0.0413 -0.0737
  431YOPC   C2B 5304   2.309  18.638   9.099 -0.0859 -0.0040 -0.1171
  431YOPC   D3B 5305   2.516  18.993   8.901 -0.2357 -0.0881 -0.3070
  431YOPC   C4B 5306   2.594  19.321   8.658  0.0224  0.0749  0.2867
  432YOPC   NC3 5307   4.229  10.453  10.011 -0.1867 -0.0079  0.2711
  432YOPC   PO4 5308   4.727  10.612   9.985  0.3966  0.5543 -0.0978
  432YOPC   GL1 5309   4.949  10.559   9.618  0.0778 -0.1443 -0.0228
  432YOPC   GL2 5310   5.295  10.614   9.752  0.1226  0.1415  0.0707
  432YOPC   C1A 5311   5.090  10.639   9.236 -0.0414 -0.1274  0.0411
  432YOPC   D2A 5312   5.087  10.697   8.863 -0.2580  0.1143 -0.1769
  432YOPC   C3A 5313   4.947  10.420   8.500  0.1327  0.1172 -0.1233
  432YOPC   C4A 5314   4.798  10.081   8.384 -0.0855 -0.0238  0.1121
  432YOPC   C1B 5315   5.407  10.180   9.513 -0.0093  0.3015 -0.2776
  432YOPC   C2B 5316   5.482   9.795   9.317  0.0226  0.2017 -0.0425
  432YOPC   D3B 5317   5.671   9.806   8.911 -0.0027  0.1508 -0.2562
  432YOPC   C4B 5318   5.673   9.696   8.436 -0.2763  0.2091 -0.1910
  433YOPC   NC3 5319  17.507  13.957  10.465  0.0225 -0.2339  0.1147
  433YOPC   PO4 5320  17.235  13.553  10.582 -0.1404  0.1764  0.1192
  433YOPC   GL1 5321  17.142  13.312  10.276  0.0396 -0.1043 -0.1763
  433YOPC   GL2 5322  17.366  13.287  10.052  0.0725  0.0609 -0.1177
  433YOPC   C1A 5323  16.925  13.130   9.871  0.1981 -0.0908  0.1365
  433YOPC   D2A 5324  16.659  13.138   9.501  0.0153  0.0449  0.2707
  433YOPC   C3A 5325  16.314  13.137   9.566 -0.1377 -0.1485 -0.0440
  433YOPC   C4A 5326  16.169  13.338   9.849  0.4291 -0.0670 -0.0051
  433YOPC   C1B 5327  17.452  13.355   9.626  0.2894 -0.0195 -0.3316
  433YOPC   C2B 5328  17.604  13.062   9.263  0.0867  0.1459  0.2363
  433YOPC   D3B 5329  17.365  12.898   8.945 -0.3291 -0.2911 -0.2276
  433YOPC   C4B 5330  17.153  13.094   8.720 -0.2758 -0.3810  0.0772
  434YOPC   NC3 5331  12.801   5.272  10.402 -0.2046 -0.1024 -0.0428
  434YOPC   PO4 5332  13.015   4.966  10.120 -0.1038 -0.1423  0.1497
  434YOPC   GL1 5333  12.971   5.099   9.667 -0.2898  0.2472 -0.3311
  434YOPC   GL2 5334  13.291   5.174   9.637  0.3501 -0.4845  0.1048
  434YOPC   C1A 5335  12.989   5.116   9.192  0.0726 -0.0190  0.1698
  434YOPC   D2A 5336  13.163   4.875   8.838  0.0562 -0.1884 -0.0560
  434YOPC   C3A 5337  13.306   4.983   8.441  0.0673 -0.0870  0.3299
  434YOPC   C4A 5338  13.488   5.141   8.009  0.0561 -0.2518  0.1886
  434YOPC   C1B 5339  13.472   4.983   9.247  0.4286  0.0665 -0.1713
  434YOPC   C2B 5340  13.697   4.952   8.764 -0.3276 -0.0330  0.3924
  434YOPC   D3B 5341  13.886   5.281   8.576  0.2739  0.0786 -0.1716
  434YOPC   C4B 5342  14.253   5.337   8.339 -0.2515  0.0534  0.1001
  435YOPC   NC3 5343   4.326  16.297   9.940  0.2856  0.0896 -0.2670
  435YOPC   PO4 5344   4.319  16.789   9.922  0.1429  0.1351 -0.2211
  435YOPC   GL1 5345   4.480  16.602   9.543  0.1566 -0.0934  0.0982
  435YOPC   GL2 5346   4.435  16.250   9.408 -0.2242  0.0137  0.0978
  435YOPC   C1A 5347   4.496  16.885   9.182  0.2005 -0.0850 -0.4154
  435YOPC   D2A 5348   4.701  17.134   8.846 -0.2008  0.2431 -0.0835
  435YOPC   C3A 5349   4.834  17.043   8.383  0.3344  0.0450  0.0716
  435YOPC   C4A 5350   4.674  16.799   8.137  0.0068  0.1204 -0.2033
  435YOPC   C1B 5351   4.540  16.024   9.067 -0.1756 -0.1195  0.0255
  435YOPC   C2B 5352   4.345  15.810   8.741  0.1551  0.0382 -0.1427
  435YOPC   D3B 5353   4.385  15.697   8.285 -0.1052  0.2781  0.0526
  435YOPC   C4B 5354   4.037  15.560   8.056  0.3253 -0.2735 -0.0332
  436YOPC   NC3 5355   6.851   9.355  10.349 -0.0226  0.1305  0.2893
  436YOPC   PO4 5356   6.753   9.697  10.326 -0.1235  0.0862 -0.1376
  436YOPC   GL1 5357   6.782   9.996   9.946 -0.0981 -0.0001 -0.0053
  436YOPC   GL2 5358   6.723  10.094   9.586 -0.2653  0.5518  0.2217
  436YOPC   C1A 5359   7.159   9.929   9.673 -0.2099 -0.0318  0.0584
  436YOPC   D2A 5360   7.226   9.739   9.227 -0.2812 -0.0834  0.0109
  436YOPC   C3A 5361   7.433   9.408   9.068  0.0717  0.1298  0.2103
  436YOPC   C4A 5362   7.312   9.179   8.648  0.0030 -0.1322 -0.0791
  436YOPC   C1B 5363   6.840   9.599   9.490  0.3314 -0.0496 -0.0685
  436YOPC   C2B 5364   6.936   9.315   9.139 -0.0312 -0.1096  0.3200
  436YOPC   D3B 5365   7.020   9.531   8.749  0.3691 -0.0538  0.3156
  436YOPC   C4B 5366   7.304   9.710   8.691 -0.0120  0.0447 -0.3168
  437YOPC   NC3 5367   7.047   2.291   9.823  0.1712 -0.1998 -0.1787
  437YOPC   PO4 5368   6.752   1.972   9.983 -0.2184 -0.2418 -0.1115
  437YOPC   GL1 5369   6.495   1.654   9.869  0.0024  0.0320 -0.2513
  437YOPC   GL2 5370   6.613   1.387   9.880  0.1111  0.0177 -0.0455
  437YOPC   C1A 5371   6.300   1.521   9.465 -0.3926  0.0225  0.1594
  437YOPC   D2A 5372   6.392   1.614   9.004 -0.2147  0.2918 -0.0699
  437YOPC   C3A 5373   6.164   1.623   8.623  0.0110  0.2539 -0.3685
  437YOPC   C4A 5374   5.826   1.402   8.384  0.0964  0.0273 -0.2423
  437YOPC   C1B 5375   6.803   1.452   9.444 -0.3265  0.0046  0.1806
  437YOPC   C2B 5376   6.919   1.404   9.030  0.0154 -0.1574 -0.0253
  437YOPC   D3B 5377   6.614   1.410   8.623  0.0846  0.2108  0.3173
  437YOPC   C4B 5378   6.726   1.403   8.194 -0.1932  0.2271  0.3034
  438YOPC   NC3 5379  18.120  16.913   9.888  0.1843  0.0912  0.2102
  438YOPC   PO4 5380  18.635  17.064  10.058 -0.1555  0.0918 -0.0845
  438YOPC   GL1 5381  18.579  17.160   9.626 -0.0841  0.1050  0.2128
  438YOPC   GL2 5382  18.706  17.410   9.513 -0.1696  0.1864  0.0550
  438YOPC   C1A 5383  18.373  17.042   9.272  0.0015  0.0575 -0.0591
  438YOPC   D2A 5384  18.347  17.067   8.793 -0.1802 -0.2317 -0.2601
  438YOPC   C3A 5385  18.603  17.240   8.466  0.1526 -0.1944 -0.1446
  438YOPC   C4A 5386  18.743  17.638   8.341 -0.3407 -0.2007 -0.0935
  438YOPC   C1B 5387  18.777  17.619   9.168 -0.0687  0.2197  0.2916
  438YOPC   C2B 5388  19.014  17.686   8.826 -0.4338  0.3088 -0.0457
  438YOPC   D3B 5389  19.118  17.398   8.544  0.2534  0.2143 -0.0005
  438YOPC   C4B 5390  19.469  17.517   8.168 -0.0686 -0.1728 -0.0762
  439YOPC   NC3 5391  14.536   3.926  10.158  0.1635  0.0058  0.1075
  439YOPC   PO4 5392  14.762   4.100   9.859  0.3490 -0.1498  0.0103
  439YOPC   GL1 5393  14.884   3.950   9.437  0.0481  0.0462  0.0611
  439YOPC   GL2 5394  14.492   4.022   9.324  0.1230  0.3723  0.1183
  439YOPC   C1A 5395  14.897   4.010   8.922  0.0124  0.2807 -0.1227
  439YOPC   D2A 5396  14.655   4.148   8.460  0.0269 -0.0315  0.1311
  439YOPC   C3A 5397  14.728   4.549   8.234  0.1168 -0.0335  0.1205
  439YOPC   C4A 5398  14.503   4.914   8.201  0.1145 -0.1029  0.0130
  439YOPC   C1B 5399  14.380   4.146   8.948  0.0999  0.4678  0.2075
  439YOPC   C2B 5400  14.168   4.219   8.532 -0.1978 -0.2137 -0.1607
  439YOPC   D3B 5401  13.769   4.325   8.436 -0.0883  0.0205  0.0543
  439YOPC   C4B 5402  13.530   4.005   8.436 -0.1029 -0.2039  0.0205
  440YOPC   NC3 5403  16.878   2.382  10.359  0.5565 -0.1069  0.0361
  440YOPC   PO4 5404  16.440   2.550  10.192  0.1700 -0.0638  0.1017
  440YOPC   GL1 5405  16.505   2.755   9.760  0.2329 -0.3523 -0.2453
  440YOPC   GL2 5406  16.747   2.896   9.753 -0.0559 -0.1452 -0.0396
  440YOPC   C1A 5407  16.587   2.722   9.321  0.2447 -0.0737  0.0998
  440YOPC   D2A 5408  16.504   2.746   8.765 -0.0082  0.1297 -0.1518
  440YOPC   C3A 5409  16.349   2.773   8.379  0.2686 -0.1174  0.1661
  440YOPC   C4A 5410  16.184   2.490   8.160 -0.0029 -0.0733 -0.0694
  440YOPC   C1B 5411  16.994   2.981   9.414 -0.3506 -0.0564 -0.0206
  440YOPC   C2B 5412  17.130   2.926   8.922  0.0014  0.3834  0.1263
  440YOPC   D3B 5413  16.954   2.872   8.491  0.2386 -0.1135 -0.1368
  440YOPC   C4B 5414  16.734   3.048   8.228 -0.0799 -0.1837  0.2068
  441YOPC   NC3 5415  15.773  10.500  10.928 -0.1241  0.1071 -0.3098
  441YOPC   PO4 5416  15.575  10.227  10.681  0.1821 -0.1646 -0.1071
  441YOPC   GL1 5417  15.497  10.104  10.276  0.1942 -0.0568 -0.3956
  441YOPC   GL2 5418  15.283  10.292  10.121  0.0842  0.0511  0.0377
  441YOPC   C1A 5419  15.641  10.283   9.799  0.0797 -0.1767  0.0747
  441YOPC   D2A 5420  15.892  10.493   9.432 -0.2595 -0.1791 -0.1856
  441YOPC   C3A 5421  15.677  10.663   9.417  0.1214  0.3088  0.2254
  441YOPC   C4A 5422  15.278  10.546   9.298 -0.2107  0.0085  0.2194
  441YOPC   C1B 5423  15.204  10.518   9.771  0.0100  0.0559  0.0109
  441YOPC   C2B 5424  14.875  10.816   9.659  0.1839  0.0494  0.3583
  441YOPC   D3B 5425  14.874  10.902   9.255  0.1310 -0.0956 -0.0150
  441YOPC   C4B 5426  14.957  10.992   8.732 -0.2894 -0.0941  0.1890
  442YOPC   NC3 5427  16.482  13.713  10.653  0.0829  0.0040  0.0279
  442YOPC   PO4 5428  16.156  13.556  10.597  0.0846  0.2974  0.1512
  442YOPC   GL1 5429  15.812  13.284  10.494  0.0804 -0.1520  0.3064
  442YOPC   GL2 5430  15.586  13.321  10.262 -0.1723 -0.1240 -0.0588
  442YOPC   C1A 5431  15.780  12.856  10.419 -0.2973 -0.0217 -0.1159
  442YOPC   D2A 5432  15.893  12.413  10.443  0.0087 -0.0682  0.0066
  442YOPC   C3A 5433  15.686  12.119  10.167 -0.0220  0.1367  0.0838
  442YOPC   C4A 5434  15.883  11.723  10.176  0.0044 -0.0324 -0.0644
  442YOPC   C1B 5435  15.787  13.044   9.940 -0.0945  0.2182 -0.1006
  442YOPC   C2B 5436  15.817  12.995   9.602 -0.0957  0.3539 -0.1449
  442YOPC   D3B 5437  15.787  12.733   9.206 -0.2432 -0.1584 -0.1333
  442YOPC   C4B 5438  15.988  12.611   8.833  0.0953 -0.3272  0.1769
  443YOPC   NC3 5439  17.991  10.496  10.738  0.0354  0.3011 -0.0563
  443YOPC   PO4 5440  17.594  10.479  10.520 -0.1630  0.1481  0.1838
  443YOPC   GL1 5441  17.556  10.606  10.040  0.1234  0.3490  0.0903
  443YOPC   GL2 5442  17.570  10.890  10.017 -0.1415  0.1004 -0.0708
  443YOPC   C1A 5443  17.600  10.513   9.577 -0.0932 -0.0261  0.0910
  443YOPC   D2A 5444  17.546  10.568   9.124 -0.0310 -0.0796  0.0373
  443YOPC   C3A 5445  17.258  10.774   8.873  0.2207 -0.0604 -0.0129
  443YOPC   C4A 5446  16.965  10.819   8.667  0.2278  0.1623  0.2289
  443YOPC   C1B 5447  17.055  11.142  10.025 -0.2554 -0.0482  0.2647
  443YOPC   C2B 5448  16.665  10.983   9.983 -0.2940  0.1283 -0.6205
  443YOPC   D3B 5449  16.248  11.017  10.048  0.2530 -0.0472  0.0926
  443YOPC   C4B 5450  15.812  11.143  10.254 -0.1817 -0.1231 -0.2179
  444YOPC   NC3 5451   7.151   3.232  10.411  0.0862  0.2737  0.0710
  444YOPC   PO4 5452   6.904   3.294  10.058  0.0099  0.2305 -0.0248
  444YOPC   GL1 5453   6.817   3.504   9.635 -0.2873  0.0357  0.3691
  444YOPC   GL2 5454   7.139   3.698   9.622  0.2763  0.1306 -0.0226
  444YOPC   C1A 5455   6.788   3.682   9.150  0.1600 -0.0915 -0.0915
  444YOPC   D2A 5456   6.838   3.773   8.775 -0.3535 -0.2701  0.0884
  444YOPC   C3A 5457   7.112   3.727   8.423  0.1351  0.2215 -0.3115
  444YOPC   C4A 5458   7.444   3.830   8.371  0.1159 -0.0364  0.0769
  444YOPC   C1B 5459   7.566   3.476   9.564 -0.0840  0.3655  0.0047
  444YOPC   C2B 5460   7.557   3.099   9.169 -0.0547 -0.2139 -0.1525
  444YOPC   D3B 5461   7.348   2.868   8.874 -0.0733 -0.1160  0.0962
  444YOPC   C4B 5462   7.094   2.850   8.486  0.1332 -0.1858  0.2876
  445YOPC   NC3 5463  10.081  12.370   9.943  0.0577 -0.2648  0.3499
  445YOPC   PO4 5464  10.530  12.146   9.996  0.0257  0.1814 -0.0030
  445YOPC   GL1 5465  10.887  12.082   9.717  0.2734 -0.0211 -0.2633
  445YOPC   GL2 5466  11.032  11.827   9.703  0.0823 -0.1139  0.0493
  445YOPC   C1A 5467  11.382  12.085   9.480 -0.2451  0.0167  0.2152
  445YOPC   D2A 5468  11.694  12.250   9.282  0.0167 -0.1813 -0.0218
  445YOPC   C3A 5469  11.813  12.010   8.902  0.3075 -0.1192  0.0582
  445YOPC   C4A 5470  11.714  11.577   8.683  0.1883  0.1273  0.0066
  445YOPC   C1B 5471  11.284  11.508   9.533  0.0534  0.0423  0.2125
  445YOPC   C2B 5472  11.471  11.292   9.309  0.0756 -0.4418  0.0971
  445YOPC   D3B 5473  11.421  11.233   8.911 -0.0384 -0.2658  0.2897
  445YOPC   C4B 5474  11.185  11.389   8.605  0.0196  0.3300 -0.2248
  446YOPC   NC3 5475   1.390  11.968  10.290 -0.0710  0.0642  0.1238
  446YOPC   PO4 5476   1.193  12.377  10.198  0.0503  0.1935 -0.0956
  446YOPC   GL1 5477   1.062  12.396   9.833  0.0020  0.1212  0.2409
  446YOPC   GL2 5478   0.752  12.534   9.618  0.1262  0.1055  0.1024
  446YOPC   C1A 5479   1.246  12.679   9.519  0.1612  0.1371 -0.2558
  446YOPC   D2A 5480   1.194  12.668   9.107  0.0728  0.2610  0.1121
  446YOPC   C3A 5481   0.972  12.808   8.706  0.0013  0.0493  0.2800
  446YOPC   C4A 5482   0.786  12.636   8.222 -0.0557  0.0448 -0.1169
  446YOPC   C1B 5483   0.718  12.810   9.242 -0.1555 -0.1457 -0.0547
  446YOPC   C2B 5484   0.548  12.947   8.948  0.3335  0.0649  0.2994
  446YOPC   D3B 5485   0.319  12.725   8.606 -0.0672 -0.1162  0.2594
  446YOPC   C4B 5486   0.232  12.591   8.203  0.2073 -0.3826 -0.2271
  447YOPC   NC3 5487   4.271   9.465  10.145 -0.0262 -0.2159  0.2412
  447YOPC   PO4 5488   4.302   9.936  10.002  0.0520 -0.2479 -0.1087
  447YOPC   GL1 5489   4.602   9.712   9.760 -0.0490  0.1078  0.0844
  447YOPC   GL2 5490   4.546   9.416   9.706  0.3993  0.0622 -0.0299
  447YOPC   C1A 5491   4.893   9.735   9.501  0.1388 -0.2420  0.1411
  447YOPC   D2A 5492   5.016  10.076   9.233  0.0005 -0.1375  0.0772
  447YOPC   C3A 5493   4.790  10.327   8.949 -0.1333 -0.0689 -0.2500
  447YOPC   C4A 5494   4.463  10.438   8.697  0.0221 -0.1216 -0.4744
  447YOPC   C1B 5495   4.644   9.263   9.339  0.0643 -0.1201  0.2064
  447YOPC   C2B 5496   4.570   9.437   8.923 -0.2263  0.1334 -0.0482
  447YOPC   D3B 5497   4.091   9.593   8.962  0.0882 -0.2007  0.2652
  447YOPC   C4B 5498   3.719   9.473   9.225  0.1271  0.0810  0.2240
  448YOPC   NC3 5499  18.175   9.690  10.456 -0.1567  0.0183 -0.0879
  448YOPC   PO4 5500  18.533   9.360  10.295  0.2332 -0.0185  0.1998
  448YOPC   GL1 5501  18.284   9.299   9.943  0.1251  0.3545  0.2000
  448YOPC   GL2 5502  18.014   9.103   9.935 -0.0652  0.0834 -0.0452
  448YOPC   C1A 5503  18.108   9.477   9.475  0.0145  0.0306  0.0335
  448YOPC   D2A 5504  17.894   9.635   9.111  0.0803 -0.2300  0.2232
  448YOPC   C3A 5505  17.838   9.302   8.724 -0.2777 -0.4081 -0.1187
  448YOPC   C4A 5506  17.792   9.024   8.383  0.5900 -0.2968 -0.1964
  448YOPC   C1B 5507  18.257   8.981   9.582  0.3201  0.0846 -0.0296
  448YOPC   C2B 5508  18.379   8.707   9.251  0.0860  0.1843  0.1666
  448YOPC   D3B 5509  17.968   8.442   9.076  0.0165 -0.0819  0.1539
  448YOPC   C4B 5510  17.597   8.282   8.872  0.0986 -0.1290  0.0746
  449YOPC   NC3 5511   1.868   8.573  10.579 -0.0469  0.0466  0.1232
  449YOPC   PO4 5512   1.659   8.415  10.150  0.0251  0.1792  0.1484
  449YOPC   GL1 5513   1.393   8.456   9.801 -0.0092  0.1647  0.0984
  449YOPC   GL2 5514   1.055   8.387   9.754 -0.1917 -0.1164 -0.2488
  449YOPC   C1A 5515   1.434   8.185   9.443 -0.0401 -0.1881  0.1405
  449YOPC   D2A 5516   1.486   8.094   9.039  0.1100  0.2543  0.0586
  449YOPC   C3A 5517   1.850   8.352   8.823 -0.0535  0.1481  0.0746
  449YOPC   C4A 5518   2.103   8.285   8.572  0.1976  0.0115  0.2477
  449YOPC   C1B 5519   0.890   8.179   9.390 -0.1909 -0.1312  0.3214
  449YOPC   C2B 5520   0.850   7.956   8.959  0.4271 -0.3262 -0.2073
  449YOPC   D3B 5521   0.961   7.799   8.576 -0.3961 -0.1395 -0.1348
  449YOPC   C4B 5522   1.146   7.454   8.432  0.0629  0.1999 -0.0689
  450YOPC   NC3 5523  17.874   8.326  10.395  0.0198  0.0298 -0.0989
  450YOPC   PO4 5524  17.939   8.689  10.173 -0.3171 -0.0468 -0.0735
  450YOPC   GL1 5525  17.810   8.461   9.861  0.0808 -0.0420  0.0444
  450YOPC   GL2 5526  17.977   8.232   9.949  0.1454  0.2045 -0.1150
  450YOPC   C1A 5527  18.148   8.379   9.527 -0.0724  0.1748  0.0054
  450YOPC   D2A 5528  18.447   8.197   9.210  0.0322 -0.1553 -0.2009
  450YOPC   C3A 5529  18.555   8.394   8.790 -0.0092  0.4307  0.0102
  450YOPC   C4A 5530  18.748   8.472   8.532  0.3394  0.1848  0.0265
  450YOPC   C1B 5531  17.786   7.901   9.782  0.4320  0.0996  0.1959
  450YOPC   C2B 5532  17.456   7.724   9.529 -0.3022  0.0084  0.0545
  450YOPC   D3B 5533  17.411   7.943   9.137  0.0993  0.0595 -0.0153
  450YOPC   C4B 5534  17.267   7.930   8.691 -0.2170 -0.2272  0.6153
  451YOPC   NC3 5535  11.113   2.323  10.445 -0.5633  0.5033 -0.0252
  451YOPC   PO4 5536  11.137   1.999  10.045 -0.1031  0.0967  0.0068
  451YOPC   GL1 5537  11.150   2.072   9.640  0.2856 -0.3496  0.1582
  451YOPC   GL2 5538  11.299   1.780   9.610 -0.2082 -0.0344 -0.1730
  451YOPC   C1A 5539  11.190   2.079   9.173 -0.0627  0.0060  0.2979
  451YOPC   D2A 5540  11.301   2.120   8.756  0.3305 -0.0499 -0.2223
  451YOPC   C3A 5541  11.740   2.011   8.697 -0.0293  0.0833 -0.1504
  451YOPC   C4A 5542  12.011   1.751   8.484 -0.2907 -0.1147 -0.0455
  451YOPC   C1B 5543  10.921   1.700   9.348 -0.3638 -0.1547 -0.1246
  451YOPC   C2B 5544  10.856   1.752   8.850 -0.0016  0.0951  0.1067
  451YOPC   D3B 5545  10.673   1.369   8.617  0.1155 -0.0188  0.0154
  451YOPC   C4B 5546  10.322   1.050   8.455 -0.0227  0.1282  0.0495
  452YOPC   NC3 5547   2.142  10.484  10.215 -0.2873  0.1402 -0.1237
  452YOPC   PO4 5548   2.023  10.148   9.903  0.0388 -0.1562  0.3258
  452YOPC   GL1 5549   1.748  10.161   9.536  0.2731  0.0682  0.0343
  452YOPC   GL2 5550   1.467   9.855   9.505 -0.0955 -0.3411 -0.0421
  452YOPC   C1A 5551   1.773  10.441   9.215  0.5870  0.0858  0.0769
  452YOPC   D2A 5552   1.590  10.411   8.787 -0.3323  0.0054  0.4008
  452YOPC   C3A 5553   1.643  10.250   8.423 -0.2084  0.1871  0.0386
  452YOPC   C4A 5554   1.679  10.103   7.939 -0.2546  0.1560 -0.2294
  452YOPC   C1B 5555   1.600   9.709   9.097 -0.0213 -0.2373  0.1212
  452YOPC   C2B 5556   1.468   9.731   8.677 -0.3448  0.2128  0.2047
  452YOPC   D3B 5557   1.565   9.463   8.421  0.1916 -0.2557 -0.0381
  452YOPC   C4B 5558   1.517   9.119   8.190 -0.0574  0.1192  0.1009
  453YOPC   NC3 5559   0.048  12.740  10.490  0.0360  0.1240 -0.0442
  453YOPC   PO4 5560   0.102  12.608  10.158  0.1492 -0.1719  0.1268
  453YOPC   GL1 5561  -0.109  12.726   9.709 -0.2580 -0.0437 -0.0400
  453YOPC   GL2 5562  -0.418  12.565   9.671  0.1949  0.1342  0.2561
  453YOPC   C1A 5563   0.093  12.842   9.268 -0.0883  0.0573 -0.1469
  453YOPC   D2A 5564   0.001  12.868   8.947 -0.0514 -0.2126 -0.0154
  453YOPC   C3A 5565  -0.241  13.175   8.836  0.3463 -0.3049 -0.0952
  453YOPC   C4A 5566  -0.370  13.242   8.479 -0.1906 -0.0056  0.2015
  453YOPC   C1B 5567  -0.254  12.436   9.313  0.0291 -0.2280 -0.1316
  453YOPC   C2B 5568  -0.219  12.471   8.835 -0.0649  0.0540  0.1176
  453YOPC   D3B 5569  -0.400  12.374   8.557  0.4167  0.0637 -0.2741
  453YOPC   C4B 5570  -0.250  12.255   8.186 -0.0769  0.1877  0.2963
  454YOPC   NC3 5571   2.035   7.177   9.927 -0.0288  0.2771 -0.1362
  454YOPC   PO4 5572   2.253   6.826  10.020 -0.1333 -0.1052 -0.0853
  454YOPC   GL1 5573   2.378   7.067   9.552 -0.1478  0.1185 -0.1018
  454YOPC   GL2 5574   2.665   7.145   9.474 -0.0678  0.0521 -0.0104
  454YOPC   C1A 5575   1.948   6.982   9.277 -0.2467  0.6365 -0.1092
  454YOPC   D2A 5576   1.743   6.882   8.829 -0.1516  0.2200  0.2796
  454YOPC   C3A 5577   1.434   6.617   8.899  0.3770  0.2385  0.0362
  454YOPC   C4A 5578   0.923   6.529   8.805 -0.1774  0.0083  0.0556
  454YOPC   C1B 5579   2.760   7.456   9.087  0.2770 -0.1450  0.5109
  454YOPC   C2B 5580   2.825   7.783   8.909  0.2711  0.0469 -0.0944
  454YOPC   D3B 5581   2.926   7.981   8.447 -0.0735 -0.0149 -0.2080
  454YOPC   C4B 5582   3.075   7.787   8.176 -0.0590  0.0470 -0.1870
  455YOPC   NC3 5583   2.718  14.583   9.983 -0.0859 -0.1066 -0.6041
  455YOPC   PO4 5584   2.697  14.075   9.958 -0.3502 -0.4121  0.0869
  455YOPC   GL1 5585   2.846  14.068   9.639  0.1721 -0.2107 -0.2008
  455YOPC   GL2 5586   2.677  13.760   9.567 -0.2387 -0.2265 -0.2396
  455YOPC   C1A 5587   3.000  13.998   9.138 -0.2511  0.2424 -0.0236
  455YOPC   D2A 5588   3.262  14.275   8.768 -0.1809 -0.0679  0.0272
  455YOPC   C3A 5589   3.104  14.247   8.413 -0.2757 -0.0905 -0.1675
  455YOPC   C4A 5590   3.056  14.128   8.169 -0.1078 -0.1561  0.0045
  455YOPC   C1B 5591   2.564  13.378   9.354 -0.2644  0.1983 -0.0474
  455YOPC   C2B 5592   2.520  13.225   8.965  0.0949 -0.0021 -0.2037
  455YOPC   D3B 5593   2.642  13.320   8.463  0.2820 -0.3120 -0.1430
  455YOPC   C4B 5594   2.791  13.207   7.993  0.0110 -0.2744  0.0309
  456YOPC   NC3 5595  16.112   5.995  11.200  0.0312 -0.1989 -0.0301
  456YOPC   PO4 5596  15.998   5.965  10.708  0.3057  0.0675  0.1718
  456YOPC   GL1 5597  16.125   6.136  10.357  0.4283  0.0221  0.0149
  456YOPC   GL2 5598  16.212   6.475  10.344  0.0038 -0.1377 -0.2167
  456YOPC   C1A 5599  16.315   6.049  10.019 -0.0147 -0.0261  0.0223
  456YOPC   D2A 5600  16.494   6.419   9.828 -0.1489  0.1943  0.0540
  456YOPC   C3A 5601  16.704   6.858   9.656  0.1229  0.2076 -0.2089
  456YOPC   C4A 5602  16.935   7.278   9.642  0.0021  0.0037 -0.0306
  456YOPC   C1B 5603  15.974   6.575   9.964  0.2486 -0.0576  0.2900
  456YOPC   C2B 5604  15.604   6.539   9.738 -0.1545 -0.0308  0.0498
  456YOPC   D3B 5605  15.366   6.137   9.838  0.1162 -0.0001  0.1091
  456YOPC   C4B 5606  14.983   5.894   9.904 -0.2475 -0.3465 -0.0902
  457YOPC   NC3 5607   2.381   9.563  10.421 -0.1990 -0.0775  0.0117
  457YOPC   PO4 5608   1.917   9.551  10.109  0.0690 -0.0378 -0.0769
  457YOPC   GL1 5609   1.772   9.253   9.801  0.0974 -0.5649 -0.2894
  457YOPC   GL2 5610   1.493   9.384   9.886  0.0639 -0.0639  0.1184
  457YOPC   C1A 5611   1.668   9.312   9.406  0.2361 -0.2937  0.1053
  457YOPC   D2A 5612   1.664   9.243   8.949 -0.2625 -0.0644 -0.0673
  457YOPC   C3A 5613   1.397   9.094   8.738  0.0409  0.1370  0.2043
  457YOPC   C4A 5614   1.171   8.864   8.461  0.4627  0.0093 -0.2584
  457YOPC   C1B 5615   1.201   9.370   9.532 -0.0599  0.1342  0.0991
  457YOPC   C2B 5616   1.171   9.307   9.153 -0.0552  0.3233  0.0206
  457YOPC   D3B 5617   0.954   9.338   8.780  0.2074 -0.3162 -0.2841
  457YOPC   C4B 5618   0.642   9.220   8.503  0.0176  0.0574  0.1126
  458YOPC   NC3 5619   6.516   7.383  10.207  0.1700  0.0241 -0.2289
  458YOPC   PO4 5620   6.210   7.192  10.084 -0.0957  0.0663 -0.2035
  458YOPC   GL1 5621   6.152   7.287   9.733 -0.1765 -0.0196  0.0835
  458YOPC   GL2 5622   6.223   7.659   9.794 -0.1521 -0.0143  0.2511
  458YOPC   C1A 5623   6.209   7.275   9.314  0.0866 -0.0691 -0.1431
  458YOPC   D2A 5624   6.097   7.519   9.007 -0.0039  0.1281 -0.3726
  458YOPC   C3A 5625   6.340   7.489   8.697  0.0499  0.0064  0.2201
  458YOPC   C4A 5626   6.500   7.505   8.268 -0.3591  0.1721  0.0439
  458YOPC   C1B 5627   6.108   7.836   9.392 -0.1266 -0.2224 -0.3102
  458YOPC   C2B 5628   5.848   7.918   8.896  0.0327 -0.2208  0.2386
  458YOPC   D3B 5629   5.715   7.768   8.577 -0.1339  0.1129  0.0792
  458YOPC   C4B 5630   5.417   7.622   8.410  0.2253 -0.0677 -0.2372
  459YOPC   NC3 5631   7.381   0.918  10.262  0.0667 -0.1380 -0.3535
  459YOPC   PO4 5632   7.703   1.098  10.020 -0.0043  0.0643  0.1296
  459YOPC   GL1 5633   7.256   1.193   9.824 -0.2047 -0.0468 -0.1111
  459YOPC   GL2 5634   7.600   1.391   9.567 -0.0272  0.2974 -0.0354
  459YOPC   C1A 5635   7.210   1.635   9.695  0.1759  0.1835 -0.0784
  459YOPC   D2A 5636   6.915   1.922   9.479  0.0924 -0.1638 -0.3409
  459YOPC   C3A 5637   6.832   1.972   9.026 -0.0713 -0.2947 -0.1641
  459YOPC   C4A 5638   6.601   1.964   8.618 -0.5469 -0.1628  0.0904
  459YOPC   C1B 5639   7.277   1.250   9.351 -0.1548  0.0791 -0.0198
  459YOPC   C2B 5640   7.030   0.907   9.062 -0.4378 -0.0553  0.0639
  459YOPC   D3B 5641   6.904   0.772   8.635 -0.0429 -0.2168  0.1362
  459YOPC   C4B 5642   6.744   0.885   8.309  0.0149  0.2137 -0.1871
  460YOPC   NC3 5643  15.221  17.380  10.177 -0.2093 -0.0700 -0.1593
  460YOPC   PO4 5644  14.813  17.568  10.304 -0.3466 -0.0620 -0.1848
  460YOPC   GL1 5645  14.831  17.456   9.844 -0.0457 -0.1767  0.0302
  460YOPC   GL2 5646  15.035  17.556   9.591  0.0865 -0.2907  0.2670
  460YOPC   C1A 5647  14.551  17.228   9.603 -0.1756 -0.0601  0.4340
  460YOPC   D2A 5648  14.244  17.337   9.297 -0.0398  0.3391  0.0629
  460YOPC   C3A 5649  14.179  17.265   8.873  0.1128 -0.0891 -0.1781
  460YOPC   C4A 5650  13.845  17.147   8.580  0.0693 -0.2862  0.3930
  460YOPC   C1B 5651  14.845  17.605   9.178 -0.2328 -0.3294  0.3124
  460YOPC   C2B 5652  14.654  17.316   9.029 -0.2338  0.0814  0.0710
  460YOPC   D3B 5653  14.530  17.229   8.572  0.1410  0.0423 -0.2520
  460YOPC   C4B 5654  14.570  17.026   8.112 -0.1958  0.0789 -0.2138
  461YOPC   NC3 5655  10.149   2.667  10.578 -0.0984  0.3215 -0.0574
  461YOPC   PO4 5656  10.138   2.299  10.463 -0.0485 -0.1800 -0.0144
  461YOPC   GL1 5657  10.211   2.157  10.033 -0.0760  0.2207  0.0143
  461YOPC   GL2 5658  10.177   1.806   9.947  0.3060 -0.3870 -0.1806
  461YOPC   C1A 5659  10.113   2.282   9.661 -0.0063  0.1188  0.2747
  461YOPC   D2A 5660  10.125   2.311   9.140  0.1025  0.3436 -0.2021
  461YOPC   C3A 5661  10.282   2.314   8.624 -0.1381 -0.1525 -0.2361
  461YOPC   C4A 5662  10.513   2.347   8.235 -0.1616  0.1513 -0.0365
  461YOPC   C1B 5663  10.261   1.805   9.520  0.2411  0.2248  0.1323
  461YOPC   C2B 5664  10.445   1.794   9.196  0.3205  0.1143  0.1666
  461YOPC   D3B 5665  10.377   1.923   8.850  0.0385 -0.0283 -0.0698
  461YOPC   C4B 5666  10.548   1.814   8.443 -0.1484 -0.2169 -0.5018
  462YOPC   NC3 5667  16.063  16.961  10.040  0.2554  0.0310  0.1443
  462YOPC   PO4 5668  16.190  16.552   9.897  0.2113  0.0293 -0.0329
  462YOPC   GL1 5669  16.184  16.753   9.543  0.2112  0.1091  0.0114
  462YOPC   GL2 5670  15.826  16.611   9.506 -0.0343 -0.1174 -0.2761
  462YOPC   C1A 5671  16.154  16.539   9.144 -0.1493 -0.2077  0.0057
  462YOPC   D2A 5672  15.983  16.484   8.757 -0.1333  0.1912 -0.0267
  462YOPC   C3A 5673  16.280  16.502   8.350  0.1004 -0.1042 -0.2594
  462YOPC   C4A 5674  16.254  16.356   7.999  0.1091 -0.2675  0.2587
  462YOPC   C1B 5675  15.559  16.541   9.102  0.1087 -0.1498  0.0208
  462YOPC   C2B 5676  15.432  16.353   8.827  0.0056  0.1448  0.0806
  462YOPC   D3B 5677  15.595  16.355   8.460 -0.0610  0.0186  0.0004
  462YOPC   C4B 5678  15.722  16.499   8.054  0.1512 -0.1316 -0.3761
  463YOPC   NC3 5679   3.782   9.297  10.217 -0.1239 -0.0936 -0.0219
  463YOPC   PO4 5680   3.382   9.441  10.015 -0.2719  0.2841  0.1212
  463YOPC   GL1 5681   3.776   9.676   9.787  0.1773  0.0417 -0.0653
  463YOPC   GL2 5682   4.032   9.555   9.632 -0.0668 -0.2375 -0.1158
  463YOPC   C1A 5683   3.797   9.933   9.374 -0.1958 -0.0417 -0.0302
  463YOPC   D2A 5684   3.786  10.004   9.062 -0.0877 -0.3248 -0.0787
  463YOPC   C3A 5685   4.056  10.168   8.783  0.0257 -0.1963  0.0568
  463YOPC   C4A 5686   4.332  10.405   9.153  0.0533  0.0520  0.0409
  463YOPC   C1B 5687   4.328   9.729   9.354 -0.2840  0.0249  0.1960
  463YOPC   C2B 5688   4.595   9.907   9.101  0.1020  0.1702 -0.0030
  463YOPC   D3B 5689   4.476   9.906   8.713 -0.1852 -0.2568  0.1711
  463YOPC   C4B 5690   4.285  10.024   8.371 -0.2614  0.1507 -0.1134
  464YOPC   NC3 5691  13.110  12.690  10.487 -0.0519 -0.2878 -0.2284
  464YOPC   PO4 5692  12.921  13.120  10.200  0.3214  0.0361  0.0553
  464YOPC   GL1 5693  13.098  13.342   9.901  0.1310 -0.2220  0.0539
  464YOPC   GL2 5694  12.977  13.628   9.946  0.0462  0.1757  0.0391
  464YOPC   C1A 5695  13.521  13.490   9.683 -0.0133 -0.0639  0.0310
  464YOPC   D2A 5696  13.812  13.712   9.427 -0.1321 -0.1509 -0.1046
  464YOPC   C3A 5697  13.881  13.562   8.994 -0.0357 -0.0789 -0.2511
  464YOPC   C4A 5698  14.004  13.383   8.623  0.0556 -0.1253 -0.1806
  464YOPC   C1B 5699  13.094  13.602   9.516  0.1487  0.3353  0.0090
  464YOPC   C2B 5700  12.899  13.755   9.135 -0.0036  0.1792  0.0720
  464YOPC   D3B 5701  13.040  14.157   9.064  0.1263  0.1734  0.1149
  464YOPC   C4B 5702  13.209  14.234   8.664 -0.3486  0.3677 -0.2394
  465YOPC   NC3 5703  12.580  16.291  10.158  0.0284 -0.1671 -0.3097
  465YOPC   PO4 5704  12.473  15.949  10.046  0.1331 -0.3172 -0.0346
  465YOPC   GL1 5705  12.576  15.942   9.711 -0.0309 -0.2974  0.2132
  465YOPC   GL2 5706  12.560  16.237   9.562 -0.0111 -0.1455 -0.3948
  465YOPC   C1A 5707  12.448  15.817   9.265 -0.1938 -0.0197  0.1413
  465YOPC   D2A 5708  12.356  15.764   8.850 -0.1051 -0.0033  0.0379
  465YOPC   C3A 5709  12.090  15.736   8.528  0.3468 -0.2217  0.2813
  465YOPC   C4A 5710  11.884  15.580   8.209 -0.0876  0.2214  0.0425
  465YOPC   C1B 5711  12.680  16.230   9.132  0.2440  0.1689  0.2978
  465YOPC   C2B 5712  12.868  15.873   8.695 -0.0591  0.2645 -0.0620
  465YOPC   D3B 5713  12.614  15.915   8.238  0.1897  0.1251  0.0934
  465YOPC   C4B 5714  12.506  15.761   7.818  0.0964  0.1486  0.1659
  466YOPC   NC3 5715  13.587   4.234  10.120  0.0959 -0.0506 -0.2027
  466YOPC   PO4 5716  13.279   3.986  10.200  0.2343  0.0265  0.0912
  466YOPC   GL1 5717  13.249   3.978   9.838  0.2345  0.0606 -0.0839
  466YOPC   GL2 5718  13.609   3.914   9.782  0.2260 -0.0481  0.1669
  466YOPC   C1A 5719  13.103   3.760   9.435  0.0794  0.0218 -0.0309
  466YOPC   D2A 5720  12.795   3.671   9.157 -0.3253  0.1365  0.1993
  466YOPC   C3A 5721  12.608   3.291   8.864  0.1363  0.1514 -0.3010
  466YOPC   C4A 5722  12.505   2.936   8.538 -0.0772  0.2027  0.0194
  466YOPC   C1B 5723  13.592   3.679   9.541 -0.2394 -0.3048 -0.1441
  466YOPC   C2B 5724  13.587   3.581   9.108 -0.0120  0.1188  0.2281
  466YOPC   D3B 5725  13.976   3.600   8.894 -0.1505 -0.0230  0.0642
  466YOPC   C4B 5726  14.404   3.659   8.913 -0.0657 -0.0057  0.0543
  467YOPC   NC3 5727   0.732  11.216  10.203  0.1361  0.3299 -0.0518
  467YOPC   PO4 5728   0.535  10.852  10.259  0.1402 -0.0528 -0.3722
  467YOPC   GL1 5729   0.357  11.133   9.836 -0.0572 -0.0191 -0.0054
  467YOPC   GL2 5730   0.354  11.474   9.800  0.0866 -0.0493  0.1232
  467YOPC   C1A 5731   0.313  11.198   9.384 -0.3226 -0.3509 -0.0305
  467YOPC   D2A 5732   0.139  11.416   9.035 -0.0756  0.0073 -0.2629
  467YOPC   C3A 5733   0.061  11.192   8.660 -0.0943 -0.0092 -0.1934
  467YOPC   C4A 5734  -0.059  10.878   8.504 -0.0481  0.0172 -0.0821
  467YOPC   C1B 5735   0.314  11.738   9.431  0.0786  0.0303  0.1028
  467YOPC   C2B 5736   0.421  11.944   9.092 -0.0083  0.0394  0.1770
  467YOPC   D3B 5737   0.322  11.861   8.740 -0.1372  0.1277  0.2231
  467YOPC   C4B 5738   0.001  11.740   8.432 -0.0641 -0.3319  0.3862
  468YOPC   NC3 5739   6.959  14.953   9.772  0.1621 -0.1163 -0.4286
  468YOPC   PO4 5740   7.021  15.407   9.663 -0.0612  0.2050 -0.1477
  468YOPC   GL1 5741   7.148  15.122   9.351  0.0045  0.0441 -0.0790
  468YOPC   GL2 5742   7.402  15.196   9.080  0.1012  0.0034  0.0052
  468YOPC   C1A 5743   7.213  14.759   9.170  0.1493 -0.0874  0.3237
  468YOPC   D2A 5744   7.108  14.544   8.711  0.3808 -0.1886 -0.0121
  468YOPC   C3A 5745   7.408  14.353   8.432 -0.2199  0.1713  0.0254
  468YOPC   C4A 5746   7.810  14.084   8.213  0.0597  0.5075  0.1568
  468YOPC   C1B 5747   7.188  15.020   8.733  0.0192  0.0619  0.0465
  468YOPC   C2B 5748   7.197  15.094   8.336  0.1287  0.0563 -0.0429
  468YOPC   D3B 5749   7.167  15.515   8.107  0.1929  0.1014  0.1313
  468YOPC   C4B 5750   7.274  15.950   8.237 -0.0544  0.0525  0.0424
  469YOPC   NC3 5751   5.907  11.444  10.137 -0.1746 -0.2246  0.1064
  469YOPC   PO4 5752   6.334  11.348  10.123 -0.2402 -0.1050  0.0321
  469YOPC   GL1 5753   6.217  11.308   9.767 -0.2286  0.2786  0.0382
  469YOPC   GL2 5754   6.348  11.135   9.544  0.2678 -0.3054  0.1399
  469YOPC   C1A 5755   6.084  11.577   9.434 -0.1708 -0.1260 -0.1194
  469YOPC   D2A 5756   6.010  11.700   9.105  0.2143  0.1108  0.2022
  469YOPC   C3A 5757   5.623  11.592   8.926 -0.2364  0.2123  0.1330
  469YOPC   C4A 5758   5.597  11.673   8.559 -0.0091  0.2112  0.2533
  469YOPC   C1B 5759   6.313  11.196   9.077  0.2289 -0.0424 -0.1538
  469YOPC   C2B 5760   6.126  11.385   8.744  0.1296 -0.1359  0.1223
  469YOPC   D3B 5761   5.971  11.287   8.388 -0.0638  0.0881  0.0073
  469YOPC   C4B 5762   5.773  10.894   8.183  0.0901 -0.1605  0.2052
  470ERGO   ROH 5763   1.364   8.881   9.946 -0.1898  0.1410 -0.0653
  470ERGO    R1 5764   1.325   8.907   9.666 -0.1963  0.0440 -0.0737
  470ERGO    R2 5765   1.527   8.862   9.483 -0.1476  0.1674 -0.0493
  470ERGO    R3 5766   1.346   8.690   9.375 -0.0015 -0.0088 -0.0234
  470ERGO    R4 5767   1.501   8.787   9.147  0.0588 -0.0660 -0.0166
  470ERGO    R5 5768   1.284   8.792   9.167  0.0402 -0.1745 -0.1224
  470ERGO    C1 5769   1.316   8.583   8.849  0.3161 -0.3673  0.0267
  470ERGO    C2 5770   1.087   8.319   8.617  0.2186  0.2619 -0.1441
  471ERGO   ROH 5771   9.635   9.802   9.881  0.0745 -0.3504  0.0616
  471ERGO    R1 5772   9.463   9.695   9.684 -0.0180 -0.0586 -0.0213
  471ERGO    R2 5773   9.295   9.853   9.531  0.3094  0.2305 -0.0947
  471ERGO    R3 5774   9.420   9.728   9.324  0.2011  0.0290 -0.0407
  471ERGO    R4 5775   9.170   9.828   9.210  0.2655  0.1545 -0.0716
  471ERGO    R5 5776   9.243   9.623   9.202  0.1134  0.0952  0.0290
  471ERGO    C1 5777   9.214   9.695   8.829  0.1382 -0.0788 -0.0074
  471ERGO    C2 5778   9.306   9.893   8.507 -0.0733 -0.1364 -0.0352
  472ERGO   ROH 5779  14.454  16.245   9.997  0.2483  0.2949 -0.0687
  472ERGO    R1 5780  14.341  16.366   9.767  0.0656  0.2548 -0.0016
  472ERGO    R2 5781  14.380  16.266   9.512  0.0698  0.3519 -0.0363
  472ERGO    R3 5782  14.108  16.270   9.505  0.0612  0.1170  0.0509
  472ERGO    R4 5783  14.189  16.344   9.234 -0.0773  0.4395  0.0870
  472ERGO    R5 5784  14.054  16.455   9.364 -0.1423  0.2048  0.2328
  472ERGO    C1 5785  13.824  16.393   9.066 -0.1711  0.2701  0.2406
  472ERGO    C2 5786  13.639  16.339   8.884  0.0499  0.2873  0.0057
  473ERGO   ROH 5787   4.084  17.213   9.707  0.3850  0.0513 -0.0899
  473ERGO    R1 5788   4.136  17.175   9.431  0.1939  0.1381 -0.1390
  473ERGO    R2 5789   4.022  16.971   9.285  0.1957  0.1011 -0.0938
  473ERGO    R3 5790   3.941  17.174   9.124 -0.0460  0.0924  0.0117
  473ERGO    R4 5791   4.008  16.955   8.940  0.1847  0.2648 -0.1019
  473ERGO    R5 5792   4.085  17.159   8.933 -0.0462  0.3538 -0.0086
  473ERGO    C1 5793   3.924  17.136   8.588 -0.0486  0.3516 -0.0076
  473ERGO    C2 5794   3.685  17.141   8.274 -0.2642 -0.0179 -0.3465
  474ERGO   ROH 5795   0.173   3.393   9.821  0.1895  0.0253  0.0951
  474ERGO    R1 5796   0.304   3.401   9.570  0.1539  0.0527  0.0772
  474ERGO    R2 5797   0.216   3.559   9.361  0.0668  0.0014  0.0745
  474ERGO    R3 5798   0.471   3.653   9.367  0.0324  0.0984  0.0333
  474ERGO    R4 5799   0.410   3.618   9.081  0.0726 -0.1280  0.0506
  474ERGO    R5 5800   0.581   3.535   9.189  0.0926  0.0105  0.1276
  474ERGO    C1 5801   0.762   3.741   8.923  0.0437 -0.1123 -0.0020
  474ERGO    C2 5802   0.967   3.836   8.595  0.2587 -0.0925 -0.2689
  475ERGO   ROH 5803   4.711   7.482   9.615  0.3768 -0.0077  0.2351
  475ERGO    R1 5804   4.724   7.449   9.334  0.0310  0.0059  0.2131
  475ERGO    R2 5805   4.926   7.560   9.180 -0.1249 -0.0352 -0.0231
  475ERGO    R3 5806   4.958   7.304   9.096 -0.2881 -0.0377 -0.0826
  475ERGO    R4 5807   5.060   7.467   8.876 -0.0844 -0.0469 -0.0020
  475ERGO    R5 5808   4.909   7.311   8.862 -0.2000  0.0682 -0.1002
  475ERGO    C1 5809   5.168   7.172   8.619 -0.2141 -0.0560 -0.0456
  475ERGO    C2 5810   5.330   7.049   8.454  0.0349 -0.1987  0.0682
  476ERGO   ROH 5811   0.650   9.359   9.630  0.0403  0.1439 -0.0614
  476ERGO    R1 5812   0.639   9.431   9.357  0.0438  0.1309 -0.0638
  476ERGO    R2 5813   0.512   9.276   9.167  0.0855  0.1034 -0.0612
  476ERGO    R3 5814   0.379   9.507   9.114  0.0466  0.0765 -0.0862
  476ERGO    R4 5815   0.351   9.346   8.870  0.2628  0.1238 -0.1549
  476ERGO    R5 5816   0.426   9.550   8.883  0.1916  0.1502 -0.0482
  476ERGO    C1 5817   0.131   9.603   8.646  0.3295  0.1105 -0.2331
  476ERGO    C2 5818   0.011   9.584   8.386  0.1501 -0.0479  0.0066
  477ERGO   ROH 5819   2.750  14.820   9.451 -0.1263  0.0063  0.0813
  477ERGO    R1 5820   2.543  14.783   9.262 -0.0166 -0.1596 -0.0090
  477ERGO    R2 5821   2.492  14.963   9.059 -0.2655 -0.0383  0.1537
  477ERGO    R3 5822   2.517  14.743   8.901  0.1507  0.1518 -0.0581
  477ERGO    R4 5823   2.297  14.897   8.782 -0.4298 -0.3334  0.3345
  477ERGO    R5 5824   2.292  14.687   8.842  0.2166 -0.4152  0.1716
  477ERGO    C1 5825   2.207  14.653   8.471 -0.1346 -0.3266  0.2410
  477ERGO    C2 5826   2.189  14.562   8.203 -0.0665  0.2705  0.0669
  478ERGO   ROH 5827   1.692   1.442   9.893 -0.0559  0.3045 -0.1123
  478ERGO    R1 5828   1.795   1.430   9.629 -0.0558  0.3010 -0.1126
  478ERGO    R2 5829   1.673   1.284   9.429  0.0183  0.1855 -0.0788
  478ERGO    R3 5830   1.680   1.521   9.296 -0.1176  0.1613 -0.1292
  478ERGO    R4 5831   1.615   1.322   9.090  0.1514  0.0653 -0.1160
  478ERGO    R5 5832   1.778   1.468   9.084  0.0301  0.1992 -0.0689
  478ERGO    C1 5833   1.587   1.567   8.769  0.1013 -0.0274 -0.1849
  478ERGO    C2 5834   1.304   1.720   8.535 -0.2085  0.1094 -0.2137
  479ERGO   ROH 5835   8.160  12.202   9.216 -0.0017 -0.0719 -0.0404
  479ERGO    R1 5836   8.289  12.216   8.965  0.0709 -0.0122  0.0003
  479ERGO    R2 5837   8.481  12.033   8.886 -0.0222 -0.0843 -0.0473
  479ERGO    R3 5838   8.318  12.003   8.671  0.0180  0.1315 -0.1116
  479ERGO    R4 5839   8.586  12.035   8.557  0.1287 -0.2804 -0.0030
  479ERGO    R5 5840   8.409  12.151   8.506  0.3147 -0.0169 -0.0932
  479ERGO    C1 5841   8.495  12.008   8.163  0.2543 -0.1919 -0.0374
  479ERGO    C2 5842   8.732  11.983   7.859 -0.0811  0.0404  0.3112
  480ERGO   ROH 5843   6.307   2.116   9.665  0.0279  0.0733  0.1288
  480ERGO    R1 5844   6.262   2.041   9.396  0.0637  0.0251  0.1366
  480ERGO    R2 5845   6.027   1.923   9.311  0.0576  0.0539  0.1180
  480ERGO    R3 5846   6.027   2.127   9.132  0.1305  0.0152  0.0729
  480ERGO    R4 5847   5.891   1.908   8.994 -0.1670  0.1051  0.2097
  480ERGO    R5 5848   6.062   2.021   8.921 -0.1062 -0.0683  0.0716
  480ERGO    C1 5849   5.812   2.091   8.641 -0.2293  0.0986  0.2205
  480ERGO    C2 5850   5.731   1.893   8.431  0.0813  0.0819 -0.2082
  481ERGO   ROH 5851   3.629  12.336   9.248  0.0605  0.1341 -0.0564
  481ERGO    R1 5852   3.506  12.278   9.000 -0.1169 -0.0709  0.0762
  481ERGO    R2 5853   3.634  12.315   8.758 -0.4651  0.2324 -0.0676
  481ERGO    R3 5854   3.567  12.055   8.720  0.0116  0.0946 -0.0316
  481ERGO    R4 5855   3.606  12.161   8.450 -0.8039  0.3304 -0.0899
  481ERGO    R5 5856   3.430  12.056   8.524 -0.4347 -0.0930  0.2594
  481ERGO    C1 5857   3.526  11.826   8.235 -0.5538  0.2582 -0.0692
  481ERGO    C2 5858   3.622  11.581   8.008  0.0177  0.0783  0.0395
  482ERGO   ROH 5859   6.464   4.849   9.303  0.2335 -0.0642 -0.1147
  482ERGO    R1 5860   6.470   4.989   9.057  0.0460 -0.0245 -0.0979
  482ERGO    R2 5861   6.672   4.956   8.872 -0.0659  0.0455 -0.2351
  482ERGO    R3 5862   6.465   4.902   8.703 -0.1646  0.0295 -0.1099
  482ERGO    R4 5863   6.673   5.018   8.531 -0.1628 -0.2260 -0.2871
  482ERGO    R5 5864   6.466   5.085   8.548 -0.1188 -0.0929 -0.2564
  482ERGO    C1 5865   6.480   5.004   8.175 -0.3119 -0.3992 -0.1999
  482ERGO    C2 5866   6.685   4.935   7.872 -0.0145 -0.1953  0.0648
  483ERGO   ROH 5867   3.047   9.198   9.601 -0.1050  0.1052  0.1835
  483ERGO    R1 5868   3.052   9.287   9.333  0.1266  0.1396  0.1960
  483ERGO    R2 5869   3.234   9.194   9.148  0.0510 -0.1215  0.2431
  483ERGO    R3 5870   3.011   9.138   9.003  0.0055  0.2454  0.1636
  483ERGO    R4 5871   3.229   9.140   8.807  0.0855 -0.1560  0.2486
  483ERGO    R5 5872   3.044   9.255   8.797  0.2855  0.1640  0.1613
  483ERGO    C1 5873   3.016   9.057   8.472  0.0630  0.1682  0.1771
  483ERGO    C2 5874   3.224   8.863   8.265 -0.1676 -0.1438 -0.0775
  484ERGO   ROH 5875  13.378  10.275   9.838  0.0456  0.2047  0.1654
  484ERGO    R1 5876  13.247  10.437   9.646 -0.0305  0.0179  0.0586
  484ERGO    R2 5877  13.383  10.607   9.476 -0.1194  0.0651  0.0388
  484ERGO    R3 5878  13.248  10.470   9.284  0.0566 -0.1246  0.0443
  484ERGO    R4 5879  13.391  10.680   9.138 -0.1264 -0.0104  0.0210
  484ERGO    R5 5880  13.177  10.639   9.129 -0.0865 -0.2320 -0.0124
  484ERGO    C1 5881  13.268  10.595   8.761  0.0349 -0.2326  0.0159
  484ERGO    C2 5882  13.201  10.826   8.536  0.1058 -0.1316 -0.0103
  485ERGO   ROH 5883  12.576   8.266   9.476 -0.1081 -0.1625  0.1669
  485ERGO    R1 5884  12.463   8.177   9.233 -0.1026 -0.1460  0.1589
  485ERGO    R2 5885  12.241   8.296   9.118 -0.0540 -0.0920  0.1256
  485ERGO    R3 5886  12.404   8.317   8.902 -0.0234 -0.1507  0.1420
  485ERGO    R4 5887  12.147   8.424   8.812  0.0815  0.1518  0.1822
  485ERGO    R5 5888  12.262   8.266   8.716 -0.0709  0.0790  0.1109
  485ERGO    C1 5889  12.245   8.518   8.430  0.1891  0.2388  0.2308
  485ERGO    C2 5890  12.083   8.618   8.069  0.1418  0.0038 -0.0323
  486ERGO   ROH 5891   6.003  14.051   8.880  0.0315 -0.1330  0.0842
  486ERGO    R1 5892   6.122  13.939   8.649 -0.0007 -0.0915  0.0458
  486ERGO    R2 5893   6.093  14.050   8.398 -0.0797 -0.0731  0.0562
  486ERGO    R3 5894   6.365  14.045   8.399 -0.0793 -0.0214  0.0013
  486ERGO    R4 5895   6.293  14.114   8.123 -0.1369 -0.0678  0.0165
  486ERGO    R5 5896   6.423  13.951   8.186 -0.0976 -0.0305  0.0062
  486ERGO    C1 5897   6.664  14.147   7.964 -0.1698 -0.0161 -0.0580
  486ERGO    C2 5898   6.815  14.230   7.818  0.1918  0.1806 -0.0332
  487ERGO   ROH 5899  14.466   3.637   9.712  0.0841 -0.0748 -0.1049
  487ERGO    R1 5900  14.341   3.485   9.509  0.1286 -0.0102 -0.1833
  487ERGO    R2 5901  14.211   3.247   9.560  0.3118 -0.1516 -0.3214
  487ERGO    R3 5902  14.004   3.370   9.433  0.1858 -0.1925 -0.1567
  487ERGO    R4 5903  13.961   3.083   9.388  0.2945 -0.1822 -0.2656
  487ERGO    R5 5904  13.971   3.239   9.235  0.1389 -0.1121 -0.1966
  487ERGO    C1 5905  13.621   3.102   9.167  0.1662 -0.2385 -0.0782
  487ERGO    C2 5906  13.362   2.969   8.934 -0.1968 -0.2732 -0.0270
  488ERGO   ROH 5907   2.631  11.454   9.687  0.0249  0.0183  0.1037
  488ERGO    R1 5908   2.693  11.412   9.414  0.1153 -0.0556  0.1340
  488ERGO    R2 5909   2.547  11.527   9.209  0.0429 -0.2863  0.0471
  488ERGO    R3 5910   2.790  11.618   9.130 -0.0244 -0.0960  0.0574
  488ERGO    R4 5911   2.633  11.606   8.884  0.0004 -0.2073  0.0554
  488ERGO    R5 5912   2.827  11.514   8.918  0.0667 -0.0570  0.0579
  488ERGO    C1 5913   2.912  11.738   8.620 -0.0875  0.0172  0.0700
  488ERGO    C2 5914   2.971  12.053   8.304  0.0615  0.0481 -0.1156
  489ERGO   ROH 5915   6.478  12.616   9.042  0.0397 -0.1334  0.0277
  489ERGO    R1 5916   6.548  12.610   8.768  0.1397  0.0392  0.0470
  489ERGO    R2 5917   6.809  12.636   8.680  0.1913 -0.0249  0.1631
  489ERGO    R3 5918   6.756  12.403   8.552  0.1165  0.0962 -0.0283
  489ERGO    R4 5919   6.945  12.542   8.377  0.2224  0.1366  0.1272
  489ERGO    R5 5920   6.750  12.462   8.320  0.2036  0.2698  0.0159
  489ERGO    C1 5921   6.974  12.268   8.080  0.1704  0.3443 -0.0735
  489ERGO    C2 5922   6.954  12.038   7.895 -0.3853  0.0593 -0.2850
  490ERGO   ROH 5923  17.794   5.773   9.755 -0.0925  0.0854 -0.1340
  490ERGO    R1 5924  17.634   5.814   9.525 -0.0455  0.2544 -0.1389
  490ERGO    R2 5925  17.709   5.982   9.319  0.1917  0.0977 -0.1880
  490ERGO    R3 5926  17.669   5.761   9.166 -0.1294  0.1089 -0.1259
  490ERGO    R4 5927  17.710   5.979   8.974  0.2338 -0.0109 -0.1869
  490ERGO    R5 5928  17.541   5.841   8.980  0.0172  0.2496 -0.1667
  490ERGO    C1 5929  17.672   5.770   8.629 -0.0431 -0.0637 -0.1281
  490ERGO    C2 5930  17.797   5.887   8.346  0.4203 -0.0056 -0.0621
  491ERGO   ROH 5931   0.811  10.268   9.766 -0.1832 -0.0400 -0.0676
  491ERGO    R1 5932   0.694  10.367   9.528 -0.2031 -0.1112 -0.0884
  491ERGO    R2 5933   0.845  10.457   9.314 -0.2184  0.0209 -0.0482
  491ERGO    R3 5934   0.696  10.277   9.175 -0.0486 -0.0862 -0.0940
  491ERGO    R4 5935   0.782  10.473   8.975 -0.3645  0.1336 -0.0162
  491ERGO    R5 5936   0.577  10.410   9.015 -0.2724 -0.1418  0.0246
  491ERGO    C1 5937   0.605  10.314   8.647 -0.2902  0.0987 -0.0406
  491ERGO    C2 5938   0.775  10.312   8.340 -0.0789  0.1540  0.0136
  492ERGO   ROH 5939   0.364   8.018   9.740 -0.1876  0.1269 -0.0980
  492ERGO    R1 5940   0.273   7.993   9.473  0.1367  0.2150 -0.2216
  492ERGO    R2 5941   0.442   7.933   9.263  0.3240 -0.2119  0.0394
  492ERGO    R3 5942   0.265   7.731   9.220 -0.0366  0.1278 -0.1277
  492ERGO    R4 5943   0.387   7.782   8.957  0.4812 -0.2428  0.0248
  492ERGO    R5 5944   0.173   7.779   9.003  0.3896  0.2221 -0.2975
  492ERGO    C1 5945   0.188   7.505   8.738  0.2341  0.0582 -0.1406
  492ERGO    C2 5946   0.152   7.275   8.521 -0.2694 -0.0805  0.0195
  493ERGO   ROH 5947  16.339  13.687  10.134 -0.0092 -0.0460 -0.0351
  493ERGO    R1 5948  16.570  13.575  10.014  0.0420  0.0611 -0.0373
  493ERGO    R2 5949  16.609  13.571   9.740  0.0832  0.1592 -0.0338
  493ERGO    R3 5950  16.842  13.694   9.804  0.0370  0.2097  0.0390
  493ERGO    R4 5951  16.876  13.612   9.525  0.1575  0.1794  0.0616
  493ERGO    R5 5952  17.010  13.567   9.690  0.1035  0.2252  0.1186
  493ERGO    C1 5953  17.250  13.751   9.459  0.1576  0.2387  0.1855
  493ERGO    C2 5954  17.461  13.849   9.341  0.0379 -0.2933 -0.2950
  494ERGO   ROH 5955  17.746   3.375   9.654  0.2962  0.3871  0.0476
  494ERGO    R1 5956  17.795   3.535   9.426  0.3514  0.1739 -0.0915
  494ERGO    R2 5957  17.930   3.440   9.204  0.0870 -0.1472 -0.1171
  494ERGO    R3 5958  17.708   3.525   9.073  0.1077  0.0491 -0.0312
  494ERGO    R4 5959  17.899   3.458   8.860 -0.0588 -0.2206 -0.1095
  494ERGO    R5 5960  17.793   3.647   8.885  0.1503 -0.0951 -0.1113
  494ERGO    C1 5961  17.672   3.548   8.537 -0.1242 -0.0790 -0.0245
  494ERGO    C2 5962  17.649   3.414   8.258  0.1000 -0.1101 -0.0530
  495ERGO   ROH 5963  18.116  14.874   9.954 -0.0292 -0.0722 -0.0478
  495ERGO    R1 5964  18.063  14.727   9.718  0.2705 -0.1720 -0.0568
  495ERGO    R2 5965  17.910  14.828   9.512  0.1012 -0.4521 -0.0689
  495ERGO    R3 5966  18.128  14.767   9.362  0.2397 -0.0441 -0.0496
  495ERGO    R4 5967  17.911  14.800   9.168  0.2465 -0.2072 -0.0918
  495ERGO    R5 5968  18.042  14.627   9.187  0.4844 -0.0447 -0.1762
  495ERGO    C1 5969  18.116  14.726   8.826  0.4612  0.3182 -0.0870
  495ERGO    C2 5970  18.054  14.780   8.438  0.0744 -0.0027 -0.2630
  496ERGO   ROH 5971   9.879   7.240   9.925  0.0620  0.1727 -0.0352
  496ERGO    R1 5972  10.002   7.158   9.683 -0.0483  0.0650 -0.0557
  496ERGO    R2 5973   9.861   7.037   9.478 -0.1671  0.0899  0.0101
  496ERGO    R3 5974   9.968   7.238   9.330 -0.1152  0.0091 -0.0622
  496ERGO    R4 5975   9.857   7.052   9.133 -0.0816 -0.0801  0.0004
  496ERGO    R5 5976  10.061   7.129   9.138 -0.0765 -0.0932  0.0134
  496ERGO    C1 5977   9.955   7.250   8.793  0.0170 -0.2549 -0.0731
  496ERGO    C2 5978   9.838   7.222   8.540  0.2039  0.0558 -0.0368
  497ERGO   ROH 5979  11.334  18.361   9.473  0.3491 -0.0995  0.2219
  497ERGO    R1 5980  11.316  18.551   9.264  0.1675 -0.1220  0.2182
  497ERGO    R2 5981  11.439  18.798   9.276  0.1154 -0.1000  0.1175
  497ERGO    R3 5982  11.546  18.720   9.039 -0.0212 -0.0841  0.0461
  497ERGO    R4 5983  11.533  19.012   9.021  0.2674 -0.0407  0.2205
  497ERGO    R5 5984  11.452  18.870   8.878  0.0812  0.1123  0.1534
  497ERGO    C1 5985  11.689  19.063   8.650  0.2277  0.0088  0.2133
  497ERGO    C2 5986  11.689  19.217   8.282  0.1746  0.2351  0.1199
  498ERGO   ROH 5987  13.372   4.736   9.790  0.1889 -0.2707 -0.1137
  498ERGO    R1 5988  13.319   4.602   9.546  0.1214 -0.1897 -0.1439
  498ERGO    R2 5989  13.083   4.468   9.499  0.1297 -0.2186 -0.1028
  498ERGO    R3 5990  13.074   4.627   9.279  0.0125 -0.1380 -0.0405
  498ERGO    R4 5991  12.935   4.382   9.198  0.1293 -0.1842 -0.1123
  498ERGO    R5 5992  13.102   4.476   9.095  0.0651 -0.0551 -0.1023
  498ERGO    C1 5993  12.840   4.481   8.817  0.0190 -0.0885 -0.0592
  498ERGO    C2 5994  12.658   4.402   8.558  0.0408 -0.0020  0.4688
  499ERGO   ROH 5995  16.547   3.351   9.781 -0.1681 -0.1575 -0.0403
  499ERGO    R1 5996  16.710   3.446   9.571 -0.0928 -0.2022 -0.0034
  499ERGO    R2 5997  16.631   3.437   9.306 -0.1689  0.1092  0.0047
  499ERGO    R3 5998  16.688   3.703   9.314  0.1794  0.0344  0.2028
  499ERGO    R4 5999  16.785   3.613   9.052 -0.1995  0.1445  0.0120
  499ERGO    R5 6000  16.899   3.722   9.203  0.0967 -0.1403  0.0062
  499ERGO    C1 6001  16.928   3.965   8.911  0.1100  0.0948  0.2021
  499ERGO    C2 6002  17.078   4.131   8.626  0.2266  0.0635 -0.0018
  500ERGO   ROH 6003  15.817   0.386   9.838 -0.2802  0.2382  0.1517
  500ERGO    R1 6004  15.752   0.329   9.569 -0.0167  0.0965  0.1150
  500ERGO    R2 6005  15.492   0.285   9.485  0.0955 -0.2207 -0.0669
  500ERGO    R3 6006  15.550   0.483   9.308 -0.0027 -0.1980 -0.0754
  500ERGO    R4 6007  15.421   0.273   9.147  0.3378 -0.3896 -0.1158
  500ERGO    R5 6008  15.614   0.366   9.108  0.2662 -0.1812 -0.0045
  500ERGO    C1 6009  15.433   0.451   8.784  0.3866 -0.4667 -0.1522
  500ERGO    C2 6010  15.489   0.339   8.508 -0.0038 -0.2322 -0.2482
  501ERGO   ROH 6011  16.869   6.382   9.517 -0.0858  0.0547  0.1671
  501ERGO    R1 6012  16.705   6.493   9.316  0.1483  0.0929 -0.0068
  501ERGO    R2 6013  16.799   6.551   9.062  0.3293 -0.3002 -0.0368
  501ERGO    R3 6014  16.589   6.396   8.985  0.1279 -0.0787  0.0502
  501ERGO    R4 6015  16.675   6.532   8.740  0.2324 -0.2433 -0.0037
  501ERGO    R5 6016  16.474   6.528   8.823  0.2449  0.0136  0.0422
  501ERGO    C1 6017  16.407   6.375   8.480 -0.0129 -0.0022  0.0972
  501ERGO    C2 6018  16.311   6.453   8.109 -0.1505 -0.0486 -0.0850
  502ERGO   ROH 6019  13.796   8.947   9.853 -0.1661 -0.1878 -0.0698
  502ERGO    R1 6020  13.805   8.916   9.571 -0.0362 -0.0767 -0.0793
  502ERGO    R2 6021  13.870   9.124   9.400  0.0579 -0.0116  0.0312
  502ERGO    R3 6022  14.057   8.948   9.310  0.0885  0.0122  0.0510
  502ERGO    R4 6023  14.052   9.159   9.108  0.0426 -0.0173  0.0218
  502ERGO    R5 6024  14.028   8.946   9.073  0.0827 -0.0261  0.0527
  502ERGO    C1 6025  14.332   9.015   8.854  0.0624  0.0018  0.0352
  502ERGO    C2 6026  14.612   9.127   8.917 -0.2197 -0.0670  0.1517
  503ERGO   ROH 6027  12.452  10.394   9.877 -0.1217 -0.0995  0.0738
  503ERGO    R1 6028  12.282  10.462   9.660 -0.0151 -0.2089 -0.0442
  503ERGO    R2 6029  12.248  10.724   9.575 -0.1441 -0.2325 -0.0449
  503ERGO    R3 6030  12.321  10.620   9.335  0.1036 -0.1567 -0.0073
  503ERGO    R4 6031  12.177  10.866   9.268 -0.3259 -0.4122 -0.0900
  503ERGO    R5 6032  12.136  10.667   9.191  0.0449 -0.5121 -0.0629
  503ERGO    C1 6033  12.204  10.851   8.864 -0.1993 -0.4458 -0.0809
  503ERGO    C2 6034  12.232  10.756   8.595  0.2045 -0.1333 -0.0796
  504ERGO   ROH 6035   2.251   7.566   9.513  0.1791 -0.3522  0.3034
  504ERGO    R1 6036   2.173   7.441   9.271  0.0507 -0.4864  0.4104
  504ERGO    R2 6037   2.297   7.493   9.031 -0.5648 -0.0099  0.1585
  504ERGO    R3 6038   2.326   7.223   9.024  0.2227  0.0572  0.0221
  504ERGO    R4 6039   2.243   7.297   8.751 -0.6862 -0.0922  0.2398
  504ERGO    R5 6040   2.149   7.148   8.880  0.0677 -0.4271  0.4473
  504ERGO    C1 6041   2.240   6.929   8.582 -0.0177 -0.0771  0.1591
  504ERGO    C2 6042   2.326   6.840   8.206  0.0640 -0.3590 -0.0265
  505ERGO   ROH 6043   4.649   3.915   9.808  0.4028  0.0765 -0.2267
  505ERGO    R1 6044   4.557   3.828   9.555  0.3935  0.1324 -0.2432
  505ERGO    R2 6045   4.289   3.794   9.498  0.4052 -0.2569 -0.1060
  505ERGO    R3 6046   4.345   3.960   9.290  0.0145  0.0120 -0.0076
  505ERGO    R4 6047   4.209   3.731   9.168  0.4228 -0.1740 -0.1258
  505ERGO    R5 6048   4.403   3.813   9.110  0.2501  0.2520 -0.1338
  505ERGO    C1 6049   4.215   3.851   8.780  0.0662  0.1268 -0.0449
  505ERGO    C2 6050   4.223   4.029   8.424  0.0006 -0.0022 -0.1042
  506ERGO   ROH 6051  15.727   6.811  10.574 -0.1014  0.0929  0.0788
  506ERGO    R1 6052  15.606   6.816  10.318 -0.0080  0.3509  0.0371
  506ERGO    R2 6053  15.410   6.636  10.242  0.3793  0.0885 -0.3867
  506ERGO    R3 6054  15.271   6.862  10.184 -0.0590 -0.0637  0.0075
  506ERGO    R4 6055  15.184   6.668   9.982  0.3147  0.1009 -0.3296
  506ERGO    R5 6056  15.263   6.867   9.945 -0.0644  0.3317  0.0086
  506ERGO    C1 6057  14.922   6.898   9.777 -0.1345 -0.0348  0.0736
  506ERGO    C2 6058  14.806   6.991   9.580 -0.1322  0.5401  0.1107
  507ERGO   ROH 6059  15.430  11.024   9.949  0.1094 -0.1269  0.1234
  507ERGO    R1 6060  15.478  10.989   9.672  0.2280 -0.1719  0.1494
  507ERGO    R2 6061  15.360  11.150   9.480  0.0225 -0.4321  0.0564
  507ERGO    R3 6062  15.618  11.188   9.401 -0.0125 -0.0664  0.0979
  507ERGO    R4 6063  15.459  11.261   9.167 -0.0875 -0.4268  0.0227
  507ERGO    R5 6064  15.622  11.118   9.173  0.1427 -0.1750  0.1295
  507ERGO    C1 6065  15.757  11.362   8.912 -0.1842 -0.0804  0.0421
  507ERGO    C2 6066  15.968  11.465   8.622  0.1959  0.2167  0.0242
  508ERGO   ROH 6067   2.240  10.096   9.458  0.2458 -0.1589  0.1449
  508ERGO    R1 6068   2.162  10.179   9.199  0.3998  0.0015  0.1494
  508ERGO    R2 6069   2.291  10.094   8.971  0.2103 -0.2739  0.1469
  508ERGO    R3 6070   2.041  10.019   8.895  0.0416  0.2454  0.1565
  508ERGO    R4 6071   2.208   9.972   8.658  0.0183 -0.3986  0.2442
  508ERGO    R5 6072   2.024  10.090   8.667  0.2856  0.0597  0.0738
  508ERGO    C1 6073   1.924   9.831   8.406 -0.2519  0.0164  0.3100
  508ERGO    C2 6074   1.987   9.529   8.075  0.1915  0.1721 -0.1084
  509ERGO   ROH 6075  13.848  12.391  10.065  0.2388  0.1690  0.0336
  509ERGO    R1 6076  14.017  12.517   9.875  0.1285  0.1827 -0.0564
  509ERGO    R2 6077  14.166  12.374   9.692  0.1668  0.1853 -0.0265
  509ERGO    R3 6078  14.039  12.534   9.512  0.0382  0.0411 -0.0706
  509ERGO    R4 6079  14.186  12.341   9.348  0.2936  0.1787 -0.0192
  509ERGO    R5 6080  14.195  12.558   9.332  0.0656  0.1952 -0.0315
  509ERGO    C1 6081  14.078  12.472   8.980  0.2467  0.0396 -0.0562
  509ERGO    C2 6082  14.042  12.474   8.560  0.1061  0.1381 -0.0029
  510ERGO   ROH 6083   6.436   3.916   9.609  0.1316 -0.0619 -0.1638
  510ERGO    R1 6084   6.387   3.860   9.336 -0.1002 -0.0131 -0.1346
  510ERGO    R2 6085   6.157   3.943   9.206 -0.0642  0.2999 -0.0126
  510ERGO    R3 6086   6.335   4.052   9.032 -0.0024  0.0434 -0.1149
  510ERGO    R4 6087   6.088   4.017   8.876 -0.0927  0.2584 -0.0160
  510ERGO    R5 6088   6.287   3.944   8.823 -0.1913  0.0213 -0.0598
  510ERGO    C1 6089   6.215   4.163   8.520 -0.0513 -0.0067 -0.1139
  510ERGO    C2 6090   6.118   4.219   8.178 -0.0898  0.0871 -0.0673
  511ERGO   ROH 6091   7.822   0.331   9.546 -0.5391  0.2324  0.0328
  511ERGO    R1 6092   7.878   0.491   9.319 -0.2697  0.1380  0.0278
  511ERGO    R2 6093   8.053   0.413   9.120 -0.1923 -0.0418  0.1586
  511ERGO    R3 6094   7.840   0.461   8.959 -0.0545  0.0762  0.0107
  511ERGO    R4 6095   8.069   0.449   8.777  0.0443 -0.1228  0.1598
  511ERGO    R5 6096   7.925   0.611   8.792  0.1521 -0.0202  0.0317
  511ERGO    C1 6097   7.879   0.515   8.425  0.3115 -0.0592  0.0217
  511ERGO    C2 6098   7.763   0.596   8.049  0.0432 -0.1108 -0.0561
  512ERGO   ROH 6099   4.130   1.851   9.969 -0.2209 -0.2026 -0.0251
  512ERGO    R1 6100   4.137   1.751   9.705 -0.0362 -0.1455 -0.0432
  512ERGO    R2 6101   3.950   1.821   9.514 -0.0238 -0.2654 -0.0989
  512ERGO    R3 6102   4.169   1.889   9.370 -0.0256 -0.0518 -0.0041
  512ERGO    R4 6103   3.964   1.829   9.169  0.0547 -0.0439 -0.0923
  512ERGO    R5 6104   4.164   1.742   9.181  0.1018  0.0603 -0.0979
  512ERGO    C1 6105   4.178   1.898   8.833  0.0986  0.2855  0.0005
  512ERGO    C2 6106   4.020   2.042   8.593 -0.1598 -0.3692 -0.0969
  513ERGO   ROH 6107  13.052  17.508   9.872  0.2012 -0.2334 -0.0830
  513ERGO    R1 6108  13.088  17.688   9.656  0.1082 -0.2310 -0.0953
  513ERGO    R2 6109  13.295  17.662   9.475 -0.0056 -0.2610 -0.2136
  513ERGO    R3 6110  13.093  17.667   9.293 -0.1077 -0.2110 -0.1021
  513ERGO    R4 6111  13.330  17.750   9.142 -0.2219  0.0470 -0.1605
  513ERGO    R5 6112  13.141  17.857   9.156 -0.2782 -0.0606  0.0349
  513ERGO    C1 6113  13.161  17.805   8.778 -0.4438  0.2733 -0.0248
  513ERGO    C2 6114  13.287  17.942   8.508  0.0056  0.2173 -0.3104
  514ERGO   ROH 6115   5.134   6.510   9.720  0.0113  0.2435  0.1657
  514ERGO    R1 6116   5.235   6.419   9.472 -0.0406  0.2416  0.1454
  514ERGO    R2 6117   5.139   6.194   9.344  0.0301  0.1612  0.2383
  514ERGO    R3 6118   5.105   6.365   9.136 -0.1468  0.0933  0.2090
  514ERGO    R4 6119   5.075   6.098   9.018  0.0983  0.0364  0.2605
  514ERGO    R5 6120   5.210   6.256   8.951 -0.0526  0.1558  0.2225
  514ERGO    C1 6121   5.006   6.204   8.633 -0.0280 -0.1001  0.2460
  514ERGO    C2 6122   4.876   6.064   8.397  0.3661 -0.1337  0.1513
  515ERGO   ROH 6123   2.694   1.633  10.058 -0.0236  0.1758 -0.0159
  515ERGO    R1 6124   2.809   1.484   9.846  0.0314  0.1607  0.0228
  515ERGO    R2 6125   2.663   1.307   9.692  0.1146 -0.0158  0.1310
  515ERGO    R3 6126   2.760   1.456   9.486 -0.0381 -0.0294  0.0484
  515ERGO    R4 6127   2.700   1.195   9.367  0.0978 -0.0959  0.1570
  515ERGO    R5 6128   2.890   1.301   9.357  0.0213  0.0165  0.0644
  515ERGO    C1 6129   2.813   1.270   8.985 -0.0553 -0.1553  0.0946
  515ERGO    C2 6130   2.707   1.286   8.643  0.0389 -0.0587 -0.2538
  516ERGO   ROH 6131   9.606  16.660   9.551 -0.1708  0.0816  0.0875
  516ERGO    R1 6132   9.634  16.811   9.313 -0.1001  0.0287  0.0619
  516ERGO    R2 6133   9.846  16.777   9.140 -0.0608 -0.0260  0.1207
  516ERGO    R3 6134   9.649  16.741   8.956 -0.0186 -0.0482  0.0799
  516ERGO    R4 6135   9.899  16.732   8.801  0.0148 -0.0436  0.1345
  516ERGO    R5 6136   9.726  16.861   8.763  0.0163 -0.0557  0.0893
  516ERGO    C1 6137   9.744  16.673   8.431  0.0984 -0.0746  0.1041
  516ERGO    C2 6138   9.896  16.708   8.078  0.0545  0.0549  0.1730
  517ERGO   ROH 6139  10.066   6.823   9.955  0.2734  0.1085  0.0202
  517ERGO    R1 6140  10.208   6.721   9.732 -0.0163 -0.1249 -0.0640
  517ERGO    R2 6141  10.081   6.619   9.509 -0.3215  0.3112 -0.1031
  517ERGO    R3 6142  10.237   6.799   9.378  0.1110  0.0102 -0.0246
  517ERGO    R4 6143  10.101   6.651   9.165 -0.0945  0.2876 -0.0935
  517ERGO    R5 6144  10.316   6.681   9.185 -0.0328 -0.1454  0.0093
  517ERGO    C1 6145  10.259   6.838   8.842  0.4439 -0.0087 -0.0142
  517ERGO    C2 6146  10.379   7.077   8.633 -0.1043  0.0081 -0.0351
  518ERGO   ROH 6147   6.797   7.085   9.859  0.0607  0.0564  0.0618
  518ERGO    R1 6148   6.661   7.172   9.627  0.0128 -0.0107  0.0639
  518ERGO    R2 6149   6.617   7.439   9.571 -0.0496 -0.0266  0.0235
  518ERGO    R3 6150   6.738   7.377   9.336 -0.0651 -0.0438  0.0206
  518ERGO    R4 6151   6.666   7.660   9.310 -0.0385 -0.0430  0.0122
  518ERGO    R5 6152   6.615   7.499   9.171 -0.0575 -0.0402  0.0210
  518ERGO    C1 6153   6.809   7.730   8.937 -0.0465 -0.0686  0.0029
  518ERGO    C2 6154   6.699   7.837   8.587 -0.2053  0.0052 -0.0870
  519ERGO   ROH 6155  17.602   2.518   9.945  0.1114 -0.1993 -0.1143
  519ERGO    R1 6156  17.548   2.413   9.688  0.2423 -0.1891 -0.1464
  519ERGO    R2 6157  17.359   2.523   9.519  0.0156 -0.4401 -0.0609
  519ERGO    R3 6158  17.568   2.531   9.345 -0.0258 -0.0094 -0.1040
  519ERGO    R4 6159  17.329   2.537   9.175 -0.0815 -0.3087 -0.0484
  519ERGO    R5 6160  17.495   2.397   9.160  0.1492 -0.0356 -0.1576
  519ERGO    C1 6161  17.507   2.552   8.811 -0.1770  0.1721 -0.0816
  519ERGO    C2 6162  17.585   2.705   8.493  0.1867  0.0376  0.0484
  520ERGO   ROH 6163   8.451   3.315   9.717 -0.0964 -0.2061  0.0918
  520ERGO    R1 6164   8.475   3.203   9.458 -0.0608 -0.1621  0.0756
  520ERGO    R2 6165   8.588   3.340   9.246 -0.0617 -0.1125  0.1057
  520ERGO    R3 6166   8.746   3.120   9.230 -0.0308 -0.0894  0.0849
  520ERGO    R4 6167   8.728   3.219   8.954 -0.1215 -0.1188  0.0798
  520ERGO    R5 6168   8.683   3.017   9.023 -0.0709 -0.1198  0.1119
  520ERGO    C1 6169   8.958   2.942   8.769 -0.1272 -0.1009  0.0450
  520ERGO    C2 6170   9.224   2.939   8.515  0.2008  0.2221  0.1679
  521ERGO   ROH 6171   0.985   9.830   9.737 -0.3063  0.2474  0.0734
  521ERGO    R1 6172   0.969   9.933   9.474 -0.3771  0.1361  0.0339
  521ERGO    R2 6173   1.067   9.798   9.254 -0.1130  0.2040  0.1147
  521ERGO    R3 6174   0.815   9.834   9.159 -0.1389 -0.1924  0.0136
  521ERGO    R4 6175   0.979   9.793   8.920  0.0917  0.2995  0.0574
  521ERGO    R5 6176   0.844   9.960   8.958 -0.2515  0.0306  0.1261
  521ERGO    C1 6177   0.690   9.824   8.637  0.1866 -0.0170 -0.0708
  521ERGO    C2 6178   0.631   9.685   8.376  0.2086 -0.0323  0.0070
  522ERGO   ROH 6179   6.075   0.952   9.342  0.0019 -0.0805 -0.0125
  522ERGO    R1 6180   5.938   0.839   9.122 -0.0867  0.0708 -0.0360
  522ERGO    R2 6181   5.757   0.982   8.970  0.1040  0.2742 -0.0712
  522ERGO    R3 6182   5.915   0.900   8.764  0.0497  0.0901 -0.0425
  522ERGO    R4 6183   5.664   0.984   8.637  0.1066  0.2310 -0.0728
  522ERGO    R5 6184   5.764   0.791   8.613 -0.0305  0.1471 -0.0073
  522ERGO    C1 6185   5.758   0.908   8.250  0.0572  0.0331 -0.0470
  522ERGO    C2 6186   5.821   1.122   7.983  0.0827  0.2096 -0.2332
  523ERGO   ROH 6187  14.527   4.503   9.542  0.0007 -0.0402  0.0854
  523ERGO    R1 6188  14.297   4.605   9.412 -0.0310 -0.0614  0.1251
  523ERGO    R2 6189  14.259   4.584   9.139  0.0003  0.0765  0.1101
  523ERGO    R3 6190  14.024   4.470   9.213  0.0400 -0.0632  0.0271
  523ERGO    R4 6191  13.969   4.587   8.951 -0.0183  0.1699  0.1397
  523ERGO    R5 6192  13.856   4.621   9.134 -0.0117 -0.0346  0.1851
  523ERGO    C1 6193  13.580   4.483   8.911  0.0080  0.0932  0.0789
  523ERGO    C2 6194  13.286   4.459   8.606 -0.3240  0.0123  0.1690
  524ERGO   ROH 6195  10.920  12.570   9.512  0.0813 -0.0766  0.0905
  524ERGO    R1 6196  10.915  12.417   9.274  0.1215 -0.1878  0.1611
  524ERGO    R2 6197  11.047  12.495   9.044 -0.1270 -0.1171  0.0423
  524ERGO    R3 6198  11.159  12.248   9.064  0.2033  0.0303  0.0772
  524ERGO    R4 6199  11.184  12.319   8.780 -0.4099 -0.1996 -0.0529
  524ERGO    R5 6200  11.094  12.137   8.862 -0.0510 -0.2375  0.2943
  524ERGO    C1 6201  11.368  11.984   8.645 -0.2645 -0.1093 -0.0755
  524ERGO    C2 6202  11.543  11.799   8.248 -0.1268  0.2842 -0.0606
  525ERGO   ROH 6203   9.671  17.812   9.208 -0.2239  0.1988  0.2123
  525ERGO    R1 6204   9.578  17.714   8.959  0.0908  0.0102  0.1664
  525ERGO    R2 6205   9.378  17.838   8.815 -0.0109 -0.3342  0.0127
  525ERGO    R3 6206   9.563  17.834   8.616  0.1183 -0.0784  0.1358
  525ERGO    R4 6207   9.303  17.839   8.478  0.2131  0.1567 -0.0451
  525ERGO    R5 6208   9.464  17.694   8.447  0.2073  0.1764 -0.1350
  525ERGO    C1 6209   9.433  17.835   8.094  0.4647  0.6825  0.0368
  525ERGO    C2 6210   9.471  18.077   7.799  0.0713  0.0138  0.1202
  526ERGO   ROH 6211   1.764  10.958   9.402 -0.0017  0.2395 -0.0999
  526ERGO    R1 6212   1.673  11.044   9.148 -0.0010  0.1126 -0.1438
  526ERGO    R2 6213   1.831  11.030   8.922  0.0039  0.0125 -0.1329
  526ERGO    R3 6214   1.618  10.893   8.822  0.0137 -0.0470 -0.0738
  526ERGO    R4 6215   1.681  11.093   8.617  0.0231 -0.1517 -0.1774
  526ERGO    R5 6216   1.487  11.060   8.711  0.0167 -0.1071 -0.1711
  526ERGO    C1 6217   1.394  11.001   8.345  0.0435 -0.3030 -0.1478
  526ERGO    C2 6218   1.170  11.045   8.097 -0.3088 -0.0265  0.4193
  527ERGO   ROH 6219   3.607  15.626   9.634 -0.0950  0.0151 -0.1987
  527ERGO    R1 6220   3.612  15.748   9.379 -0.2356  0.0900 -0.1668
  527ERGO    R2 6221   3.774  15.658   9.174  0.0685  0.4834 -0.1127
  527ERGO    R3 6222   3.540  15.649   9.037  0.1438  0.0052 -0.2260
  527ERGO    R4 6223   3.744  15.683   8.830  0.1859  0.2748 -0.1395
  527ERGO    R5 6224   3.568  15.807   8.859 -0.0523 -0.0221 -0.2815
  527ERGO    C1 6225   3.507  15.688   8.502  0.3249 -0.2956 -0.2615
  527ERGO    C2 6226   3.505  15.579   8.176 -0.2943  0.3229  0.1713
  528ERGO   ROH 6227  10.446  13.495   9.459  0.2580 -0.0544 -0.1054
  528ERGO    R1 6228  10.527  13.560   9.196  0.0105  0.0912 -0.1494
  528ERGO    R2 6229  10.475  13.397   8.979  0.1686  0.0025 -0.1226
  528ERGO    R3 6230  10.365  13.623   8.877 -0.2717 -0.1748 -0.0634
  528ERGO    R4 6231  10.403  13.448   8.645  0.0411 -0.0569 -0.1052
  528ERGO    R5 6232  10.475  13.653   8.666 -0.3415  0.0804 -0.0673
  528ERGO    C1 6233  10.259  13.691   8.354 -0.4465 -0.2581 -0.0395
  528ERGO    C2 6234  10.277  13.491   8.160 -0.1689  0.1239  0.2659
  529ERGO   ROH 6235   2.453  15.722   9.850 -0.0738 -0.4626 -0.0172
  529ERGO    R1 6236   2.362  15.684   9.585 -0.0939 -0.1867 -0.0530
  529ERGO    R2 6237   2.150  15.825   9.478 -0.1182 -0.0919  0.1179
  529ERGO    R3 6238   2.330  15.887   9.284 -0.1422  0.1358  0.1651
  529ERGO    R4 6239   2.073  15.979   9.179 -0.2441 -0.2315  0.0775
  529ERGO    R5 6240   2.213  15.845   9.079 -0.0264 -0.0511  0.1344
  529ERGO    C1 6241   2.197  16.127   8.822 -0.3400 -0.0987  0.0983
  529ERGO    C2 6242   2.211  16.232   8.501  0.1479 -0.0398  0.2746
  530ERGO   ROH 6243  13.810  13.117   9.904 -0.3651 -0.3091 -0.0091
  530ERGO    R1 6244  13.897  13.193   9.645 -0.3804 -0.0777  0.0512
  530ERGO    R2 6245  14.038  13.023   9.479 -0.1108  0.1739  0.0107
  530ERGO    R3 6246  13.839  13.082   9.304 -0.1361  0.0044 -0.0188
  530ERGO    R4 6247  14.023  12.910   9.153 -0.0599  0.0175  0.0618
  530ERGO    R5 6248  13.951  13.107   9.094 -0.1472 -0.0422 -0.0295
  530ERGO    C1 6249  13.828  12.900   8.798 -0.0540 -0.2327  0.0637
  530ERGO    C2 6250  13.792  12.992   8.461 -0.0838  0.4036 -0.2137
  531ERGO   ROH 6251   9.375   4.080  10.172  0.2271 -0.1482  0.0291
  531ERGO    R1 6252   9.480   3.946   9.945  0.2202 -0.0862 -0.0113
  531ERGO    R2 6253   9.320   3.814   9.764  0.2257 -0.1674  0.0385
  531ERGO    R3 6254   9.447   3.973   9.584  0.0792 -0.0914  0.0015
  531ERGO    R4 6255   9.342   3.749   9.425  0.2523 -0.2002  0.0469
  531ERGO    R5 6256   9.549   3.819   9.431  0.1934 -0.0293  0.0175
  531ERGO    C1 6257   9.475   3.861   9.059  0.1301 -0.1480  0.0169
  531ERGO    C2 6258   9.476   4.085   8.757 -0.3564  0.0786  0.1962
  532ERGO   ROH 6259  15.032  16.939   9.839  0.0945 -0.1101  0.1587
  532ERGO    R1 6260  15.086  17.050   9.585 -0.0708 -0.0240  0.1584
  532ERGO    R2 6261  15.228  16.914   9.391  0.1427  0.1880  0.1554
  532ERGO    R3 6262  15.009  16.966   9.239  0.0549 -0.1445  0.1602
  532ERGO    R4 6263  15.232  16.956   9.048  0.0720  0.2538  0.1633
  532ERGO    R5 6264  15.088  17.119   9.071 -0.1957  0.0149  0.1873
  532ERGO    C1 6265  15.028  17.031   8.705 -0.0517 -0.0202  0.1724
  532ERGO    C2 6266  15.010  17.150   8.347 -0.3323  0.1784  0.1133
  533ERGO   ROH 6267   5.140  11.930   9.472 -0.1464  0.1981  0.1133
  533ERGO    R1 6268   5.259  12.090   9.271  0.0717  0.0628  0.1308
  533ERGO    R2 6269   5.513  12.041   9.173 -0.0349 -0.3504  0.0342
  533ERGO    R3 6270   5.385  12.039   8.933 -0.1219 -0.0475  0.0738
  533ERGO    R4 6271   5.660  12.116   8.869 -0.0586 -0.3057  0.0337
  533ERGO    R5 6272   5.479  12.224   8.813  0.0382 -0.0682  0.1677
  533ERGO    C1 6273   5.626  12.158   8.468 -0.1541  0.0047  0.0707
  533ERGO    C2 6274   5.542  12.041   8.161  0.0888 -0.0001 -0.0133
  534ERGO   ROH 6275  10.900   9.383   9.751 -0.1187  0.1613  0.0590
  534ERGO    R1 6276  10.767   9.492   9.526 -0.0676  0.1551  0.0247
  534ERGO    R2 6277  10.897   9.646   9.337 -0.0371  0.2111  0.0844
  534ERGO    R3 6278  10.793   9.463   9.165  0.0681  0.2015  0.0314
  534ERGO    R4 6279  10.709   9.723   9.057 -0.2927  0.1701  0.2414
  534ERGO    R5 6280  10.580   9.554   9.103 -0.0721 -0.0049  0.2127
  534ERGO    C1 6281  10.503   9.596   8.732 -0.3427  0.1372  0.2830
  534ERGO    C2 6282  10.626   9.667   8.444 -0.0918 -0.0969  0.0800
  535ERGO   ROH 6283  12.485   5.046   9.881  0.2016  0.1241  0.2708
  535ERGO    R1 6284  12.396   5.126   9.625  0.0353  0.2323  0.3600
  535ERGO    R2 6285  12.363   5.392   9.556  0.3197  0.2821  0.3845
  535ERGO    R3 6286  12.527   5.325   9.350  0.0167  0.0426  0.2143
  535ERGO    R4 6287  12.391   5.569   9.260  0.0877  0.0834  0.2403
  535ERGO    R5 6288  12.401   5.379   9.154 -0.1843  0.0159  0.3369
  535ERGO    C1 6289  12.562   5.609   8.895 -0.3319 -0.2573 -0.0034
  535ERGO    C2 6290  12.619   5.675   8.524  0.0687  0.0023 -0.0698
  536ERGO   ROH 6291   7.916  11.856   9.502 -0.0410  0.3324 -0.1923
  536ERGO    R1 6292   7.870  11.867   9.223  0.1639  0.2485 -0.2316
  536ERGO    R2 6293   8.060  11.790   9.037  0.1773 -0.1499 -0.0631
  536ERGO    R3 6294   7.860  11.629   8.947 -0.0133  0.1042 -0.1026
  536ERGO    R4 6295   8.030  11.674   8.713  0.0265 -0.0195 -0.0968
  536ERGO    R5 6296   7.815  11.709   8.726  0.0643  0.2226 -0.0762
  536ERGO    C1 6297   7.825  11.456   8.440 -0.2403  0.2950 -0.1535
  536ERGO    C2 6298   7.908  11.320   8.174  0.3031 -0.0592 -0.1587
  537ERGO   ROH 6299  16.593   2.157   9.768  0.2712  0.0132  0.0022
  537ERGO    R1 6300  16.482   2.089   9.517  0.2082 -0.1246  0.0650
  537ERGO    R2 6301  16.399   2.280   9.335 -0.1078 -0.2183  0.0940
  537ERGO    R3 6302  16.565   2.145   9.167 -0.0388 -0.0434  0.0188
  537ERGO    R4 6303  16.420   2.331   8.994 -0.0710  0.0180  0.1303
  537ERGO    R5 6304  16.437   2.115   8.967  0.0072  0.0479 -0.0186
  537ERGO    C1 6305  16.588   2.233   8.638  0.0151  0.3198  0.0810
  537ERGO    C2 6306  16.689   2.176   8.320  0.4347 -0.3061 -0.0362
  538ERGO   ROH 6307  11.438  13.465   9.389 -0.3654  0.1199  0.1208
  538ERGO    R1 6308  11.430  13.621   9.153  0.1873 -0.0238 -0.0089
  538ERGO    R2 6309  11.568  13.551   8.924  0.0548 -0.6411  0.0767
  538ERGO    R3 6310  11.322  13.573   8.809  0.1313  0.0302  0.0018
  538ERGO    R4 6311  11.486  13.434   8.609 -0.2208 -0.5940  0.1286
  538ERGO    R5 6312  11.369  13.615   8.578  0.3237 -0.2453 -0.0120
  538ERGO    C1 6313  11.208  13.387   8.318 -0.3094  0.0635  0.0883
  538ERGO    C2 6314  11.200  13.097   8.040  0.0826  0.0056 -0.1720
  539ERGO   ROH 6315  11.450   5.212   9.791  0.1033 -0.0045  0.0480
  539ERGO    R1 6316  11.301   5.210   9.550  0.1058  0.0695  0.0463
  539ERGO    R2 6317  11.417   5.253   9.303  0.1436 -0.0612  0.0423
  539ERGO    R3 6318  11.299   5.017   9.242 -0.0386  0.0186  0.0785
  539ERGO    R4 6319  11.303   5.163   8.989  0.0596 -0.0167  0.0591
  539ERGO    R5 6320  11.129   5.073   9.083 -0.0049  0.1261  0.0796
  539ERGO    C1 6321  11.126   4.888   8.750 -0.1604  0.0840  0.1030
  539ERGO    C2 6322  11.015   4.842   8.461  0.0020  0.2001 -0.2375
  540ERGO   ROH 6323   6.772  14.604   9.469  0.0554  0.0518 -0.0077
  540ERGO    R1 6324   6.639  14.693   9.235  0.0576  0.1245  0.0186
  540ERGO    R2 6325   6.705  14.929   9.107  0.2273  0.0416 -0.0467
  540ERGO    R3 6326   6.732  14.766   8.891  0.0118 -0.0245 -0.0269
  540ERGO    R4 6327   6.690  15.033   8.778  0.0973 -0.0220 -0.0619
  540ERGO    R5 6328   6.577  14.853   8.731 -0.0334  0.0287  0.0427
  540ERGO    C1 6329   6.707  14.941   8.383 -0.1807 -0.1209 -0.0522
  540ERGO    C2 6330   6.843  15.112   8.035 -0.3344  0.1265 -0.1775
  541ERGO   ROH 6331  14.261   5.101   9.853 -0.1219  0.0729 -0.1253
  541ERGO    R1 6332  14.486   5.116   9.681 -0.0784 -0.0637 -0.0811
  541ERGO    R2 6333  14.644   4.898   9.623 -0.1227 -0.1288  0.0577
  541ERGO    R3 6334  14.589   4.966   9.366 -0.0410 -0.2348  0.0104
  541ERGO    R4 6335  14.870   4.880   9.362  0.0044 -0.1158  0.1647
  541ERGO    R5 6336  14.790   5.069   9.288 -0.0479 -0.1705  0.0686
  541ERGO    C1 6337  14.949   4.934   8.968  0.1550 -0.2076  0.1824
  541ERGO    C2 6338  15.020   5.047   8.726 -0.0002  0.0596  0.2026
  542ERGO   ROH 6339   8.667  13.140   9.193  0.0355  0.0394  0.1417
  542ERGO    R1 6340   8.546  13.221   8.949  0.0862  0.0849  0.1311
  542ERGO    R2 6341   8.628  13.125   8.704  0.1230  0.1135  0.1307
  542ERGO    R3 6342   8.365  13.060   8.678  0.1225  0.1387  0.0752
  542ERGO    R4 6343   8.476  13.031   8.408  0.1597  0.1956  0.0858
  542ERGO    R5 6344   8.303  13.150   8.465  0.1604  0.1938  0.0881
  542ERGO    C1 6345   8.141  12.916   8.211  0.1804  0.2671  0.0077
  542ERGO    C2 6346   7.991  12.674   7.970 -0.0424 -0.0350 -0.1023
  543ERGO   ROH 6347  17.089  10.370  10.134  0.0812  0.0909  0.0786
  543ERGO    R1 6348  17.074  10.428   9.857  0.2927 -0.0278  0.0399
  543ERGO    R2 6349  16.901  10.617   9.754  0.0432 -0.3797 -0.2183
  543ERGO    R3 6350  17.128  10.717   9.643 -0.0055  0.0161  0.0207
  543ERGO    R4 6351  16.911  10.842   9.491 -0.0570 -0.2789 -0.1378
  543ERGO    R5 6352  17.080  10.731   9.409  0.1945  0.0129 -0.0193
  543ERGO    C1 6353  17.130  11.067   9.235 -0.1613  0.1514  0.1337
  543ERGO    C2 6354  17.213  11.408   9.005  0.1604 -0.0817 -0.2061
  544ERGO   ROH 6355   6.515   2.932   9.236 -0.2355  0.0819  0.1978
  544ERGO    R1 6356   6.430   2.838   8.982 -0.2256  0.2732  0.1217
  544ERGO    R2 6357   6.427   3.000   8.758  0.1768  0.3355  0.1501
  544ERGO    R3 6358   6.578   2.800   8.652 -0.0702  0.1124  0.2088
  544ERGO    R4 6359   6.539   2.989   8.431  0.0677  0.0340  0.1198
  544ERGO    R5 6360   6.496   2.775   8.428 -0.1645  0.0781  0.2481
  544ERGO    C1 6361   6.747   2.795   8.142 -0.2277 -0.3510  0.1572
  544ERGO    C2 6362   6.876   2.847   7.874  0.1616 -0.2304 -0.1001
  545ERGO   ROH 6363  15.714  15.924   9.707 -0.1275  0.0741  0.1131
  545ERGO    R1 6364  15.737  15.861   9.431 -0.2259 -0.0765  0.1373
  545ERGO    R2 6365  15.661  16.036   9.232 -0.2035 -0.1437  0.0643
  545ERGO    R3 6366  15.914  15.995   9.144 -0.2430 -0.2970  0.0228
  545ERGO    R4 6367  15.753  16.008   8.900 -0.2334  0.0986  0.0344
  545ERGO    R5 6368  15.890  15.848   8.956 -0.3837 -0.0882 -0.1243
  545ERGO    C1 6369  16.045  15.953   8.624 -0.2879  0.0957 -0.0219
  545ERGO    C2 6370  16.081  16.099   8.447 -0.1065  0.0342 -0.0100
  546ERGO   ROH 6371   0.573  14.808   9.423 -0.2875 -0.0907 -0.0805
  546ERGO    R1 6372   0.480  15.019   9.260 -0.2403 -0.0124 -0.0072
  546ERGO    R2 6373   0.630  15.126   9.054 -0.2103  0.0361  0.0374
  546ERGO    R3 6374   0.408  15.069   8.907 -0.2146  0.1306  0.0076
  546ERGO    R4 6375   0.565  15.252   8.739 -0.0334 -0.0699 -0.0427
  546ERGO    R5 6376   0.356  15.276   8.797 -0.0311  0.1163 -0.1088
  546ERGO    C1 6377   0.319  15.272   8.417  0.0657 -0.0428 -0.1174
  546ERGO    C2 6378   0.387  15.394   8.089 -0.0048 -0.0320  0.3747
  547ERGO   ROH 6379  14.830  15.015   9.633 -0.3703  0.1525  0.0558
  547ERGO    R1 6380  14.784  14.868   9.396 -0.2036  0.1041  0.0529
  547ERGO    R2 6381  14.672  14.982   9.169  0.0183  0.0723 -0.0681
  547ERGO    R3 6382  14.895  14.883   9.050  0.0942 -0.0151  0.1383
  547ERGO    R4 6383  14.724  14.968   8.828  0.2432 -0.0971 -0.0301
  547ERGO    R5 6384  14.814  14.771   8.854  0.2067 -0.1035  0.1330
  547ERGO    C1 6385  14.963  14.867   8.517  0.4455 -0.2777  0.1856
  547ERGO    C2 6386  15.001  14.989   8.287 -0.1214 -0.0608  0.2606
  548ERGO   ROH 6387  10.136  17.973   9.323 -0.0333  0.0346 -0.2089
  548ERGO    R1 6388  10.192  17.971   9.045  0.0284  0.0084 -0.1952
  548ERGO    R2 6389  10.142  17.752   8.885 -0.2017  0.0944 -0.2342
  548ERGO    R3 6390  10.002  17.932   8.737  0.0506  0.2866 -0.2491
  548ERGO    R4 6391  10.051  17.708   8.554 -0.3898  0.1134 -0.1872
  548ERGO    R5 6392  10.099  17.918   8.519 -0.0388  0.0325 -0.2817
  548ERGO    C1 6393   9.867  17.851   8.223 -0.2622  0.3049 -0.1739
  548ERGO    C2 6394   9.829  17.601   8.042 -0.0927 -0.2060 -0.2570
  549ERGO   ROH 6395   7.844  14.849   9.280 -0.0043 -0.1080 -0.1317
  549ERGO    R1 6396   7.855  14.825   8.998 -0.0860  0.0298 -0.1479
  549ERGO    R2 6397   7.633  14.760   8.845 -0.1114  0.0172 -0.1077
  549ERGO    R3 6398   7.699  14.988   8.712 -0.2417  0.1062 -0.0205
  549ERGO    R4 6399   7.608  14.803   8.503  0.2896 -0.0267 -0.1473
  549ERGO    R5 6400   7.797  14.912   8.508  0.1417  0.2338  0.1088
  549ERGO    C1 6401   7.655  15.043   8.180  0.4008  0.0313 -0.0884
  549ERGO    C2 6402   7.530  14.973   7.992 -0.3861  0.2130 -0.0512
  550ERGO   ROH 6403  15.216  13.577   8.689  0.1999 -0.2769  0.0862
  550ERGO    R1 6404  15.482  13.675   8.709  0.1785 -0.2188  0.0665
  550ERGO    R2 6405  15.627  13.758   8.489  0.0892 -0.0554  0.0777
  550ERGO    R3 6406  15.655  13.986   8.635  0.0803 -0.1287  0.1983
  550ERGO    R4 6407  15.876  13.993   8.443  0.1192 -0.0553  0.2263
  550ERGO    R5 6408  15.892  14.012   8.659  0.0855 -0.1642  0.2473
  550ERGO    C1 6409  16.048  14.343   8.553  0.1283 -0.1239  0.4260
  550ERGO    C2 6410  16.058  14.697   8.493  0.3308  0.2707 -0.2566
  551ERGO   ROH 6411  15.658   9.531   9.716 -0.2149  0.1606  0.0660
  551ERGO    R1 6412  15.736   9.691   9.497 -0.0664  0.1219  0.0886
  551ERGO    R2 6413  15.999   9.753   9.443 -0.0194  0.0093  0.1819
  551ERGO    R3 6414  15.940   9.651   9.198  0.0257  0.0265  0.1646
  551ERGO    R4 6415  16.209   9.765   9.168  0.0196  0.0500  0.2135
  551ERGO    R5 6416  16.035   9.807   9.044  0.0357  0.0465  0.1923
  551ERGO    C1 6417  16.275   9.675   8.779  0.0848  0.0899  0.2157
  551ERGO    C2 6418  16.503   9.790   8.501 -0.3027  0.1995  0.0867
  552ERGO   ROH 6419   9.411  13.867   9.446  0.0607  0.0136 -0.1349
  552ERGO    R1 6420   9.451  13.823   9.169  0.0158  0.0022 -0.1389
  552ERGO    R2 6421   9.264  13.894   8.978  0.0184  0.0619 -0.1155
  552ERGO    R3 6422   9.474  14.027   8.869  0.0482 -0.0046 -0.1420
  552ERGO    R4 6423   9.297  13.970   8.643 -0.0643  0.1606 -0.1023
  552ERGO    R5 6424   9.509  13.921   8.657 -0.0803  0.0484 -0.1929
  552ERGO    C1 6425   9.513  14.139   8.345 -0.0844  0.1557 -0.1195
  552ERGO    C2 6426   9.470  14.309   8.103  0.3748  0.3120 -0.0738
  553ERGO   ROH 6427  11.185  15.424   9.639 -0.2420 -0.0660  0.1134
  553ERGO    R1 6428  11.114  15.397   9.367 -0.2938 -0.0361  0.1246
  553ERGO    R2 6429  10.921  15.555   9.248 -0.1015  0.1852  0.1049
  553ERGO    R3 6430  11.120  15.609   9.070 -0.0431 -0.1073  0.0755
  553ERGO    R4 6431  10.873  15.636   8.915 -0.0405  0.3081  0.1248
  553ERGO    R5 6432  11.045  15.512   8.865 -0.2418  0.0359  0.0752
  553ERGO    C1 6433  11.032  15.734   8.555  0.0501  0.1051  0.1091
  553ERGO    C2 6434  10.943  15.822   8.192  0.2161  0.0571  0.3736
  554ERGO   ROH 6435  17.001   4.750   9.491 -0.1562  0.3489  0.1172
  554ERGO    R1 6436  17.031   4.957   9.300 -0.0071  0.2379  0.0177
  554ERGO    R2 6437  17.157   4.918   9.057 -0.0254  0.0335  0.0379
  554ERGO    R3 6438  16.924   5.017   8.957  0.0449  0.1467 -0.0145
  554ERGO    R4 6439  17.110   5.023   8.731  0.0656 -0.0473 -0.0015
  554ERGO    R5 6440  16.993   5.190   8.807  0.1651  0.0524 -0.0684
  554ERGO    C1 6441  16.865   5.178   8.448  0.1846  0.0119 -0.0738
  554ERGO    C2 6442  16.675   5.307   8.111 -0.0168 -0.0540 -0.2145
  555ERGO   ROH 6443   4.925  13.808   8.950  0.0870 -0.2714 -0.1190
  555ERGO    R1 6444   4.870  14.006   8.756 -0.0688 -0.2309 -0.0368
  555ERGO    R2 6445   5.070  14.135   8.615 -0.1605  0.0503  0.0753
  555ERGO    R3 6446   4.928  14.050   8.399 -0.0163  0.0004 -0.0003
  555ERGO    R4 6447   5.060  14.296   8.309 -0.1236  0.0838  0.0920
  555ERGO    R5 6448   4.847  14.251   8.298 -0.0895 -0.0371 -0.0082
  555ERGO    C1 6449   4.920  14.309   7.928  0.0331  0.0565  0.0308
  555ERGO    C2 6450   4.878  14.260   7.641 -0.3739  0.2139 -0.2930
  556ERGO   ROH 6451  14.722   1.108  10.123 -0.3717 -0.0702  0.0993
  556ERGO    R1 6452  14.612   1.018   9.878 -0.2230 -0.0728  0.0330
  556ERGO    R2 6453  14.536   1.192   9.677 -0.2505 -0.0661  0.0512
  556ERGO    R3 6454  14.701   1.038   9.526 -0.0984  0.0737  0.0713
  556ERGO    R4 6455  14.509   1.149   9.335 -0.0351  0.0870  0.0123
  556ERGO    R5 6456  14.557   0.938   9.363  0.0352  0.0920 -0.0613
  556ERGO    C1 6457  14.648   0.979   8.994  0.2329  0.3073  0.0083
  556ERGO    C2 6458  14.832   1.079   8.633  0.0104  0.0883  0.0803
  557ERGO   ROH 6459   7.192   3.138   9.581  0.1283 -0.1196 -0.0476
  557ERGO    R1 6460   7.079   3.070   9.330 -0.1417 -0.0850  0.0588
  557ERGO    R2 6461   6.862   3.203   9.223 -0.0375  0.1788  0.1392
  557ERGO    R3 6462   7.028   3.234   9.010 -0.1204 -0.1596  0.0211
  557ERGO    R4 6463   6.758   3.264   8.899 -0.1235  0.2208  0.1754
  557ERGO    R5 6464   6.912   3.127   8.829 -0.3869 -0.0420  0.1296
  557ERGO    C1 6465   6.852   3.328   8.511 -0.2513 -0.0725  0.0857
  557ERGO    C2 6466   6.881   3.264   8.240  0.0560 -0.0453  0.1200
  558ERGO   ROH 6467  17.940   6.839   9.844 -0.0533  0.0926  0.0492
  558ERGO    R1 6468  17.928   6.968   9.592 -0.0203 -0.0146 -0.0069
  558ERGO    R2 6469  18.070   6.879   9.373  0.0687 -0.0604  0.0755
  558ERGO    R3 6470  17.826   6.880   9.254  0.1047 -0.1819 -0.0044
  558ERGO    R4 6471  18.017   6.897   9.032  0.1814  0.4720  0.0758
  558ERGO    R5 6472  17.850   7.032   9.070 -0.0231  0.1889  0.2660
  558ERGO    C1 6473  17.755   6.908   8.722  0.2805  0.6679  0.0010
  558ERGO    C2 6474  17.503   6.841   8.469 -0.2416  0.2796  0.1554
  559ERGO   ROH 6475  14.567  17.917   9.750 -0.2799  0.3075 -0.1954
  559ERGO    R1 6476  14.457  17.808   9.513 -0.0574  0.0809 -0.1989
  559ERGO    R2 6477  14.259  17.935   9.369 -0.1480 -0.2041 -0.3379
  559ERGO    R3 6478  14.435  17.904   9.163 -0.0226 -0.0889 -0.2484
  559ERGO    R4 6479  14.175  17.826   9.052  0.0865 -0.2742 -0.3770
  559ERGO    R5 6480  14.359  17.708   9.049  0.1710 -0.1463 -0.2814
  559ERGO    C1 6481  14.291  17.734   8.674  0.3408 -0.2069 -0.3158
  559ERGO    C2 6482  14.062  17.747   8.366 -0.1054 -0.2084  0.0126
  560ERGO   ROH 6483   8.952   2.278   9.910  0.0739  0.0279 -0.0501
  560ERGO    R1 6484   9.104   2.284   9.672 -0.1927  0.1418 -0.2197
  560ERGO    R2 6485   9.229   2.061   9.568  0.1723  0.3107 -0.1432
  560ERGO    R3 6486   9.090   2.126   9.344 -0.2108 -0.1841 -0.0665
  560ERGO    R4 6487   9.348   2.028   9.246 -0.0441  0.3547 -0.2301
  560ERGO    R5 6488   9.254   2.218   9.197 -0.5567  0.1111 -0.2917
  560ERGO    C1 6489   9.286   2.069   8.847 -0.5299 -0.0841 -0.2088
  560ERGO    C2 6490   9.321   1.913   8.557  0.0454  0.0335  0.1100
  561ERGO   ROH 6491  12.878   5.622  10.057  0.2607  0.2318  0.1466
  561ERGO    R1 6492  12.829   5.533   9.793  0.1081  0.1841  0.1901
  561ERGO    R2 6493  12.707   5.692   9.602  0.1610  0.2138  0.1803
  561ERGO    R3 6494  12.929   5.632   9.458  0.0706  0.0057  0.1252
  561ERGO    R4 6495  12.767   5.797   9.279  0.2076  0.2139  0.1893
  561ERGO    R5 6496  12.848   5.600   9.234 -0.0087  0.1338  0.1348
  561ERGO    C1 6497  13.011   5.802   8.954  0.1499  0.0185  0.1428
  561ERGO    C2 6498  13.114   5.860   8.544 -0.1094 -0.1378  0.2579
  562ERGO   ROH 6499   0.743   8.917   9.755  0.0896  0.1537 -0.0744
  562ERGO    R1 6500   0.863   8.936   9.499  0.1162  0.0234 -0.0719
  562ERGO    R2 6501   0.891   8.719   9.331 -0.0439 -0.0214 -0.0391
  562ERGO    R3 6502   0.762   8.879   9.154  0.0895  0.0519 -0.0684
  562ERGO    R4 6503   0.855   8.651   8.995  0.0034  0.0049 -0.0498
  562ERGO    R5 6504   0.891   8.862   8.953  0.1298 -0.0158 -0.0362
  562ERGO    C1 6505   0.712   8.761   8.632  0.1561  0.0890 -0.0836
  562ERGO    C2 6506   0.662   8.730   8.320  0.1359  0.1970  0.1977
  563ERGO   ROH 6507   4.981  15.213   9.607  0.1448 -0.0681  0.0329
  563ERGO    R1 6508   4.840  15.291   9.374  0.1056 -0.1469  0.0296
  563ERGO    R2 6509   4.881  15.535   9.250 -0.0405 -0.1154  0.0402
  563ERGO    R3 6510   4.924  15.379   9.032  0.0662 -0.0816  0.0366
  563ERGO    R4 6511   4.837  15.637   8.923 -0.1103 -0.1376  0.0427
  563ERGO    R5 6512   4.750  15.442   8.879  0.0228 -0.1962  0.0379
  563ERGO    C1 6513   4.851  15.551   8.528 -0.0509 -0.1186  0.0409
  563ERGO    C2 6514   4.889  15.725   8.350  0.0695 -0.0738 -0.1129
  564ERGO   ROH 6515   6.024  12.740   9.164  0.0090  0.0536  0.1395
  564ERGO    R1 6516   6.058  12.888   8.925 -0.1643  0.0041  0.0835
  564ERGO    R2 6517   6.305  12.974   8.837 -0.2599  0.2287  0.0337
  564ERGO    R3 6518   6.233  12.844   8.609 -0.1446  0.0726  0.0841
  564ERGO    R4 6519   6.479  12.987   8.538 -0.2080  0.1789  0.0614
  564ERGO    R5 6520   6.288  12.996   8.433 -0.1967  0.0189  0.0186
  564ERGO    C1 6521   6.512  12.871   8.151 -0.0695  0.0034  0.1250
  564ERGO    C2 6522   6.769  12.821   7.924 -0.0663  0.0783  0.1485
  565ERGO   ROH 6523   4.845  17.614   9.596  0.0305  0.1437  0.0878
  565ERGO    R1 6524   4.976  17.667   9.351  0.2911 -0.1185  0.1637
  565ERGO    R2 6525   5.053  17.467   9.177 -0.1204 -0.2816  0.1540
  565ERGO    R3 6526   4.909  17.612   8.998  0.3169  0.1350  0.1180
  565ERGO    R4 6527   5.091  17.453   8.833 -0.0206 -0.3136  0.1663
  565ERGO    R5 6528   5.066  17.669   8.826  0.5399 -0.2337  0.1918
  565ERGO    C1 6529   4.978  17.580   8.466  0.4480  0.0589  0.1397
  565ERGO    C2 6530   4.781  17.481   8.096 -0.2049 -0.0303 -0.3260
  566ERGO   ROH 6531   9.858   1.466   9.668 -0.0994 -0.0003 -0.1613
  566ERGO    R1 6532  10.013   1.376   9.449 -0.0553 -0.0507 -0.1107
  566ERGO    R2 6533   9.899   1.293   9.211 -0.0094 -0.1190 -0.1120
  566ERGO    R3 6534  10.066   1.479   9.104  0.0004 -0.1373 -0.1274
  566ERGO    R4 6535   9.990   1.310   8.878  0.1447 -0.2620 -0.0781
  566ERGO    R5 6536  10.192   1.359   8.940  0.1028 -0.1888 -0.0089
  566ERGO    C1 6537  10.199   1.494   8.583  0.2435 -0.3625 -0.0728
  566ERGO    C2 6538  10.187   1.510   8.214 -0.0955  0.3882 -0.1461
  567ERGO   ROH 6539   9.196  16.890   9.210 -0.1999 -0.2991  0.1963
  567ERGO    R1 6540   9.171  16.758   8.961 -0.0038 -0.2519  0.1485
  567ERGO    R2 6541   9.100  16.890   8.730 -0.1847 -0.2672  0.1868
  567ERGO    R3 6542   9.329  16.779   8.634 -0.0157  0.0889  0.1628
  567ERGO    R4 6543   9.157  16.809   8.398 -0.1882 -0.4171  0.2230
  567ERGO    R5 6544   9.255  16.626   8.465  0.1918 -0.1842  0.3169
  567ERGO    C1 6545   9.406  16.657   8.116 -0.0314 -0.1700  0.2216
  567ERGO    C2 6546   9.573  16.504   7.768 -0.2394 -0.2375  0.0304
  568ERGO   ROH 6547  11.079  17.479   9.512 -0.0706  0.1586 -0.0682
  568ERGO    R1 6548  11.158  17.389   9.256  0.0192  0.2402 -0.0689
  568ERGO    R2 6549  10.991  17.241   9.092  0.1635  0.0847 -0.0725
  568ERGO    R3 6550  11.045  17.438   8.913 -0.0227  0.1411 -0.0705
  568ERGO    R4 6551  10.992  17.201   8.749  0.1458  0.1014 -0.0753
  568ERGO    R5 6552  11.169  17.329   8.739  0.0438  0.2482 -0.0943
  568ERGO    C1 6553  11.044  17.363   8.381 -0.0393  0.1641 -0.0750
  568ERGO    C2 6554  11.011  17.347   8.100 -0.2366 -0.1134 -0.0531
  569ERGO   ROH 6555  12.685   0.308   9.757 -0.1752 -0.1148 -0.1429
  569ERGO    R1 6556  12.606   0.209   9.505 -0.2249  0.0437 -0.1934
  569ERGO    R2 6557  12.519   0.374   9.300  0.0251  0.2091 -0.1867
  569ERGO    R3 6558  12.714   0.248   9.160 -0.0754  0.0106 -0.1469
  569ERGO    R4 6559  12.516   0.320   8.958  0.0036  0.0890 -0.1665
  569ERGO    R5 6560  12.598   0.122   8.993 -0.1560  0.0474 -0.1042
  569ERGO    C1 6561  12.697   0.171   8.628 -0.1033 -0.1674 -0.1173
  569ERGO    C2 6562  12.709   0.160   8.246 -0.0091 -0.0964  0.3297
  570ERGO   ROH 6563  10.638   3.779   9.921  0.0216 -0.0999  0.1462
  570ERGO    R1 6564  10.611   3.743   9.642 -0.1170 -0.0473  0.1522
  570ERGO    R2 6565  10.822   3.667   9.481 -0.1844  0.0370  0.0254
  570ERGO    R3 6566  10.652   3.469   9.405 -0.1765  0.0123  0.0715
  570ERGO    R4 6567  10.840   3.495   9.181 -0.2257  0.0295  0.0271
  570ERGO    R5 6568  10.622   3.503   9.170 -0.2317  0.0016  0.0751
  570ERGO    C1 6569  10.690   3.210   8.936 -0.2425  0.0019  0.0714
  570ERGO    C2 6570  10.866   2.937   8.844 -0.1217 -0.0606  0.1173
  571ERGO   ROH 6571   4.913   0.366   9.593 -0.3783 -0.1742 -0.0716
  571ERGO    R1 6572   4.773   0.478   9.374 -0.3653 -0.0939 -0.0396
  571ERGO    R2 6573   4.903   0.578   9.151 -0.3425  0.1085  0.0563
  571ERGO    R3 6574   4.738   0.407   9.019 -0.2298  0.1152 -0.0955
  571ERGO    R4 6575   4.802   0.614   8.822 -0.0004  0.0685 -0.0567
  571ERGO    R5 6576   4.603   0.549   8.881 -0.0679  0.1070 -0.2582
  571ERGO    C1 6577   4.589   0.475   8.507  0.3045  0.0515 -0.2650
  571ERGO    C2 6578   4.382   0.334   8.266 -0.0996 -0.1224  0.2083
  572ERGO   ROH 6579  11.676   7.880   9.766  0.3797 -0.2577 -0.0622
  572ERGO    R1 6580  11.565   7.983   9.527  0.3313 -0.1753 -0.0047
  572ERGO    R2 6581  11.678   8.194   9.391  0.3043 -0.1292  0.0440
  572ERGO    R3 6582  11.671   8.021   9.181  0.2606 -0.0578 -0.0139
  572ERGO    R4 6583  11.755   8.278   9.064  0.0323  0.0331  0.0181
  572ERGO    R5 6584  11.588   8.153   8.999  0.0586 -0.0392  0.0891
  572ERGO    C1 6585  11.794   8.164   8.677 -0.1671  0.1949 -0.0513
  572ERGO    C2 6586  11.898   8.232   8.320  0.0564  0.0338 -0.1242
  573ERGO   ROH 6587  18.414  11.398   9.566 -0.1451 -0.1553 -0.0580
  573ERGO    R1 6588  18.218  11.371   9.362 -0.0834 -0.0021 -0.1400
  573ERGO    R2 6589  18.195  11.551   9.154  0.1708 -0.0026 -0.1778
  573ERGO    R3 6590  18.217  11.328   9.001  0.0374 -0.0452 -0.1346
  573ERGO    R4 6591  18.114  11.534   8.819  0.2666  0.0029 -0.2007
  573ERGO    R5 6592  18.027  11.337   8.855  0.0952  0.0831 -0.1976
  573ERGO    C1 6593  18.088  11.314   8.479  0.1972 -0.0340 -0.1736
  573ERGO    C2 6594  18.269  11.247   8.208  0.4113  0.0669  0.0206
  574ERGO   ROH 6595  13.243  15.633   9.634  0.0115  0.0527 -0.0260
  574ERGO    R1 6596  13.381  15.715   9.401  0.1081 -0.1680 -0.0490
  574ERGO    R2 6597  13.428  15.546   9.187 -0.3078 -0.2177 -0.1071
  574ERGO    R3 6598  13.306  15.743   9.046  0.0442  0.0739 -0.0187
  574ERGO    R4 6599  13.479  15.609   8.852 -0.4944 -0.4337 -0.1798
  574ERGO    R5 6600  13.475  15.822   8.896  0.1043 -0.3963 -0.2180
  574ERGO    C1 6601  13.395  15.832   8.523 -0.2726 -0.2858 -0.1393
  574ERGO    C2 6602  13.226  15.951   8.277  0.0336 -0.4339 -0.2842
  575ERGO   ROH 6603  10.634   2.039   9.719 -0.0867  0.0288  0.0855
  575ERGO    R1 6604  10.566   2.164   9.475 -0.0637  0.0602  0.0955
  575ERGO    R2 6605  10.743   2.326   9.336 -0.0429  0.0578  0.1213
  575ERGO    R3 6606  10.687   2.157   9.131 -0.0487  0.0850  0.0999
  575ERGO    R4 6607  10.829   2.380   9.006 -0.0390  0.0964  0.1283
  575ERGO    R5 6608  10.635   2.301   8.948 -0.0425  0.1108  0.1175
  575ERGO    C1 6609  10.827   2.252   8.622 -0.0420  0.1443  0.1124
  575ERGO    C2 6610  10.920   2.126   8.400 -0.0677  0.1301 -0.2047
  576ERGO   ROH 6611   4.088  15.784   9.548  0.1944 -0.3003 -0.1099
  576ERGO    R1 6612   3.997  16.011   9.405  0.2342 -0.2169 -0.0052
  576ERGO    R2 6613   4.056  16.053   9.138  0.0862 -0.1983 -0.0398
  576ERGO    R3 6614   3.786  16.074   9.115  0.0814 -0.0377  0.1432
  576ERGO    R4 6615   3.888  16.140   8.849 -0.0665 -0.1247  0.0702
  576ERGO    R5 6616   3.753  16.261   8.969  0.0899 -0.0338  0.1513
  576ERGO    C1 6617   3.537  16.210   8.659 -0.1600  0.0686  0.3061
  576ERGO    C2 6618   3.449  16.293   8.432  0.0762  0.0642  0.1591
  577ERGO   ROH 6619  18.513  16.640   9.682  0.1287 -0.0290  0.0544
  577ERGO    R1 6620  18.711  16.719   9.495 -0.0004 -0.0229 -0.0807
  577ERGO    R2 6621  18.951  16.584   9.467  0.0183  0.0397 -0.1807
  577ERGO    R3 6622  18.876  16.571   9.206 -0.1218 -0.0511 -0.1379
  577ERGO    R4 6623  19.153  16.476   9.209  0.0306  0.3403 -0.3016
  577ERGO    R5 6624  19.072  16.636   9.085 -0.2757  0.2395 -0.2494
  577ERGO    C1 6625  19.201  16.401   8.813 -0.0937  0.4298 -0.3318
  577ERGO    C2 6626  19.277  16.281   8.450 -0.1059  0.1464  0.1036
  578ERGO   ROH 6627   9.896  12.282   9.459  0.1087  0.0128  0.0027
  578ERGO    R1 6628   9.865  12.345   9.185 -0.0045  0.0335  0.0189
  578ERGO    R2 6629  10.010  12.546   9.061  0.0214 -0.0218 -0.0515
  578ERGO    R3 6630  10.076  12.347   8.889 -0.1522 -0.0504 -0.0864
  578ERGO    R4 6631  10.129  12.594   8.740  0.2701 -0.0726  0.0318
  578ERGO    R5 6632  10.005  12.427   8.675  0.0800  0.1218 -0.0980
  578ERGO    C1 6633  10.261  12.435   8.392  0.2518 -0.1290  0.0475
  578ERGO    C2 6634  10.504  12.304   8.051 -0.1543 -0.1642 -0.1875
  579ERGO   ROH 6635  16.954   1.169   9.758  0.0725  0.2094 -0.1303
  579ERGO    R1 6636  16.864   1.084   9.504 -0.1058  0.0451 -0.0128
  579ERGO    R2 6637  17.023   1.093   9.279 -0.3259  0.0733 -0.1602
  579ERGO    R3 6638  16.959   0.830   9.261 -0.1545  0.0171 -0.0067
  579ERGO    R4 6639  17.075   0.896   9.000 -0.3284 -0.0031 -0.1083
  579ERGO    R5 6640  16.881   0.803   9.036 -0.2560 -0.1266  0.0361
  579ERGO    C1 6641  17.045   0.533   8.821 -0.1691 -0.1005  0.0660
  579ERGO    C2 6642  17.067   0.596   8.451  0.1810 -0.1240 -0.3596
  580ERGO   ROH 6643   7.521   4.768   9.706  0.0759 -0.0574  0.0025
  580ERGO    R1 6644   7.438   4.640   9.467  0.0741 -0.2507  0.1048
  580ERGO    R2 6645   7.431   4.771   9.223 -0.2777 -0.3394  0.0640
  580ERGO    R3 6646   7.587   4.563   9.144 -0.0512 -0.1589  0.0241
  580ERGO    R4 6647   7.556   4.727   8.904 -0.2486 -0.1556  0.0490
  580ERGO    R5 6648   7.514   4.515   8.921 -0.0136 -0.2080  0.0216
  580ERGO    C1 6649   7.775   4.507   8.644 -0.0189  0.1209  0.0029
  580ERGO    C2 6650   8.084   4.452   8.427  0.0070 -0.1769 -0.1821
  581ERGO   ROH 6651   3.378   7.726   9.708 -0.1234 -0.1487  0.0735
  581ERGO    R1 6652   3.451   7.747   9.435 -0.1002 -0.1323  0.0803
  581ERGO    R2 6653   3.333   7.594   9.237 -0.0341 -0.1727  0.0684
  581ERGO    R3 6654   3.285   7.836   9.123 -0.0948 -0.1883  0.0621
  581ERGO    R4 6655   3.406   7.676   8.910 -0.0604 -0.1609  0.0660
  581ERGO    R5 6656   3.473   7.872   8.979 -0.1082 -0.1448  0.0586
  581ERGO    C1 6657   3.404   7.952   8.612 -0.1327 -0.1687  0.0587
  581ERGO    C2 6658   3.533   8.010   8.313 -0.1669 -0.2127 -0.1367
  582ERGO   ROH 6659   7.314   3.576   9.070 -0.1556  0.1370 -0.0467
  582ERGO    R1 6660   7.370   3.557   8.793  0.0408  0.0641 -0.0040
  582ERGO    R2 6661   7.534   3.362   8.687 -0.1082 -0.1412  0.1306
  582ERGO    R3 6662   7.319   3.313   8.529 -0.0501  0.1173 -0.0351
  582ERGO    R4 6663   7.544   3.186   8.390 -0.0947 -0.1479  0.1352
  582ERGO    R5 6664   7.404   3.330   8.306  0.1398  0.0208  0.0292
  582ERGO    C1 6665   7.348   3.037   8.068 -0.0322  0.0909 -0.0176
  582ERGO    C2 6666   7.560   2.883   7.819 -0.3728  0.0318 -0.0041
  583ERGO   ROH 6667  18.163   4.815   9.529  0.1452 -0.3215 -0.0971
  583ERGO    R1 6668  18.053   4.888   9.279  0.1379 -0.0935 -0.0300
  583ERGO    R2 6669  18.200   5.017   9.084  0.1893 -0.0933  0.0083
  583ERGO    R3 6670  18.117   4.810   8.929 -0.0083  0.0567 -0.0914
  583ERGO    R4 6671  18.290   4.969   8.754  0.4106 -0.1914  0.0810
  583ERGO    R5 6672  18.085   4.907   8.712  0.3402  0.1414 -0.1107
  583ERGO    C1 6673  18.264   4.746   8.416  0.3541 -0.1077  0.0296
  583ERGO    C2 6674  18.433   4.648   8.173 -0.2789 -0.1197  0.2117
  584ERGO   ROH 6675  14.833  18.081   9.320 -0.1142  0.0042  0.1350
  584ERGO    R1 6676  14.916  18.088   9.050  0.1054  0.0628  0.2009
  584ERGO    R2 6677  14.762  17.986   8.844  0.4254 -0.2202  0.0880
  584ERGO    R3 6678  14.794  18.235   8.740  0.1415 -0.1907  0.0652
  584ERGO    R4 6679  14.791  18.056   8.507  0.2683 -0.2080  0.0770
  584ERGO    R5 6680  14.944  18.203   8.556  0.1292 -0.0451  0.0300
  584ERGO    C1 6681  14.838  18.331   8.213 -0.0898 -0.1731  0.0491
  584ERGO    C2 6682  14.637  18.321   7.918  0.1631  0.0958  0.0913
  585ERGO   ROH 6683   9.348  18.344   7.353 -0.2325  0.1220 -0.0258
  585ERGO    R1 6684   9.178  18.504   7.512 -0.1875  0.3219 -0.1743
  585ERGO    R2 6685   9.200  18.516   7.788 -0.5771  0.0815 -0.1246
  585ERGO    R3 6686   9.216  18.784   7.742 -0.0154  0.0951  0.0789
  585ERGO    R4 6687   9.076  18.761   7.998 -0.5985  0.1534 -0.2193
  585ERGO    R5 6688   9.009  18.871   7.823 -0.0466  0.3974 -0.2991
  585ERGO    C1 6689   9.020  19.154   8.078 -0.0835  0.2079 -0.0835
  585ERGO    C2 6690   9.027  19.527   8.225  0.0422 -0.0314  0.1635
  586ERGO   ROH 6691   9.641  15.846   9.358  0.0375  0.3882 -0.2028
  586ERGO    R1 6692   9.565  15.705   9.125  0.0962  0.1751 -0.0942
  586ERGO    R2 6693   9.476  15.831   8.896 -0.0682 -0.0456 -0.1502
  586ERGO    R3 6694   9.674  15.688   8.778  0.0201  0.0439 -0.1141
  586ERGO    R4 6695   9.488  15.754   8.560  0.0022 -0.0638 -0.1440
  586ERGO    R5 6696   9.561  15.555   8.614  0.0989 -0.0282 -0.1167
  586ERGO    C1 6697   9.682  15.574   8.252  0.1262  0.0096 -0.1065
  586ERGO    C2 6698   9.833  15.529   7.849 -0.1012 -0.0031  0.0702
  587ERGO   ROH 6699   6.806   0.982   9.546  0.2906  0.2828  0.0226
  587ERGO    R1 6700   6.615   0.925   9.345  0.3294  0.1332  0.0281
  587ERGO    R2 6701   6.439   1.114   9.249  0.0781 -0.0424  0.1398
  587ERGO    R3 6702   6.543   1.043   9.008  0.1302  0.1916  0.0892
  587ERGO    R4 6703   6.274   1.143   8.946 -0.0267 -0.1426  0.1857
  587ERGO    R5 6704   6.357   0.950   8.888  0.2255 -0.0142  0.0922
  587ERGO    C1 6705   6.276   1.093   8.544 -0.0387  0.0187  0.1652
  587ERGO    C2 6706   6.264   1.138   8.190  0.1796  0.2165 -0.0227
  588ERGO   ROH 6707   9.372   4.509  10.191  0.0078  0.0763  0.0458
  588ERGO    R1 6708   9.490   4.570   9.941  0.0356 -0.0519  0.0270
  588ERGO    R2 6709   9.512   4.384   9.738 -0.1255 -0.1009  0.0533
  588ERGO    R3 6710   9.383   4.575   9.593  0.0101 -0.0211  0.0352
  588ERGO    R4 6711   9.511   4.403   9.393 -0.0371 -0.0777  0.0538
  588ERGO    R5 6712   9.530   4.620   9.409  0.0765 -0.0885  0.0712
  588ERGO    C1 6713   9.389   4.592   9.056  0.1415  0.0107  0.0371
  588ERGO    C2 6714   9.258   4.608   8.739  0.1092  0.1212 -0.2284
  589ERGO   ROH 6715   3.870   0.245   9.901 -0.1213  0.0274  0.1138
  589ERGO    R1 6716   4.029   0.139   9.693 -0.1055  0.1371  0.0702
  589ERGO    R2 6717   4.038  -0.131   9.635  0.1486  0.1293  0.1407
  589ERGO    R3 6718   3.973  -0.046   9.384 -0.0543 -0.0058  0.1458
  589ERGO    R4 6719   4.121  -0.296   9.343  0.3434  0.2214  0.1418
  589ERGO    R5 6720   4.164  -0.103   9.251  0.0082  0.2846  0.1047
  589ERGO    C1 6721   4.109  -0.313   8.938  0.2663  0.1486  0.1473
  589ERGO    C2 6722   3.975  -0.439   8.615 -0.2101 -0.0062 -0.2038
  590ERGO   ROH 6723  13.054  16.580   9.629  0.2412 -0.2549 -0.1681
  590ERGO    R1 6724  12.949  16.568   9.367  0.2060 -0.2201 -0.1555
  590ERGO    R2 6725  12.770  16.755   9.270  0.0321 -0.3210 -0.0378
  590ERGO    R3 6726  12.953  16.779   9.070 -0.0191 -0.0759 -0.0583
  590ERGO    R4 6727  12.704  16.884   8.956 -0.0581  0.0090  0.1117
  590ERGO    R5 6728  12.831  16.728   8.871 -0.0543  0.1208 -0.0875
  590ERGO    C1 6729  12.837  16.981   8.586 -0.1587  0.4311  0.1795
  590ERGO    C2 6730  12.758  17.078   8.275  0.3599 -0.3326 -0.5078
  591ERGO   ROH 6731  12.548  12.214   9.968 -0.0361  0.3949 -0.0203
  591ERGO    R1 6732  12.794  12.162   9.839 -0.0082  0.3490  0.0513
  591ERGO    R2 6733  12.815  11.991   9.623  0.0510  0.2111  0.1636
  591ERGO    R3 6734  12.932  12.207   9.506  0.0352  0.1552  0.0422
  591ERGO    R4 6735  13.035  11.977   9.356 -0.0933  0.0977  0.0485
  591ERGO    R5 6736  13.153  12.133   9.451 -0.0095  0.0972 -0.0574
  591ERGO    C1 6737  13.272  12.172   9.091 -0.1920 -0.0208 -0.1324
  591ERGO    C2 6738  13.496  12.362   8.913 -0.0087 -0.0341  0.2044
  592ERGO   ROH 6739   6.609  11.648   9.591  0.0110  0.2338 -0.1798
  592ERGO    R1 6740   6.660  11.543   9.333 -0.1547  0.1423 -0.1778
  592ERGO    R2 6741   6.522  11.626   9.108 -0.0700  0.3124 -0.1718
  592ERGO    R3 6742   6.771  11.674   9.012 -0.0103 -0.0285 -0.1982
  592ERGO    R4 6743   6.621  11.571   8.782 -0.1990  0.2529 -0.2012
  592ERGO    R5 6744   6.811  11.495   8.858 -0.2963 -0.0473 -0.2522
  592ERGO    C1 6745   6.913  11.584   8.501 -0.2181 -0.1018 -0.2430
  592ERGO    C2 6746   6.902  11.624   8.149  0.0214 -0.1408  0.0783
  593ERGO   ROH 6747  16.096   2.310   9.758 -0.0301 -0.2348 -0.3188
  593ERGO    R1 6748  15.966   2.422   9.533 -0.0452 -0.0599 -0.2251
  593ERGO    R2 6749  15.963   2.694   9.484 -0.0552 -0.0150 -0.0122
  593ERGO    R3 6750  16.063   2.619   9.243 -0.0625  0.1722 -0.0743
  593ERGO    R4 6751  15.916   2.867   9.188 -0.0401  0.2193  0.1208
  593ERGO    R5 6752  15.891   2.676   9.087 -0.0529  0.3067 -0.0308
  593ERGO    C1 6753  15.983   2.898   8.790 -0.0382  0.5314  0.1398
  593ERGO    C2 6754  15.886   2.995   8.540  0.0480  0.1061 -0.0022
  594ERGO   ROH 6755   9.679  14.227   9.486  0.1402  0.1243  0.0558
  594ERGO    R1 6756   9.603  14.243   9.213  0.0469 -0.0070  0.0729
  594ERGO    R2 6757   9.562  14.484   9.084 -0.0598 -0.0697 -0.0131
  594ERGO    R3 6758   9.743  14.383   8.908 -0.0897 -0.0930 -0.0303
  594ERGO    R4 6759   9.600  14.589   8.757  0.0432  0.0488  0.0368
  594ERGO    R5 6760   9.628  14.382   8.698 -0.0611  0.0585 -0.0475
  594ERGO    C1 6761   9.793  14.557   8.402  0.0753  0.0960  0.0497
  594ERGO    C2 6762  10.015  14.712   8.185 -0.2003  0.0360 -0.3004
  595ERGO   ROH 6763  10.882   4.143   9.673  0.2133  0.0446 -0.1455
  595ERGO    R1 6764  10.837   4.163   9.394  0.3228  0.0354 -0.1642
  595ERGO    R2 6765  11.027   4.091   9.208  0.2970 -0.2406 -0.0898
  595ERGO    R3 6766  10.827   3.934   9.111  0.1327 -0.0219 -0.1128
  595ERGO    R4 6767  11.052   3.889   8.928  0.0891 -0.2253 -0.1208
  595ERGO    R5 6768  10.849   3.949   8.873  0.1472 -0.0079 -0.1112
  595ERGO    C1 6769  10.879   3.624   8.675 -0.1862 -0.0111 -0.1604
  595ERGO    C2 6770  10.976   3.513   8.466  0.1990  0.1266  0.1536
  596ERGO   ROH 6771  10.547   0.292   9.352  0.7013 -0.0984 -0.0376
  596ERGO    R1 6772  10.446   0.406   9.114  0.2714 -0.1854  0.0928
  596ERGO    R2 6773  10.610   0.514   8.919 -0.0957  0.2772  0.0176
  596ERGO    R3 6774  10.476   0.343   8.756  0.1483  0.0620  0.0365
  596ERGO    R4 6775  10.547   0.570   8.584 -0.3003  0.2194  0.0455
  596ERGO    R5 6776  10.348   0.486   8.613 -0.1508 -0.1361  0.0971
  596ERGO    C1 6777  10.385   0.442   8.236 -0.1904 -0.0164  0.0794
  596ERGO    C2 6778  10.454   0.645   8.021  0.1807  0.1707 -0.1701
  597ERGO   ROH 6779   5.185  13.404   8.994 -0.0980  0.0666  0.0904
  597ERGO    R1 6780   5.265  13.542   8.760  0.0188 -0.0244  0.0763
  597ERGO    R2 6781   5.251  13.429   8.509 -0.1537 -0.0099  0.0799
  597ERGO    R3 6782   5.108  13.654   8.451  0.0902  0.1552  0.1034
  597ERGO    R4 6783   5.259  13.595   8.205 -0.2215 -0.1835 -0.0186
  597ERGO    R5 6784   5.257  13.784   8.315  0.1408 -0.1157 -0.1118
  597ERGO    C1 6785   5.130  13.902   7.975 -0.0320 -0.1296 -0.0539
  597ERGO    C2 6786   5.112  13.806   7.576 -0.0818 -0.0995 -0.0932
  598ERGO   ROH 6787  13.389   7.152   9.593  0.1352  0.0592  0.1872
  598ERGO    R1 6788  13.284   7.105   9.334 -0.0414 -0.1832  0.2984
  598ERGO    R2 6789  13.358   7.254   9.114 -0.4810 -0.1259  0.1730
  598ERGO    R3 6790  13.415   7.010   9.009 -0.1968 -0.0745  0.2041
  598ERGO    R4 6791  13.335   7.172   8.779 -0.4090 -0.2095  0.1893
  598ERGO    R5 6792  13.252   6.979   8.836 -0.1719 -0.2989  0.2228
  598ERGO    C1 6793  13.376   6.895   8.485 -0.1002 -0.2099  0.2281
  598ERGO    C2 6794  13.689   6.745   8.320 -0.0007  0.0103  0.0024
  599ERGO   ROH 6795  15.708   7.719  10.237  0.1969  0.1507 -0.0000
  599ERGO    R1 6796  15.805   7.703   9.972  0.0110  0.1147 -0.0668
  599ERGO    R2 6797  15.964   7.496   9.884  0.0461  0.1695 -0.1130
  599ERGO    R3 6798  15.774   7.473   9.691 -0.0794  0.0112  0.0245
  599ERGO    R4 6799  16.008   7.335   9.581 -0.0552  0.1273 -0.1066
  599ERGO    R5 6800  15.895   7.496   9.485 -0.2259  0.0440 -0.0666
  599ERGO    C1 6801  15.855   7.221   9.223 -0.2320 -0.0459  0.0262
  599ERGO    C2 6802  15.734   6.937   8.982  0.0388 -0.0080 -0.0108
  600ERGO   ROH 6803   0.100   2.009  10.076 -0.1895 -0.2312 -0.1080
  600ERGO    R1 6804   0.259   2.159   9.897  0.0429 -0.2608  0.0688
  600ERGO    R2 6805   0.383   2.047   9.677 -0.1836 -0.1887 -0.0993
  600ERGO    R3 6806   0.251   2.243   9.543  0.1265  0.2238  0.1740
  600ERGO    R4 6807   0.498   2.201   9.390 -0.1172 -0.2652 -0.1138
  600ERGO    R5 6808   0.425   2.391   9.468  0.4083 -0.1302  0.0989
  600ERGO    C1 6809   0.442   2.474   9.097  0.2127  0.0775  0.1346
  600ERGO    C2 6810   0.320   2.561   8.757 -0.0381  0.1788  0.2949
  601ERGO   ROH 6811  11.912  16.566   9.569 -0.1207  0.1949  0.1960
  601ERGO    R1 6812  11.765  16.617   9.332 -0.2089 -0.0377  0.1998
  601ERGO    R2 6813  11.848  16.798   9.141 -0.4510  0.0204  0.1552
  601ERGO    R3 6814  11.821  16.586   8.974 -0.2110 -0.0486  0.1987
  601ERGO    R4 6815  11.920  16.801   8.803 -0.4298  0.0347  0.1585
  601ERGO    R5 6816  11.743  16.680   8.769 -0.3036 -0.1693  0.1721
  601ERGO    C1 6817  11.937  16.603   8.449 -0.1922 -0.0219  0.2013
  601ERGO    C2 6818  11.925  16.443   8.141  0.2078 -0.0864  0.0514
  602ERGO   ROH 6819  15.319  15.839   9.419 -0.0235  0.1487  0.0316
  602ERGO    R1 6820  15.301  15.847   9.137 -0.0168  0.2104  0.0319
  602ERGO    R2 6821  15.084  15.748   8.999  0.0586  0.0851 -0.0048
  602ERGO    R3 6822  15.081  15.996   8.889 -0.1184  0.1143  0.0649
  602ERGO    R4 6823  14.994  15.818   8.672  0.3732  0.0653 -0.0989
  602ERGO    R5 6824  15.157  15.963   8.664  0.2041  0.2744  0.1464
  602ERGO    C1 6825  14.938  16.092   8.380  0.3903  0.0810 -0.0882
  602ERGO    C2 6826  14.715  16.254   8.233  0.1581 -0.1686 -0.0740
  603ERGO   ROH 6827  18.493  18.423   9.751  0.2388 -0.1682 -0.0125
  603ERGO    R1 6828  18.581  18.404   9.483  0.1843 -0.1673 -0.0312
  603ERGO    R2 6829  18.438  18.508   9.271  0.1007 -0.2370 -0.0114
  603ERGO    R3 6830  18.673  18.635   9.217  0.0466 -0.1643 -0.0772
  603ERGO    R4 6831  18.539  18.615   8.958  0.0882 -0.4393 -0.0846
  603ERGO    R5 6832  18.741  18.548   9.005  0.1168 -0.3041  0.0000
  603ERGO    C1 6833  18.818  18.796   8.725  0.0301 -0.4891 -0.1891
  603ERGO    C2 6834  18.856  19.111   8.514 -0.0758 -0.1443 -0.0131
  604ERGO   ROH 6835   9.977  11.861   9.699  0.3705  0.0181 -0.0445
  604ERGO    R1 6836  10.136  11.882   9.466  0.2401 -0.0915 -0.1445
  604ERGO    R2 6837  10.123  11.699   9.259 -0.0629 -0.0462 -0.1654
  604ERGO    R3 6838  10.079  11.922   9.109  0.0452  0.0192 -0.1030
  604ERGO    R4 6839  10.257  11.757   8.945 -0.2051 -0.1234 -0.2427
  604ERGO    R5 6840  10.288  11.965   9.002  0.0216 -0.1572 -0.2284
  604ERGO    C1 6841  10.294  12.000   8.623 -0.1864 -0.1068 -0.2292
  604ERGO    C2 6842  10.235  11.823   8.281 -0.0249 -0.0270 -0.1081
  605ERGO   ROH 6843   7.329   5.169   9.588 -0.1555 -0.0406  0.0685
  605ERGO    R1 6844   7.189   5.369   9.446 -0.1397 -0.1273 -0.0723
  605ERGO    R2 6845   7.294   5.621   9.401 -0.2553 -0.0529  0.0474
  605ERGO    R3 6846   7.240   5.562   9.141  0.0573 -0.0856 -0.0132
  605ERGO    R4 6847   7.314   5.845   9.139 -0.0662 -0.0575  0.0576
  605ERGO    R5 6848   7.133   5.758   9.056  0.0639 -0.1395 -0.1409
  605ERGO    C1 6849   7.276   5.920   8.742  0.3375 -0.0908  0.0066
  605ERGO    C2 6850   7.392   6.006   8.489  0.2442  0.0511  0.4530
  606ERGO   ROH 6851   6.556  15.550   9.362 -0.0100 -0.1316 -0.0282
  606ERGO    R1 6852   6.409  15.486   9.128  0.0532 -0.4072  0.0035
  606ERGO    R2 6853   6.386  15.660   8.915 -0.4354 -0.3800  0.0666
  606ERGO    R3 6854   6.480  15.448   8.774  0.0277 -0.1216 -0.0349
  606ERGO    R4 6855   6.396  15.641   8.570 -0.5139 -0.2440  0.0563
  606ERGO    R5 6856   6.334  15.433   8.584 -0.0135 -0.4100  0.0147
  606ERGO    C1 6857   6.490  15.431   8.236 -0.1248  0.0777 -0.0449
  606ERGO    C2 6858   6.542  15.570   7.912  0.0956  0.2125  0.0865
  607ERGO   ROH 6859   5.482   3.405   9.599 -0.3147  0.1726 -0.1458
  607ERGO    R1 6860   5.545   3.217   9.398  0.0274  0.2068 -0.0765
  607ERGO    R2 6861   5.363   3.033   9.303  0.3718 -0.2218  0.0435
  607ERGO    R3 6862   5.429   3.139   9.062  0.0998 -0.1801 -0.0157
  607ERGO    R4 6863   5.364   2.859   9.004  0.1719 -0.1988  0.0286
  607ERGO    R5 6864   5.548   2.963   8.950  0.0731 -0.1167 -0.1379
  607ERGO    C1 6865   5.428   2.858   8.603 -0.1998 -0.1462 -0.0358
  607ERGO    C2 6866   5.508   2.883   8.216 -0.1512 -0.0161  0.0053
  608ERGO   ROH 6867  15.464   2.091   9.639 -0.2756  0.1614  0.1926
  608ERGO    R1 6868  15.445   2.237   9.398 -0.3379  0.0482  0.1307
  608ERGO    R2 6869  15.276   2.453   9.367 -0.0841  0.2467  0.1923
  608ERGO    R3 6870  15.504   2.579   9.290  0.0007 -0.0834 -0.1309
  608ERGO    R4 6871  15.291   2.706   9.132 -0.1086  0.3710  0.3210
  608ERGO    R5 6872  15.474   2.616   9.055 -0.3748  0.1035 -0.0706
  608ERGO    C1 6873  15.514   2.972   8.922 -0.0433  0.1336  0.0923
  608ERGO    C2 6874  15.470   3.132   8.709 -0.4312 -0.2921 -0.0012
  609ERGO   ROH 6875   1.096  12.987   8.161  0.0314 -0.0386  0.2610
  609ERGO    R1 6876   1.309  12.808   8.214  0.0219 -0.0812  0.1575
  609ERGO    R2 6877   1.319  12.553   8.108 -0.0038 -0.0292  0.0285
  609ERGO    R3 6878   1.563  12.634   8.020 -0.0035 -0.0025  0.0532
  609ERGO    R4 6879   1.558  12.346   7.969  0.0563 -0.0111  0.1037
  609ERGO    R5 6880   1.710  12.456   8.080  0.0189  0.0349  0.1085
  609ERGO    C1 6881   1.927  12.302   7.806  0.0915  0.0247  0.1708
  609ERGO    C2 6882   2.261  12.230   7.721  0.3829  0.3177  0.1116
  610ERGO   ROH 6883   1.627  17.080   9.993  0.1364  0.0593 -0.1845
  610ERGO    R1 6884   1.778  17.121   9.757  0.1031  0.1719 -0.1893
  610ERGO    R2 6885   1.960  16.934   9.663  0.2533  0.3052 -0.1917
  610ERGO    R3 6886   1.814  16.956   9.434  0.2238  0.1873 -0.1821
  610ERGO    R4 6887   2.081  16.880   9.344  0.2500  0.3277 -0.1949
  610ERGO    R5 6888   1.965  17.051   9.275  0.1504  0.2462 -0.2100
  610ERGO    C1 6889   2.015  16.868   8.944  0.2204  0.2299 -0.1879
  610ERGO    C2 6890   2.110  16.768   8.593 -0.0891 -0.0222 -0.4310
  611ERGO   ROH 6891  16.341  17.914   9.533 -0.3318  0.0156  0.0468
  611ERGO    R1 6892  16.222  18.031   9.304 -0.2004 -0.2378 -0.1543
  611ERGO    R2 6893  16.304  18.274   9.201 -0.5106 -0.0829 -0.0287
  611ERGO    R3 6894  16.330  18.131   8.971  0.1408 -0.0506  0.0058
  611ERGO    R4 6895  16.339  18.412   8.886 -0.6491  0.0052 -0.0076
  611ERGO    R5 6896  16.207  18.257   8.809 -0.1190 -0.4357 -0.1169
  611ERGO    C1 6897  16.384  18.358   8.487 -0.1183  0.0871  0.0369
  611ERGO    C2 6898  16.654  18.431   8.359  0.1103 -0.0311  0.0258
  612ERGO   ROH 6899  11.818   9.243   9.936  0.0142 -0.1726  0.0081
  612ERGO    R1 6900  11.916   9.343   9.689 -0.1283  0.0347  0.0344
  612ERGO    R2 6901  11.982   9.179   9.477  0.1517  0.1810  0.0080
  612ERGO    R3 6902  11.809   9.338   9.341 -0.0978 -0.0666  0.0254
  612ERGO    R4 6903  11.970   9.211   9.133  0.2465  0.3464  0.0184
  612ERGO    R5 6904  11.937   9.424   9.159 -0.1713  0.2810  0.1270
  612ERGO    C1 6905  11.800   9.379   8.806  0.0673  0.2101  0.0408
  612ERGO    C2 6906  11.673   9.434   8.644  0.0674  0.2061  0.1626
  613ERGO   ROH 6907   5.915   0.424   9.392  0.2260 -0.0483 -0.1648
  613ERGO    R1 6908   5.991   0.381   9.123  0.0487 -0.2426 -0.1857
  613ERGO    R2 6909   5.875   0.185   8.965 -0.4058 -0.0381 -0.1170
  613ERGO    R3 6910   5.828   0.394   8.798 -0.0425  0.0385 -0.1327
  613ERGO    R4 6911   5.879   0.167   8.620 -0.3649 -0.0598 -0.1159
  613ERGO    R5 6912   5.979   0.360   8.616 -0.0532 -0.2113 -0.1022
  613ERGO    C1 6913   5.837   0.353   8.262 -0.0002 -0.0006 -0.1299
  613ERGO    C2 6914   5.735   0.180   7.983  0.1413 -0.2547 -0.3520
  614ERGO   ROH 6915   6.027  16.711   9.763  0.0733  0.2886 -0.0265
  614ERGO    R1 6916   5.941  16.786   9.504  0.0129  0.2044 -0.0319
  614ERGO    R2 6917   5.989  17.037   9.398 -0.0820  0.1990 -0.0954
  614ERGO    R3 6918   6.099  16.894   9.195 -0.0636  0.1871 -0.0765
  614ERGO    R4 6919   6.086  17.169   9.094 -0.0589  0.1750 -0.0980
  614ERGO    R5 6920   6.007  16.991   8.996 -0.0469  0.1691 -0.0906
  614ERGO    C1 6921   6.247  17.112   8.726 -0.0282  0.1499 -0.0817
  614ERGO    C2 6922   6.426  17.034   8.349 -0.2412 -0.1282 -0.1865
  615ERGO   ROH 6923  10.707  14.377   9.623  0.0382  0.1607 -0.0683
  615ERGO    R1 6924  10.741  14.502   9.372  0.0139  0.1101 -0.0972
  615ERGO    R2 6925  10.976  14.484   9.228  0.0487  0.1946 -0.0532
  615ERGO    R3 6926  10.811  14.396   9.031  0.1274  0.0521 -0.0563
  615ERGO    R4 6927  11.042  14.508   8.889  0.0483  0.2236 -0.0511
  615ERGO    R5 6928  10.833  14.560   8.857  0.0089  0.0581 -0.0659
  615ERGO    C1 6929  10.925  14.439   8.507  0.1220  0.1066 -0.0528
  615ERGO    C2 6930  10.895  14.438   8.066  0.0758  0.1453 -0.1072
  616ERGO   ROH 6931   5.999  17.555   9.525  0.1648  0.1486  0.1803
  616ERGO    R1 6932   5.913  17.585   9.256  0.0362  0.0245  0.2058
  616ERGO    R2 6933   6.021  17.775   9.086 -0.1412  0.0402  0.1064
  616ERGO    R3 6934   6.065  17.559   8.926 -0.0838  0.0187  0.1511
  616ERGO    R4 6935   6.145  17.790   8.764  0.1027 -0.0169  0.1952
  616ERGO    R5 6936   6.003  17.634   8.708  0.1004  0.0215  0.0998
  616ERGO    C1 6937   6.258  17.596   8.426  0.2986 -0.0704  0.2889
  616ERGO    C2 6938   6.285  17.718   8.166 -0.1097 -0.1563 -0.0948
  617ERGO   ROH 6939   3.173  13.518   9.600  0.0513  0.3761 -0.1605
  617ERGO    R1 6940   3.047  13.376   9.390  0.0577  0.2112 -0.0557
  617ERGO    R2 6941   2.989  13.492   9.145  0.0442  0.0296 -0.1468
  617ERGO    R3 6942   3.130  13.280   9.049  0.0626 -0.0311  0.0141
  617ERGO    R4 6943   2.998  13.393   8.814  0.0461 -0.2459 -0.0662
  617ERGO    R5 6944   2.989  13.186   8.880  0.0744 -0.1874  0.0978
  617ERGO    C1 6945   3.135  13.137   8.531  0.0644 -0.4631  0.1316
  617ERGO    C2 6946   3.203  12.987   8.157 -0.2408  0.4071 -0.5764
  618ERGO   ROH 6947  14.457  11.673   9.980  0.1706  0.1795 -0.2064
  618ERGO    R1 6948  14.406  11.523   9.746  0.0636  0.1622 -0.1720
  618ERGO    R2 6949  14.156  11.423   9.685  0.0817 -0.0286  0.0599
  618ERGO    R3 6950  14.195  11.556   9.451 -0.2487  0.0250  0.0302
  618ERGO    R4 6951  14.069  11.302   9.373  0.1660 -0.2186  0.1082
  618ERGO    R5 6952  14.255  11.384   9.295 -0.0037  0.1112  0.0242
  618ERGO    C1 6953  14.055  11.357   8.972 -0.0950 -0.2789  0.1082
  618ERGO    C2 6954  13.763  11.325   8.622 -0.0435  0.2058  0.2084
  619ERGO   ROH 6955   6.485   8.693   9.674  0.0149  0.1921  0.0770
  619ERGO    R1 6956   6.636   8.689   9.435 -0.1226 -0.0413 -0.0094
  619ERGO    R2 6957   6.519   8.687   9.184 -0.2695  0.0872  0.0580
  619ERGO    R3 6958   6.677   8.904   9.144  0.0064 -0.1276 -0.0566
  619ERGO    R4 6959   6.626   8.799   8.876 -0.4473  0.0071 -0.0344
  619ERGO    R5 6960   6.821   8.841   8.964 -0.2809 -0.2961 -0.2357
  619ERGO    C1 6961   6.836   9.069   8.658 -0.2918 -0.2410 -0.1957
  619ERGO    C2 6962   6.945   9.252   8.322 -0.1945  0.1763 -0.0680
  620ERGO   ROH 6963   6.436   4.421   9.576 -0.0849  0.0261 -0.1283
  620ERGO    R1 6964   6.298   4.377   9.333 -0.0729  0.0579 -0.1424
  620ERGO    R2 6965   6.108   4.554   9.235 -0.1531  0.0192 -0.0754
  620ERGO    R3 6966   6.265   4.547   9.013 -0.1489  0.1656 -0.0760
  620ERGO    R4 6967   5.996   4.604   8.912 -0.1735  0.0161 -0.0679
  620ERGO    R5 6968   6.128   4.444   8.846 -0.0757  0.1177 -0.1000
  620ERGO    C1 6969   6.078   4.628   8.516 -0.1815  0.1517 -0.0640
  620ERGO    C2 6970   6.033   4.741   8.192  0.0161  0.0882 -0.0630
  621ERGO   ROH 6971   2.482   8.561   9.725 -0.0431 -0.0280  0.1220
  621ERGO    R1 6972   2.437   8.444   9.472 -0.1779  0.0507  0.1091
  621ERGO    R2 6973   2.342   8.588   9.256  0.1034  0.2121  0.0878
  621ERGO    R3 6974   2.564   8.489   9.133 -0.0285 -0.1454  0.1391
  621ERGO    R4 6975   2.358   8.488   8.925  0.0743  0.3917  0.0312
  621ERGO    R5 6976   2.480   8.319   8.987 -0.2888  0.1105 -0.0135
  621ERGO    C1 6977   2.575   8.338   8.618 -0.0663  0.1605  0.0463
  621ERGO    C2 6978   2.579   8.329   8.299  0.0387 -0.2412 -0.1151
  622ERGO   ROH 6979  16.496  17.253   9.461 -0.2499  0.0355  0.0087
  622ERGO    R1 6980  16.483  17.042   9.273 -0.1538  0.0396 -0.0034
  622ERGO    R2 6981  16.291  17.030   9.075 -0.1334 -0.0227 -0.0237
  622ERGO    R3 6982  16.507  17.009   8.911 -0.1084  0.0687 -0.0023
  622ERGO    R4 6983  16.276  17.006   8.730 -0.0787  0.0659 -0.0323
  622ERGO    R5 6984  16.436  16.858   8.738 -0.0495  0.1010 -0.0519
  622ERGO    C1 6985  16.470  16.972   8.376 -0.0235  0.2035 -0.0172
  622ERGO    C2 6986  16.394  16.824   8.000 -0.2225 -0.3186  0.0172
  623ERGO   ROH 6987   4.723   8.273   9.348 -0.3606  0.0397 -0.2396
  623ERGO    R1 6988   4.761   8.381   9.089 -0.1426  0.0991 -0.1849
  623ERGO    R2 6989   4.978   8.537   9.024 -0.0559  0.0621  0.0176
  623ERGO    R3 6990   5.010   8.354   8.825  0.0470  0.1093 -0.0111
  623ERGO    R4 6991   5.097   8.609   8.707 -0.1118  0.1873  0.0239
  623ERGO    R5 6992   4.948   8.472   8.626 -0.0351  0.1056  0.0093
  623ERGO    C1 6993   5.196   8.478   8.336 -0.0477  0.3045  0.0006
  623ERGO    C2 6994   5.349   8.723   7.992  0.0902  0.1010  0.0837
  624ERGO   ROH 6995   4.462  14.941   9.308 -0.0950  0.0484  0.1261
  624ERGO    R1 6996   4.491  15.103   9.077 -0.2053  0.0614  0.1215
  624ERGO    R2 6997   4.636  15.022   8.856  0.0837  0.2612  0.2349
  624ERGO    R3 6998   4.405  15.079   8.725  0.0733 -0.1415  0.0626
  624ERGO    R4 6999   4.609  15.071   8.515  0.2715  0.2861  0.2219
  624ERGO    R5 7000   4.469  15.234   8.554 -0.0720  0.0241  0.1516
  624ERGO    C1 7001   4.376  15.153   8.193  0.3712 -0.0774  0.0525
  624ERGO    C2 7002   4.330  15.214   7.871  0.0502 -0.1850 -0.3769
  625ERGO   ROH 7003   1.969   9.719   9.616 -0.1855 -0.0724 -0.1422
  625ERGO    R1 7004   2.005   9.718   9.336 -0.0774 -0.0957 -0.1287
  625ERGO    R2 7005   2.238   9.632   9.215  0.0168  0.0157 -0.0254
  625ERGO    R3 7006   2.069   9.470   9.078  0.1600 -0.0999 -0.0685
  625ERGO    R4 7007   2.264   9.559   8.878  0.1386  0.0526 -0.0247
  625ERGO    R5 7008   2.047   9.574   8.863  0.1286 -0.1023 -0.0676
  625ERGO    C1 7009   2.120   9.364   8.553  0.3439 -0.0342 -0.0649
  625ERGO    C2 7010   2.041   9.157   8.357  0.1718  0.1502  0.2018
  626ERGO   ROH 7011  16.827   8.749   9.747  0.1714  0.1396  0.0085
  626ERGO    R1 7012  16.740   8.700   9.483 -0.0433  0.2018  0.0655
  626ERGO    R2 7013  16.687   8.903   9.303  0.1271  0.2402  0.0556
  626ERGO    R3 7014  16.863   8.767   9.147 -0.1377 -0.0285 -0.0167
  626ERGO    R4 7015  16.762   8.982   8.975  0.0971  0.1092  0.0167
  626ERGO    R5 7016  16.763   8.769   8.929 -0.2334  0.1014  0.0283
  626ERGO    C1 7017  16.971   8.900   8.637 -0.1690 -0.2195 -0.0738
  626ERGO    C2 7018  17.269   8.871   8.422 -0.0258 -0.0560  0.1435
  627ERGO   ROH 7019   9.687   8.724   9.988 -0.0220 -0.0351 -0.0426
  627ERGO    R1 7020   9.751   8.846   9.740 -0.0204 -0.0063 -0.0279
  627ERGO    R2 7021  10.010   8.864   9.645 -0.0242 -0.0207 -0.0370
  627ERGO    R3 7022   9.903   8.743   9.426 -0.0462  0.0232 -0.0507
  627ERGO    R4 7023  10.145   8.873   9.327 -0.0765  0.0820 -0.0568
  627ERGO    R5 7024   9.944   8.896   9.247 -0.0948  0.0781 -0.0174
  627ERGO    C1 7025  10.124   8.765   8.936 -0.1277  0.1830 -0.0814
  627ERGO    C2 7026  10.048   8.656   8.526  0.0936 -0.1546 -0.0660
  628ERGO   ROH 7027   3.528   0.297   9.601  0.2249 -0.1911 -0.1882
  628ERGO    R1 7028   3.441   0.258   9.334  0.1385 -0.0213 -0.1849
  628ERGO    R2 7029   3.213   0.378   9.233  0.0652 -0.0167 -0.0115
  628ERGO    R3 7030   3.384   0.468   9.042 -0.0345  0.1773 -0.0125
  628ERGO    R4 7031   3.140   0.391   8.896  0.0420 -0.0768 -0.0101
  628ERGO    R5 7032   3.344   0.323   8.854  0.1160  0.1425 -0.0193
  628ERGO    C1 7033   3.258   0.484   8.519 -0.0650  0.0703 -0.0102
  628ERGO    C2 7034   2.972   0.509   8.372 -0.0702  0.0829 -0.1701
  629ERGO   ROH 7035  15.508   4.197   9.335  0.0411 -0.0094  0.0012
  629ERGO    R1 7036  15.322   4.186   9.121 -0.0083 -0.0817  0.0480
  629ERGO    R2 7037  15.225   4.412   8.997 -0.0511 -0.1241  0.0078
  629ERGO    R3 7038  15.315   4.288   8.772 -0.0977 -0.1814  0.0199
  629ERGO    R4 7039  15.191   4.537   8.676  0.1463 -0.0590  0.0108
  629ERGO    R5 7040  15.146   4.335   8.608 -0.0144 -0.0149 -0.0221
  629ERGO    C1 7041  15.256   4.493   8.279  0.2174 -0.0748  0.0238
  629ERGO    C2 7042  15.121   4.529   7.925  0.0692  0.2936 -0.0124
  630ERGO   ROH 7043  16.532   5.453  10.044  0.0049 -0.0515 -0.0130
  630ERGO    R1 7044  16.382   5.382   9.816 -0.1155 -0.0192  0.0545
  630ERGO    R2 7045  16.192   5.549   9.704  0.0096  0.1070  0.0213
  630ERGO    R3 7046  16.338   5.509   9.477 -0.0747 -0.1319  0.0071
  630ERGO    R4 7047  16.064   5.553   9.383 -0.0273  0.2283  0.0374
  630ERGO    R5 7048  16.193   5.384   9.334 -0.2664  0.0429  0.0475
  630ERGO    C1 7049  16.126   5.518   8.983 -0.1278  0.0747  0.0336
  630ERGO    C2 7050  15.905   5.555   8.716  0.0464 -0.0350 -0.0590
  631ERGO   ROH 7051   8.308   3.928   9.807 -0.0032 -0.2414 -0.1720
  631ERGO    R1 7052   8.370   4.001   9.541 -0.0613 -0.0287 -0.1294
  631ERGO    R2 7053   8.313   4.251   9.437  0.0237  0.0954  0.1181
  631ERGO    R3 7054   8.578   4.250   9.377  0.0028  0.0209  0.0249
  631ERGO    R4 7055   8.470   4.479   9.230  0.0170  0.0670  0.0816
  631ERGO    R5 7056   8.587   4.315   9.147 -0.0600  0.0374  0.0260
  631ERGO    C1 7057   8.810   4.610   9.052 -0.0065 -0.0195 -0.0271
  631ERGO    C2 7058   8.981   4.831   9.076  0.0625 -0.2094  0.2118
  632ERGO   ROH 7059   0.803  10.768   9.745 -0.2787 -0.1589  0.0781
  632ERGO    R1 7060   0.658  10.897   9.539 -0.1622 -0.2000 -0.0306
  632ERGO    R2 7061   0.769  10.954   9.292  0.0051 -0.1726  0.0494
  632ERGO    R3 7062   0.553  10.817   9.199  0.1093 -0.2322 -0.1085
  632ERGO    R4 7063   0.693  10.909   8.958  0.1790 -0.0704 -0.0052
  632ERGO    R5 7064   0.483  10.941   9.007  0.1421 -0.1857 -0.0898
  632ERGO    C1 7065   0.446  10.755   8.676  0.3781 -0.0669 -0.1854
  632ERGO    C2 7066   0.342  10.639   8.341 -0.1508  0.1380 -0.3615
  633ERGO   ROH 7067   9.115   1.045   9.808  0.0834 -0.1591 -0.0507
  633ERGO    R1 7068   8.994   0.998   9.556  0.1345 -0.0550 -0.0953
  633ERGO    R2 7069   8.834   1.185   9.431  0.0924 -0.0344 -0.0116
  633ERGO    R3 7070   9.007   1.147   9.225  0.1343  0.1385 -0.0094
  633ERGO    R4 7071   8.775   1.278   9.103 -0.0370 -0.1767 -0.0297
  633ERGO    R5 7072   8.867   1.091   9.039  0.1952 -0.0770  0.0069
  633ERGO    C1 7073   8.903   1.297   8.719 -0.0730 -0.0972 -0.0382
  633ERGO    C2 7074   8.977   1.539   8.508 -0.2632  0.1610 -0.1396
  634ERGO   ROH 7075   7.510   2.158   9.722 -0.2706 -0.1064 -0.0658
  634ERGO    R1 7076   7.551   2.067   9.457 -0.1158 -0.2336 -0.0007
  634ERGO    R2 7077   7.455   1.825   9.367 -0.3880 -0.1168 -0.0420
  634ERGO    R3 7078   7.342   1.978   9.173  0.0531  0.0148 -0.2070
  634ERGO    R4 7079   7.334   1.704   9.066 -0.3622 -0.0259 -0.0885
  634ERGO    R5 7080   7.419   1.880   8.968  0.0476 -0.2184 -0.0999
  634ERGO    C1 7081   7.157   1.777   8.709  0.0668  0.1505 -0.2706
  634ERGO    C2 7082   7.129   1.700   8.396  0.1356 -0.2006 -0.2582
  635ERGO   ROH 7083   8.949  12.791   9.483 -0.0537 -0.4254 -0.1177
  635ERGO    R1 7084   9.048  12.915   9.248 -0.2326 -0.0587 -0.0084
  635ERGO    R2 7085   9.136  12.770   9.030  0.1999  0.2568 -0.0572
  635ERGO    R3 7086   8.957  12.925   8.896 -0.1108 -0.0742 -0.0406
  635ERGO    R4 7087   9.100  12.778   8.686  0.1811  0.2196 -0.0560
  635ERGO    R5 7088   9.074  12.994   8.698 -0.2427  0.1766 -0.0347
  635ERGO    C1 7089   8.910  12.928   8.360 -0.1215 -0.1127 -0.0399
  635ERGO    C2 7090   8.873  12.874   8.068  0.1057  0.0890  0.0572
  636ERGO   ROH 7091   5.513  15.209   9.451  0.0732  0.1889  0.0486
  636ERGO    R1 7092   5.342  15.306   9.248  0.1266  0.0487 -0.0649
  636ERGO    R2 7093   5.359  15.563   9.149  0.0655  0.0217 -0.1434
  636ERGO    R3 7094   5.379  15.435   8.910  0.2290 -0.0509 -0.0928
  636ERGO    R4 7095   5.378  15.721   8.842 -0.0138 -0.0716 -0.1970
  636ERGO    R5 7096   5.246  15.567   8.761  0.1384 -0.2230 -0.1688
  636ERGO    C1 7097   5.408  15.692   8.439  0.0936 -0.1941 -0.1806
  636ERGO    C2 7098   5.387  15.581   8.147 -0.0844  0.0001  0.3723
  637ERGO   ROH 7099   8.030   6.800   9.833 -0.1670  0.0551 -0.0767
  637ERGO    R1 7100   8.104   6.926   9.590 -0.2414  0.2143 -0.0178
  637ERGO    R2 7101   8.114   7.201   9.562  0.1679  0.2394  0.2924
  637ERGO    R3 7102   8.368   7.150   9.478  0.0007 -0.0811 -0.0527
  637ERGO    R4 7103   8.265   7.346   9.287  0.1154  0.3757  0.3346
  637ERGO    R5 7104   8.354   7.154   9.239 -0.2591  0.2802 -0.0411
  637ERGO    C1 7105   8.591   7.384   9.049 -0.0720  0.1543  0.0353
  637ERGO    C2 7106   8.568   7.419   8.600 -0.1237  0.4068 -0.2450
  638ERGO   ROH 7107   0.819  13.339   9.719 -0.0454  0.0909 -0.0079
  638ERGO    R1 7108   0.833  13.241   9.454  0.1045 -0.0055  0.0340
  638ERGO    R2 7109   0.711  13.368   9.241  0.1183 -0.1487 -0.0647
  638ERGO    R3 7110   0.961  13.361   9.134  0.1645 -0.0631  0.0370
  638ERGO    R4 7111   0.782  13.366   8.903  0.2603 -0.1688 -0.0348
  638ERGO    R5 7112   0.939  13.221   8.941  0.3021 -0.0980  0.0485
  638ERGO    C1 7113   1.058  13.358   8.606  0.3864 -0.1002  0.0779
  638ERGO    C2 7114   1.095  13.509   8.224 -0.3381 -0.2658 -0.0680
  639ERGO   ROH 7115  15.005  13.946   9.853 -0.0248 -0.0430  0.0090
  639ERGO    R1 7116  15.012  13.807   9.607 -0.0354 -0.1541  0.0699
  639ERGO    R2 7117  15.175  13.883   9.397 -0.2257 -0.0931 -0.0655
  639ERGO    R3 7118  15.260  13.625   9.413  0.0302 -0.0066  0.0161
  639ERGO    R4 7119  15.327  13.708   9.140 -0.0869 -0.0448 -0.0165
  639ERGO    R5 7120  15.211  13.533   9.198  0.0946 -0.1361  0.0598
  639ERGO    C1 7121  15.495  13.365   9.005  0.2341  0.0646  0.0887
  639ERGO    C2 7122  15.654  13.221   8.799  0.2540 -0.1622 -0.1490
  640ERGO   ROH 7123   2.905  16.938   9.922 -0.2753 -0.1483 -0.0260
  640ERGO    R1 7124   3.035  17.078   9.712 -0.1620 -0.2319 -0.0115
  640ERGO    R2 7125   3.099  16.959   9.471 -0.3792 -0.2258 -0.0716
  640ERGO    R3 7126   2.960  17.168   9.368 -0.1509 -0.0120  0.0416
  640ERGO    R4 7127   3.061  17.023   9.134 -0.5712 -0.1869 -0.0443
  640ERGO    R5 7128   3.087  17.235   9.177 -0.2066 -0.2177 -0.0726
  640ERGO    C1 7129   2.908  17.257   8.840 -0.4687  0.0364  0.0778
  640ERGO    C2 7130   2.875  17.374   8.540 -0.1593  0.3558 -0.0658
  641ERGO   ROH 7131  18.083  15.813   9.568  0.1932  0.5258 -0.0471
  641ERGO    R1 7132  18.240  15.864   9.338  0.2260  0.2076 -0.1010
  641ERGO    R2 7133  18.452  15.703   9.264  0.0447 -0.0771 -0.0282
  641ERGO    R3 7134  18.319  15.692   9.028  0.0001 -0.0799 -0.0021
  641ERGO    R4 7135  18.599  15.638   8.958 -0.0213 -0.0995 -0.0542
  641ERGO    R5 7136  18.470  15.790   8.870 -0.0270 -0.0982 -0.0359
  641ERGO    C1 7137  18.559  15.589   8.558 -0.1015 -0.1153 -0.0449
  641ERGO    C2 7138  18.376  15.438   8.329 -0.0389 -0.2434 -0.0514
  642ERGO   ROH 7139  10.442  16.395   9.442 -0.0798 -0.1312  0.0672
  642ERGO    R1 7140  10.415  16.324   9.169 -0.0829 -0.0039  0.0333
  642ERGO    R2 7141  10.244  16.456   8.997 -0.0071  0.1476  0.0680
  642ERGO    R3 7142  10.469  16.485   8.847  0.0243  0.1104  0.1088
  642ERGO    R4 7143  10.249  16.497   8.654  0.0700  0.1411  0.0685
  642ERGO    R5 7144  10.422  16.364   8.646  0.0478  0.1168  0.1029
  642ERGO    C1 7145  10.464  16.547   8.313  0.1444  0.1023  0.1072
  642ERGO    C2 7146  10.421  16.758   8.015  0.1261  0.2361 -0.0750
  643ERGO   ROH 7147  11.610   3.290  10.112 -0.0089 -0.0905 -0.1388
  643ERGO    R1 7148  11.749   3.287   9.866 -0.0179 -0.0722 -0.1439
  643ERGO    R2 7149  11.633   3.202   9.630 -0.0482  0.0126 -0.1582
  643ERGO    R3 7150  11.714   3.445   9.540  0.0146  0.0112 -0.1077
  643ERGO    R4 7151  11.639   3.298   9.298 -0.1126  0.1098 -0.1320
  643ERGO    R5 7152  11.829   3.398   9.335 -0.0630  0.0293 -0.1571
  643ERGO    C1 7153  11.718   3.582   9.020 -0.0910  0.1650 -0.0692
  643ERGO    C2 7154  11.482   3.652   8.849  0.1879 -0.1863 -0.1252
  644ERGO   ROH 7155   4.383   7.886   9.685  0.0617 -0.0205  0.2934
  644ERGO    R1 7156   4.437   7.810   9.418 -0.2643  0.1942  0.1602
  644ERGO    R2 7157   4.385   7.975   9.203  0.0351  0.6242  0.4044
  644ERGO    R3 7158   4.647   7.929   9.146 -0.0919  0.0364  0.2222
  644ERGO    R4 7159   4.525   7.995   8.887 -0.0705  0.6878  0.3605
  644ERGO    R5 7160   4.643   7.818   8.934 -0.4818  0.3153  0.0699
  644ERGO    C1 7161   4.853   7.963   8.651 -0.2512  0.1731  0.1640
  644ERGO    C2 7162   4.983   7.999   8.319  0.1603  0.0711  0.0745
  645ERGO   ROH 7163   1.509  12.107   9.843  0.0754  0.0846  0.0825
  645ERGO    R1 7164   1.418  12.123   9.575  0.1833  0.1555  0.0499
  645ERGO    R2 7165   1.554  12.262   9.379  0.3297  0.0993  0.1141
  645ERGO    R3 7166   1.542  12.025   9.247  0.2529  0.1173  0.0868
  645ERGO    R4 7167   1.496  12.228   9.040  0.0990  0.1491  0.1463
  645ERGO    R5 7168   1.369  12.056   9.085  0.1372  0.1338  0.2090
  645ERGO    C1 7169   1.451  11.985   8.719 -0.1075  0.1950  0.1396
  645ERGO    C2 7170   1.312  12.002   8.420 -0.0503  0.3006 -0.1965
  646ERGO   ROH 7171   5.083   5.372   9.647  0.1067  0.1494 -0.2864
  646ERGO    R1 7172   5.324   5.479   9.545  0.1770  0.0523 -0.2243
  646ERGO    R2 7173   5.561   5.473   9.685  0.1078  0.0783 -0.1049
  646ERGO    R3 7174   5.655   5.353   9.460  0.1959 -0.0536 -0.0006
  646ERGO    R4 7175   5.880   5.513   9.559  0.1954 -0.0901  0.0575
  646ERGO    R5 7176   5.794   5.520   9.358  0.3123 -0.1472  0.0049
  646ERGO    C1 7177   6.154   5.424   9.273  0.3292 -0.3119  0.2501
  646ERGO    C2 7178   6.276   5.406   9.073  0.2201  0.2442  0.1075
  647ERGO   ROH 7179  17.093   9.763  10.031 -0.0394 -0.2574 -0.1431
  647ERGO    R1 7180  17.158   9.983   9.866  0.3263 -0.2991 -0.0636
  647ERGO    R2 7181  17.333   9.962   9.653 -0.0386 -0.6341 -0.3467
  647ERGO    R3 7182  17.124  10.068   9.513  0.0199  0.0612  0.0454
  647ERGO    R4 7183  17.357  10.102   9.337 -0.1612 -0.7022 -0.3868
  647ERGO    R5 7184  17.218  10.258   9.401  0.4500 -0.2281 -0.1108
  647ERGO    C1 7185  17.175  10.282   9.023 -0.1777 -0.0891 -0.0419
  647ERGO    C2 7186  17.274  10.258   8.715  0.2165  0.0014 -0.0742
  648ERGO   ROH 7187   3.509  13.344   9.365 -0.1197 -0.1981  0.0945
  648ERGO    R1 7188   3.633  13.325   9.111 -0.0304 -0.0082  0.1227
  648ERGO    R2 7189   3.577  13.122   8.933  0.2236 -0.0216  0.0564
  648ERGO    R3 7190   3.526  13.328   8.764  0.0603 -0.0287  0.0941
  648ERGO    R4 7191   3.655  13.125   8.596  0.1943  0.0883  0.0498
  648ERGO    R5 7192   3.716  13.333   8.617  0.0469  0.1310  0.0786
  648ERGO    C1 7193   3.653  13.321   8.241  0.0240  0.1456  0.0814
  648ERGO    C2 7194   3.618  13.185   7.916  0.0272  0.2217  0.0992
  649ERGO   ROH 7195  12.103  16.115   9.684 -0.0383  0.0917 -0.0285
  649ERGO    R1 7196  12.124  16.122   9.402  0.0506  0.1632 -0.0207
  649ERGO    R2 7197  11.977  15.956   9.237  0.1573  0.1521 -0.1076
  649ERGO    R3 7198  11.903  16.191   9.121  0.1184  0.1544 -0.0769
  649ERGO    R4 7199  11.890  15.994   8.905 -0.1416  0.1184 -0.0358
  649ERGO    R5 7200  11.999  16.182   8.903 -0.0864  0.0872 -0.1680
  649ERGO    C1 7201  11.770  16.235   8.602 -0.3522  0.1007  0.0349
  649ERGO    C2 7202  11.744  16.093   8.397  0.1402  0.1674  0.0635
  650ERGO   ROH 7203  16.339  13.122  10.429  0.3006  0.1128 -0.0601
  650ERGO    R1 7204  16.382  12.920  10.236  0.0725 -0.0564  0.0591
  650ERGO    R2 7205  16.193  12.727  10.176 -0.2453  0.2540  0.0113
  650ERGO    R3 7206  16.230  12.816   9.922  0.1005  0.0891 -0.0021
  650ERGO    R4 7207  16.120  12.545   9.892 -0.1468  0.1906  0.0268
  650ERGO    R5 7208  16.304  12.622   9.802  0.0225 -0.0449  0.1684
  650ERGO    C1 7209  16.112  12.522   9.488  0.2352 -0.0011  0.0233
  650ERGO    C2 7210  16.061  12.271   9.230  0.1191  0.3824  0.1719
  651ERGO   ROH 7211  13.639   0.801  10.159 -0.2303  0.0375  0.0036
  651ERGO    R1 7212  13.665   0.849   9.881 -0.1391 -0.0578 -0.0043
  651ERGO    R2 7213  13.704   0.646   9.698 -0.3514 -0.1462  0.0504
  651ERGO    R3 7214  13.486   0.756   9.578 -0.2101  0.0790 -0.0064
  651ERGO    R4 7215  13.675   0.708   9.359 -0.2765 -0.3299  0.0092
  651ERGO    R5 7216  13.577   0.897   9.407 -0.0167 -0.1551 -0.1060
  651ERGO    C1 7217  13.454   0.847   9.049 -0.1004 -0.2253 -0.0682
  651ERGO    C2 7218  13.414   0.861   8.777  0.0618 -0.0841  0.0248
  652ERGO   ROH 7219  12.182  14.143   9.851  0.2457 -0.1154  0.0937
  652ERGO    R1 7220  12.321  14.066   9.617  0.0473 -0.0204 -0.0581
  652ERGO    R2 7221  12.204  14.067   9.367 -0.1116  0.2610  0.0151
  652ERGO    R3 7222  12.417  14.223   9.302 -0.0466  0.1706  0.0065
  652ERGO    R4 7223  12.331  14.106   9.048 -0.1619  0.2687 -0.0045
  652ERGO    R5 7224  12.532  14.100   9.132 -0.1443  0.1493 -0.0472
  652ERGO    C1 7225  12.605  14.275   8.801 -0.1303  0.1885 -0.0240
  652ERGO    C2 7226  12.772  14.392   8.516 -0.1555 -0.4850 -0.2982
  653ERGO   ROH 7227   6.999  16.344   9.650 -0.2206 -0.3409  0.0741
  653ERGO    R1 7228   7.085  16.442   9.398 -0.5564 -0.0127  0.0802
  653ERGO    R2 7229   7.215  16.284   9.213  0.1410  0.4656  0.1292
  653ERGO    R3 7230   7.016  16.369   9.049 -0.2019 -0.3485  0.0727
  653ERGO    R4 7231   7.240  16.307   8.869  0.1796  0.6214  0.1413
  653ERGO    R5 7232   7.129  16.495   8.879 -0.6516  0.1844  0.1342
  653ERGO    C1 7233   7.068  16.401   8.515 -0.1199 -0.0520  0.0954
  653ERGO    C2 7234   7.016  16.453   8.189  0.2091  0.2569 -0.3022
  654ERGO   ROH 7235   4.736   6.390   9.450  0.1035 -0.3552 -0.0354
  654ERGO    R1 7236   4.625   6.297   9.207  0.0105 -0.1883 -0.0585
  654ERGO    R2 7237   4.473   6.458   9.041  0.1170 -0.0152  0.0092
  654ERGO    R3 7238   4.654   6.379   8.854  0.0426 -0.0891 -0.0327
  654ERGO    R4 7239   4.455   6.535   8.705  0.0457 -0.0523  0.0041
  654ERGO    R5 7240   4.522   6.333   8.660 -0.0243 -0.0763  0.0099
  654ERGO    C1 7241   4.614   6.507   8.333 -0.0656 -0.1435 -0.0383
  654ERGO    C2 7242   4.829   6.711   8.257 -0.1328 -0.0609  0.1202
  655ERGO   ROH 7243   1.940  13.049   9.598 -0.1891 -0.1673 -0.1864
  655ERGO    R1 7244   1.899  13.156   9.339 -0.0181 -0.1308 -0.1992
  655ERGO    R2 7245   1.834  13.421   9.296 -0.1498 -0.1657 -0.1907
  655ERGO    R3 7246   2.051  13.414   9.133  0.0074  0.0201  0.0018
  655ERGO    R4 7247   1.899  13.648   9.043 -0.1855 -0.1649 -0.1996
  655ERGO    R5 7248   1.967  13.482   8.919  0.1091 -0.1362 -0.0954
  655ERGO    C1 7249   2.140  13.772   8.742 -0.0587  0.0101 -0.0241
  655ERGO    C2 7250   2.237  14.118   8.812  0.2902  0.0233 -0.0802
  656ERGO   ROH 7251  10.822   8.545   9.824  0.2031  0.1193 -0.0098
  656ERGO    R1 7252  10.705   8.619   9.577  0.1511  0.1263  0.0182
  656ERGO    R2 7253  10.819   8.556   9.334  0.0509  0.0538 -0.0049
  656ERGO    R3 7254  10.575   8.446   9.284 -0.0043  0.1336  0.0799
  656ERGO    R4 7255  10.686   8.506   9.019  0.0080 -0.0638  0.0304
  656ERGO    R5 7256  10.492   8.570   9.096  0.0382  0.0695  0.0135
  656ERGO    C1 7257  10.380   8.374   8.788 -0.0687 -0.0575  0.1305
  656ERGO    C2 7258  10.424   8.330   8.419  0.1590  0.4552 -0.3045
  657ERGO   ROH 7259   8.403   6.971  10.010 -0.0000 -0.1540 -0.0766
  657ERGO    R1 7260   8.575   7.129   9.850 -0.0985 -0.0732 -0.1040
  657ERGO    R2 7261   8.844   7.072   9.821 -0.0384  0.1485 -0.0110
  657ERGO    R3 7262   8.782   7.078   9.556  0.0192 -0.0250 -0.0296
  657ERGO    R4 7263   8.993   7.279   9.588 -0.1926  0.2038 -0.0621
  657ERGO    R5 7264   8.798   7.310   9.496 -0.2023 -0.0329 -0.1238
  657ERGO    C1 7265   9.023   7.406   9.204 -0.2284  0.0730 -0.1096
  657ERGO    C2 7266   8.984   7.700   8.930  0.2900  0.0975  0.3286
  658ERGO   ROH 7267   5.546   8.183   9.469  0.1339 -0.1916 -0.2354
  658ERGO    R1 7268   5.612   8.316   9.227  0.1491 -0.0127 -0.1352
  658ERGO    R2 7269   5.430   8.470   9.088  0.1269  0.0003 -0.0883
  658ERGO    R3 7270   5.623   8.659   9.109  0.0443  0.0684  0.0818
  658ERGO    R4 7271   5.454   8.752   8.889  0.1056  0.0879  0.0329
  658ERGO    R5 7272   5.669   8.724   8.883  0.1249  0.1744  0.1244
  658ERGO    C1 7273   5.650   9.094   8.794  0.0157  0.2028  0.2631
  658ERGO    C2 7274   5.518   9.367   8.868  0.1518  0.2651  0.1694
  659ERGO   ROH 7275   9.212   7.835  10.153 -0.1817 -0.3614 -0.0087
  659ERGO    R1 7276   9.274   7.797   9.879 -0.2152 -0.2433 -0.0340
  659ERGO    R2 7277   9.081   7.764   9.685 -0.2444  0.0069 -0.0527
  659ERGO    R3 7278   9.211   7.971   9.566 -0.1026 -0.0116  0.0703
  659ERGO    R4 7279   9.178   7.772   9.354  0.2259 -0.0747  0.0767
  659ERGO    R5 7280   9.364   7.866   9.416  0.1271 -0.0336  0.3147
  659ERGO    C1 7281   9.357   7.972   9.049  0.6328 -0.1397  0.2674
  659ERGO    C2 7282   9.446   8.012   8.677  0.0148 -0.0726 -0.0309
  660ERGO   ROH 7283  16.648  16.857   9.621 -0.1426  0.0619  0.0414
  660ERGO    R1 7284  16.771  16.676   9.441  0.1265  0.0157  0.2669
  660ERGO    R2 7285  16.743  16.696   9.167 -0.0268 -0.4473  0.2445
  660ERGO    R3 7286  17.015  16.696   9.171 -0.0136  0.0705  0.1416
  660ERGO    R4 7287  16.945  16.634   8.894 -0.0333 -0.6044  0.2731
  660ERGO    R5 7288  17.077  16.518   9.023  0.2474 -0.1177  0.4569
  660ERGO    C1 7289  17.318  16.598   8.739 -0.0247 -0.2098  0.1932
  660ERGO    C2 7290  17.472  16.782   8.466 -0.0070  0.2123  0.0303
  661ERGO   ROH 7291   5.700   6.538   9.622 -0.0527 -0.0206 -0.0669
  661ERGO    R1 7292   5.714   6.383   9.386 -0.0783  0.0357 -0.1062
  661ERGO    R2 7293   5.561   6.438   9.162 -0.1089  0.0871 -0.0777
  661ERGO    R3 7294   5.802   6.439   9.037 -0.1215  0.1239 -0.1016
  661ERGO    R4 7295   5.615   6.334   8.837 -0.1190  0.1409 -0.0967
  661ERGO    R5 7296   5.801   6.240   8.903 -0.1108  0.1487 -0.1304
  661ERGO    C1 7297   5.873   6.275   8.530 -0.1367  0.2067 -0.1302
  661ERGO    C2 7298   5.867   6.165   8.129 -0.0037 -0.0795 -0.3298
  662ERGO   ROH 7299  12.597  14.559   9.937 -0.0865 -0.2073  0.0146
  662ERGO    R1 7300  12.557  14.503   9.663 -0.0644  0.1576 -0.0692
  662ERGO    R2 7301  12.563  14.698   9.468  0.3213  0.3714  0.1432
  662ERGO    R3 7302  12.748  14.534   9.355  0.1165  0.2024  0.0474
  662ERGO    R4 7303  12.724  14.760   9.168  0.2695  0.2471  0.0895
  662ERGO    R5 7304  12.703  14.548   9.120  0.0411  0.2756  0.0682
  662ERGO    C1 7305  12.991  14.641   8.887  0.0471  0.0160 -0.0319
  662ERGO    C2 7306  13.145  14.708   8.556  0.0097 -0.0489 -0.0119
  663ERGO   ROH 7307   0.722   4.785   9.623 -0.1209  0.0522  0.1049
  663ERGO    R1 7308   0.706   4.647   9.377  0.0108 -0.0042  0.1281
  663ERGO    R2 7309   0.619   4.768   9.144 -0.0406 -0.1093  0.0973
  663ERGO    R3 7310   0.856   4.679   9.046  0.0353  0.0383  0.1418
  663ERGO    R4 7311   0.744   4.841   8.830 -0.1506 -0.2248  0.0248
  663ERGO    R5 7312   0.813   4.635   8.815  0.0434 -0.1788  0.1750
  663ERGO    C1 7313   1.039   4.800   8.556 -0.1434 -0.1535  0.0244
  663ERGO    C2 7314   0.956   4.956   8.355  0.2116  0.1148  0.0912
  664ERGO   ROH 7315  14.072  14.155   9.639 -0.0546 -0.3060 -0.0341
  664ERGO    R1 7316  14.186  14.172   9.380 -0.0058 -0.0572 -0.0001
  664ERGO    R2 7317  14.160  13.970   9.193  0.2234  0.0184 -0.1223
  664ERGO    R3 7318  14.064  14.171   9.038  0.0742  0.0214 -0.0280
  664ERGO    R4 7319  14.149  13.964   8.848  0.0633  0.1084 -0.1196
  664ERGO    R5 7320  14.210  14.174   8.848 -0.0182  0.1284 -0.0954
  664ERGO    C1 7321  14.054  14.150   8.501 -0.1701  0.1636 -0.0295
  664ERGO    C2 7322  13.971  14.064   8.296 -0.2394  0.2829  0.3369
  665ERGO   ROH 7323   3.939  14.431   8.676  0.0488  0.0111  0.0606
  665ERGO    R1 7324   3.909  14.344   8.409  0.2201  0.1685 -0.0141
  665ERGO    R2 7325   3.663  14.281   8.300  0.3388 -0.3949 -0.0078
  665ERGO    R3 7326   3.737  14.461   8.110 -0.1757 -0.0023  0.1413
  665ERGO    R4 7327   3.597  14.250   7.962  0.4700 -0.3139 -0.0406
  665ERGO    R5 7328   3.798  14.326   7.921  0.2552  0.3269  0.0337
  665ERGO    C1 7329   3.629  14.400   7.587  0.0633  0.1017  0.0805
  665ERGO    C2 7330   3.357  14.445   7.318 -0.1964  0.0232 -0.0615
  666ERGO   ROH 7331   3.930   2.773   9.704  0.2595  0.2341  0.1958
  666ERGO    R1 7332   4.105   2.892   9.516  0.2802  0.0475  0.0954
  666ERGO    R2 7333   4.334   2.766   9.425  0.0791 -0.2137 -0.0632
  666ERGO    R3 7334   4.225   2.814   9.181 -0.0222 -0.0650  0.0095
  666ERGO    R4 7335   4.498   2.726   9.124 -0.0911 -0.1710 -0.1635
  666ERGO    R5 7336   4.404   2.909   9.054 -0.0417 -0.0977 -0.0427
  666ERGO    C1 7337   4.491   2.748   8.719 -0.2854 -0.0064 -0.1535
  666ERGO    C2 7338   4.557   2.458   8.528  0.2165 -0.0513  0.4331
  667ERGO   ROH 7339   8.192  16.361   9.232  0.0328  0.2339  0.1455
  667ERGO    R1 7340   8.276  16.463   8.981 -0.0971  0.0779  0.0361
  667ERGO    R2 7341   8.240  16.324   8.745 -0.2461 -0.0594  0.1333
  667ERGO    R3 7342   8.117  16.554   8.667 -0.2668 -0.0923  0.0719
  667ERGO    R4 7343   8.124  16.386   8.426  0.1730  0.0342 -0.0069
  667ERGO    R5 7344   8.197  16.591   8.444  0.0305  0.0667  0.2025
  667ERGO    C1 7345   7.940  16.637   8.166  0.3976  0.0578 -0.1463
  667ERGO    C2 7346   7.846  16.873   7.836 -0.3011 -0.1362  0.0560
  668ERGO   ROH 7347  10.508   5.428  10.116  0.2961 -0.4062 -0.1753
  668ERGO    R1 7348  10.441   5.414   9.842  0.2939 -0.2269 -0.1853
  668ERGO    R2 7349  10.324   5.625   9.706  0.2153 -0.1663 -0.0279
  668ERGO    R3 7350  10.534   5.592   9.538  0.2237  0.0325 -0.0583
  668ERGO    R4 7351  10.361   5.786   9.403 -0.0354 -0.2100 -0.0843
  668ERGO    R5 7352  10.437   5.600   9.319  0.1690 -0.1475 -0.0423
  668ERGO    C1 7353  10.581   5.849   9.068 -0.1734 -0.0490 -0.1457
  668ERGO    C2 7354  10.449   5.878   8.686 -0.0076 -0.0066 -0.0155
  669ERGO   ROH 7355  12.783  13.065   9.602 -0.1767 -0.0116  0.1063
  669ERGO    R1 7356  12.906  13.107   9.351  0.0435  0.1376  0.2350
  669ERGO    R2 7357  12.801  13.009   9.115  0.4769 -0.1032  0.1288
  669ERGO    R3 7358  12.817  13.268   9.036  0.1221 -0.0871  0.0962
  669ERGO    R4 7359  12.895  13.113   8.799  0.2134 -0.0096  0.0793
  669ERGO    R5 7360  13.008  13.275   8.892  0.0539  0.1400  0.0143
  669ERGO    C1 7361  12.964  13.418   8.542 -0.2732  0.0600  0.0201
  669ERGO    C2 7362  12.852  13.417   8.265  0.1618  0.0913  0.2229
  670ERGO   ROH 7363   1.922   5.878   9.742  0.0166 -0.1465 -0.0537
  670ERGO    R1 7364   1.890   5.988   9.484 -0.0085 -0.1859 -0.0675
  670ERGO    R2 7365   1.913   5.837   9.253 -0.1630 -0.2499 -0.0428
  670ERGO    R3 7366   1.666   5.938   9.201 -0.1276 -0.1303  0.0160
  670ERGO    R4 7367   1.814   5.970   8.950 -0.1315 -0.0800  0.0200
  670ERGO    R5 7368   1.707   6.126   9.058 -0.0635 -0.0846  0.0943
  670ERGO    C1 7369   1.525   6.141   8.724 -0.0799  0.1311  0.1119
  670ERGO    C2 7370   1.585   6.068   8.366  0.0880  0.1469  0.0703
  671ERGO   ROH 7371  14.793   8.436   9.846  0.1013  0.1529 -0.0151
  671ERGO    R1 7372  14.788   8.399   9.565 -0.0824  0.0998 -0.0050
  671ERGO    R2 7373  14.828   8.152   9.447 -0.1437  0.0842  0.0174
  671ERGO    R3 7374  14.590   8.207   9.328 -0.2269  0.0414  0.1584
  671ERGO    R4 7375  14.719   8.011   9.151 -0.1874  0.2317 -0.0388
  671ERGO    R5 7376  14.640   8.206   9.093 -0.3209  0.2358  0.1324
  671ERGO    C1 7377  14.432   7.981   8.867 -0.2910  0.2776  0.0609
  671ERGO    C2 7378  14.375   8.013   8.446 -0.0137 -0.0277 -0.0499
  672PSPI    C1 7379   3.443  10.756   5.903  0.0223 -0.0909  0.1779
  672PSPI    C2 7380   3.272  10.398   5.856  0.0177 -0.1061  0.3076
  672PSPI    C3 7381   3.166  10.702   5.619 -0.0175 -0.1763  0.2326
  672PSPI   PO4 7382   3.410  10.755   6.151 -0.0199  0.0209  0.0890
  672PSPI   GL1 7383   3.261  11.044   6.488  0.0875  0.0024  0.0005
  672PSPI   GL2 7384   3.138  11.377   6.439 -0.3504  0.3524  0.1494
  672PSPI   C1A 7385   3.237  11.175   6.900 -0.0767  0.1216  0.0430
  672PSPI   C2A 7386   3.231  11.300   7.296  0.4047  0.2291  0.2715
  672PSPI   C3A 7387   3.004  11.576   7.649 -0.1173  0.0411 -0.1463
  672PSPI   C4A 7388   3.053  11.933   7.725  0.0187 -0.0977  0.1638
  672PSPI   C1B 7389   3.168  11.674   6.685  0.2628 -0.3969 -0.1168
  672PSPI   C2B 7390   3.242  11.822   7.129 -0.0651  0.2087  0.0667
  672PSPI   C3B 7391   3.434  11.724   7.473  0.4849  0.1533 -0.0153
  672PSPI   C4B 7392   3.850  11.755   7.635  0.1158 -0.0217 -0.0241
  673PSPI    C1 7393  18.012   3.364   6.055  0.1116  0.2274  0.1866
  673PSPI    C2 7394  18.199   3.301   5.707 -0.1513 -0.0878  0.0971
  673PSPI    C3 7395  18.177   3.671   5.858  0.1417  0.0213 -0.1169
  673PSPI   PO4 7396  18.150   3.151   6.201 -0.1843  0.1953 -0.2412
  673PSPI   GL1 7397  18.400   3.005   6.486  0.0005  0.0102 -0.2836
  673PSPI   GL2 7398  18.623   2.995   6.401 -0.0729  0.0010 -0.4362
  673PSPI   C1A 7399  18.046   2.828   6.757  0.2941 -0.4155 -0.3590
  673PSPI   C2A 7400  18.038   2.830   7.202 -0.0117 -0.1662 -0.3180
  673PSPI   C3A 7401  18.108   2.851   7.637  0.1627 -0.0016  0.4135
  673PSPI   C4A 7402  18.130   2.599   7.842  0.2528 -0.1962 -0.0709
  673PSPI   C1B 7403  18.592   3.094   6.922 -0.2110 -0.1614 -0.0249
  673PSPI   C2B 7404  18.424   3.279   7.239 -0.0316 -0.3238  0.1544
  673PSPI   C3B 7405  18.540   3.358   7.625 -0.0839 -0.1889 -0.2013
  673PSPI   C4B 7406  18.333   3.081   8.008  0.1530 -0.0461  0.0554
  674PSPI    C1 7407   2.973   1.001   6.059  0.2052 -0.1650 -0.0173
  674PSPI    C2 7408   2.736   0.688   5.983 -0.1522  0.1096 -0.0579
  674PSPI    C3 7409   2.948   0.855   5.688 -0.0890  0.0103 -0.0691
  674PSPI   PO4 7410   2.829   1.164   6.179  0.1813  0.0955 -0.1164
  674PSPI   GL1 7411   2.674   1.119   6.603  0.1161 -0.1630  0.3967
  674PSPI   GL2 7412   2.383   1.170   6.685 -0.0600 -0.3233 -0.4761
  674PSPI   C1A 7413   2.894   1.303   7.018  0.0498  0.1658 -0.0976
  674PSPI   C2A 7414   2.859   1.511   7.330 -0.0694 -0.2995 -0.0591
  674PSPI   C3A 7415   2.874   1.471   7.637 -0.4027  0.0777  0.0771
  674PSPI   C4A 7416   3.150   1.650   7.912 -0.0509 -0.1021 -0.2832
  674PSPI   C1B 7417   2.422   1.291   7.063  0.1500  0.0327  0.3378
  674PSPI   C2B 7418   2.427   1.181   7.520  0.0386  0.1431  0.0842
  674PSPI   C3B 7419   2.366   0.974   7.949  0.2132 -0.0624 -0.0088
  674PSPI   C4B 7420   2.317   0.981   8.312 -0.1043  0.0290  0.1279
  675PSPI    C1 7421   6.950  17.701   5.719  0.0669 -0.1718  0.1194
  675PSPI    C2 7422   6.957  17.842   5.345 -0.1089 -0.1244  0.1332
  675PSPI    C3 7423   7.269  17.636   5.486  0.0288  0.0012  0.0168
  675PSPI   PO4 7424   6.677  17.500   5.753  0.1211 -0.3217  0.0646
  675PSPI   GL1 7425   6.465  17.442   6.095 -0.1201  0.2837 -0.1420
  675PSPI   GL2 7426   6.592  17.769   6.336 -0.0139  0.3066  0.0332
  675PSPI   C1A 7427   6.483  17.247   6.544 -0.2593  0.2426 -0.2272
  675PSPI   C2A 7428   6.421  17.217   7.055  0.0766 -0.3198  0.1842
  675PSPI   C3A 7429   6.463  17.252   7.417  0.1468 -0.0628 -0.0954
  675PSPI   C4A 7430   6.452  17.206   7.894  0.0212 -0.2232 -0.0758
  675PSPI   C1B 7431   6.641  17.713   6.777 -0.3578  0.3002  0.2857
  675PSPI   C2B 7432   6.616  17.671   7.112 -0.0158 -0.1903  0.1060
  675PSPI   C3B 7433   6.911  17.604   7.364  0.0252  0.0834  0.2056
  675PSPI   C4B 7434   7.324  17.837   7.560 -0.1423 -0.3356 -0.3342
  676PSPI    C1 7435   2.035   2.597   6.408 -0.2862  0.1350  0.1399
  676PSPI    C2 7436   2.002   2.445   6.040  0.1114 -0.0322  0.1689
  676PSPI    C3 7437   1.678   2.583   6.228 -0.1197 -0.0819 -0.1833
  676PSPI   PO4 7438   2.147   2.475   6.618 -0.1206 -0.0639  0.0835
  676PSPI   GL1 7439   2.012   2.224   6.888 -0.1505 -0.0978  0.0121
  676PSPI   GL2 7440   1.730   2.384   6.822  0.0063 -0.0436  0.0321
  676PSPI   C1A 7441   2.051   2.026   7.236  0.0369 -0.3647  0.0164
  676PSPI   C2A 7442   1.991   1.894   7.635 -0.1261  0.2238 -0.0855
  676PSPI   C3A 7443   2.162   1.940   7.945 -0.2906 -0.0025 -0.0120
  676PSPI   C4A 7444   2.165   2.151   8.266  0.0292  0.0629  0.0416
  676PSPI   C1B 7445   1.729   2.487   7.252  0.1071 -0.0966 -0.0422
  676PSPI   C2B 7446   1.728   2.386   7.613 -0.3106 -0.0195 -0.2237
  676PSPI   C3B 7447   1.812   2.363   7.948 -0.2374  0.2559 -0.1553
  676PSPI   C4B 7448   1.664   2.144   8.353 -0.3012 -0.0955  0.0369
  677PSPI    C1 7449  16.226  15.744   5.921  0.2130 -0.0730  0.3177
  677PSPI    C2 7450  16.356  15.604   5.570 -0.0815 -0.0077  0.1795
  677PSPI    C3 7451  16.351  15.365   5.891 -0.0765 -0.1532  0.0726
  677PSPI   PO4 7452  15.971  15.708   5.921 -0.0188 -0.0326  0.3800
  677PSPI   GL1 7453  15.756  15.607   6.179 -0.3077 -0.1175 -0.1424
  677PSPI   GL2 7454  16.000  15.392   6.367  0.1579  0.0387 -0.3484
  677PSPI   C1A 7455  15.726  15.762   6.632  0.0152  0.1480  0.0025
  677PSPI   C2A 7456  15.617  16.118   6.876 -0.0994 -0.0208  0.2648
  677PSPI   C3A 7457  15.730  16.322   7.257 -0.0795  0.0289 -0.0690
  677PSPI   C4A 7458  15.546  16.245   7.641 -0.1850 -0.0979 -0.0030
  677PSPI   C1B 7459  16.113  15.464   6.865 -0.0397 -0.2272  0.2820
  677PSPI   C2B 7460  15.914  15.455   7.207  0.1096 -0.2468  0.2221
  677PSPI   C3B 7461  15.811  15.840   7.439  0.1154 -0.0353 -0.0867
  677PSPI   C4B 7462  16.001  15.908   7.822  0.0420  0.0834  0.1115
  678PSPI    C1 7463  10.349  18.236   6.006  0.1595  0.0034  0.0049
  678PSPI    C2 7464  10.640  18.510   5.983  0.4557 -0.3015  0.0399
  678PSPI    C3 7465  10.364  18.487   5.695  0.3348  0.1306  0.1137
  678PSPI   PO4 7466  10.419  18.074   6.188 -0.0972  0.1460 -0.0941
  678PSPI   GL1 7467  10.082  17.980   6.547  0.1968 -0.3208  0.1252
  678PSPI   GL2 7468   9.947  18.270   6.547  0.3131 -0.1081 -0.0895
  678PSPI   C1A 7469   9.933  17.977   6.952  0.0933 -0.2114  0.0731
  678PSPI   C2A 7470   9.688  17.916   7.243  0.0705 -0.0402  0.0065
  678PSPI   C3A 7471   9.868  17.866   7.606 -0.1809  0.3797 -0.1260
  678PSPI   C4A 7472   9.975  18.106   7.836 -0.1385  0.6017 -0.0225
  678PSPI   C1B 7473   9.972  18.535   6.879  0.0420 -0.1848 -0.1312
  678PSPI   C2B 7474  10.027  18.808   7.170  0.0277  0.1242 -0.0506
  678PSPI   C3B 7475  10.160  18.658   7.598  0.1599 -0.2003 -0.0492
  678PSPI   C4B 7476  10.415  18.577   7.951 -0.2561  0.0313  0.0764
  679PSPI    C1 7477  10.117   6.335   6.471  0.2567  0.0020 -0.1610
  679PSPI    C2 7478  10.314   6.424   6.134 -0.1893  0.5257 -0.2969
  679PSPI    C3 7479   9.934   6.298   6.117 -0.0472  0.0319 -0.0101
  679PSPI   PO4 7480  10.152   6.539   6.620  0.0666  0.0794 -0.0200
  679PSPI   GL1 7481   9.780   6.659   6.818  0.2117 -0.0330  0.1252
  679PSPI   GL2 7482  10.021   6.625   7.085 -0.2667 -0.1066  0.0274
  679PSPI   C1A 7483   9.516   7.010   7.093  0.0295  0.2511  0.4829
  679PSPI   C2A 7484   9.269   6.956   7.458  0.0576 -0.1580  0.0973
  679PSPI   C3A 7485   8.988   7.139   7.769  0.1787  0.1264 -0.0846
  679PSPI   C4A 7486   8.986   7.310   8.144 -0.2037 -0.0174 -0.0825
  679PSPI   C1B 7487   9.861   6.750   7.410 -0.0546  0.2052  0.2921
  679PSPI   C2B 7488   9.667   6.614   7.804  0.2005  0.1397 -0.1071
  679PSPI   C3B 7489   9.658   6.651   8.240  0.0434 -0.2015 -0.0284
  679PSPI   C4B 7490   9.209   6.656   8.560 -0.1587 -0.0950  0.2865
  680PSPI    C1 7491  15.198   0.197   6.029  0.2714 -0.1201  0.1031
  680PSPI    C2 7492  14.953   0.512   6.053 -0.0384 -0.3533  0.0679
  680PSPI    C3 7493  15.327   0.559   5.918 -0.1063 -0.0165 -0.0125
  680PSPI   PO4 7494  15.062   0.038   6.191  0.1218  0.1236 -0.0786
  680PSPI   GL1 7495  14.726   0.031   6.417 -0.0484 -0.2429 -0.3004
  680PSPI   GL2 7496  14.902   0.445   6.542 -0.1255  0.0209 -0.0140
  680PSPI   C1A 7497  14.677  -0.103   6.710 -0.3095 -0.1328  0.0149
  680PSPI   C2A 7498  14.565  -0.010   7.075 -0.1149 -0.0339 -0.2139
  680PSPI   C3A 7499  14.558   0.043   7.485  0.2815 -0.0336 -0.2242
  680PSPI   C4A 7500  14.594   0.304   7.800  0.2063  0.1027  0.3729
  680PSPI   C1B 7501  14.852   0.402   7.023  0.0104 -0.0155 -0.3247
  680PSPI   C2B 7502  14.742   0.474   7.360  0.0229 -0.0706  0.1311
  680PSPI   C3B 7503  15.053   0.521   7.761 -0.2807 -0.0376 -0.2285
  680PSPI   C4B 7504  15.455   0.413   7.984  0.4343 -0.0348  0.2309
  681PSPI    C1 7505   8.384   6.253   6.030  0.0230  0.2142  0.0020
  681PSPI    C2 7506   8.139   5.978   6.186  0.0539  0.2625  0.1369
  681PSPI    C3 7507   7.990   6.322   6.046  0.0441  0.2908  0.2166
  681PSPI   PO4 7508   8.612   6.161   6.238  0.1620  0.0370 -0.1506
  681PSPI   GL1 7509   8.629   5.781   6.448  0.1303  0.1470  0.0961
  681PSPI   GL2 7510   8.378   5.910   6.618 -0.2533  0.0883  0.4406
  681PSPI   C1A 7511   8.752   5.828   6.909 -0.0414  0.1611  0.0212
  681PSPI   C2A 7512   8.733   5.678   7.304 -0.1722 -0.0433 -0.4302
  681PSPI   C3A 7513   8.624   5.706   7.638  0.0187 -0.1428  0.1192
  681PSPI   C4A 7514   8.491   5.742   7.942 -0.3905  0.1698  0.1432
  681PSPI   C1B 7515   8.242   5.628   7.059  0.0795 -0.3677 -0.0519
  681PSPI   C2B 7516   8.414   5.294   7.348  0.1084  0.0469  0.0249
  681PSPI   C3B 7517   8.623   5.213   7.684 -0.1285 -0.4370  0.3104
  681PSPI   C4B 7518   8.697   5.260   8.138  0.3658 -0.3688  0.1825
  682PSPI    C1 7519  16.704  17.569   5.831 -0.0628  0.0041  0.1101
  682PSPI    C2 7520  17.063  17.709   5.939 -0.0301 -0.1073  0.1477
  682PSPI    C3 7521  16.869  17.873   5.629  0.0499 -0.0421  0.1316
  682PSPI   PO4 7522  16.493  17.484   6.059  0.1639  0.1437  0.0440
  682PSPI   GL1 7523  16.442  17.279   6.467 -0.1548 -0.4747  0.3047
  682PSPI   GL2 7524  16.440  16.980   6.487  0.1016 -0.1470 -0.3219
  682PSPI   C1A 7525  16.509  17.379   6.947 -0.1784  0.0266 -0.1152
  682PSPI   C2A 7526  16.420  17.683   7.221  0.0197 -0.1637 -0.1559
  682PSPI   C3A 7527  16.249  17.925   7.547  0.0642  0.0982 -0.2272
  682PSPI   C4A 7528  16.041  18.194   7.765  0.0064  0.1249 -0.2280
  682PSPI   C1B 7529  16.157  16.914   6.900 -0.3501 -0.4324 -0.0339
  682PSPI   C2B 7530  16.284  17.158   7.329  0.0648  0.0024 -0.4659
  682PSPI   C3B 7531  16.316  17.345   7.663  0.2996  0.0950  0.0790
  682PSPI   C4B 7532  16.430  17.653   7.886 -0.1581  0.0415  0.1441
  683PSPI    C1 7533   3.524   2.115   6.115 -0.2314  0.2454  0.1768
  683PSPI    C2 7534   3.305   2.375   5.904 -0.1611  0.0884 -0.0961
  683PSPI    C3 7535   3.177   1.999   5.953  0.0582 -0.0132 -0.2835
  683PSPI   PO4 7536   3.488   2.216   6.350  0.0879 -0.2859 -0.3775
  683PSPI   GL1 7537   3.352   2.078   6.708 -0.2272  0.1564 -0.1825
  683PSPI   GL2 7538   3.209   1.871   6.721  0.0899 -0.1788  0.2746
  683PSPI   C1A 7539   3.151   2.227   7.110 -0.0321  0.2606 -0.1356
  683PSPI   C2A 7540   3.226   2.024   7.556 -0.1929 -0.0167 -0.2532
  683PSPI   C3A 7541   3.442   2.049   8.024  0.3202  0.0825  0.2727
  683PSPI   C4A 7542   3.592   1.941   8.413 -0.1809 -0.1816  0.1118
  683PSPI   C1B 7543   3.300   1.604   7.044 -0.1786  0.0191 -0.2101
  683PSPI   C2B 7544   3.581   1.638   7.483 -0.2809  0.2564  0.3846
  683PSPI   C3B 7545   3.661   1.611   7.904 -0.2163 -0.2360 -0.2144
  683PSPI   C4B 7546   3.534   1.447   8.302  0.0389  0.0246 -0.0654
  684PSPI    C1 7547  15.176  12.195   6.479  0.1902 -0.1914 -0.2512
  684PSPI    C2 7548  14.918  11.974   6.267 -0.2053 -0.0279  0.0455
  684PSPI    C3 7549  14.982  11.892   6.653 -0.0152  0.1022  0.0434
  684PSPI   PO4 7550  15.108  12.451   6.519 -0.1088  0.0754  0.1532
  684PSPI   GL1 7551  15.172  12.725   6.831 -0.0621 -0.0328 -0.0095
  684PSPI   GL2 7552  14.883  12.748   7.023 -0.0313 -0.0983  0.1591
  684PSPI   C1A 7553  15.233  13.141   6.980 -0.1144 -0.0795 -0.1077
  684PSPI   C2A 7554  15.303  13.353   7.417  0.0114 -0.0481  0.1362
  684PSPI   C3A 7555  15.359  13.556   7.816  0.2346  0.2303  0.2964
  684PSPI   C4A 7556  15.397  13.800   8.078 -0.1629 -0.0488  0.2693
  684PSPI   C1B 7557  15.116  12.884   7.377 -0.0220 -0.1433  0.0348
  684PSPI   C2B 7558  15.172  12.953   7.692  0.0060 -0.1706  0.0166
  684PSPI   C3B 7559  15.004  13.181   7.986  0.0237  0.0509 -0.2436
  684PSPI   C4B 7560  14.947  13.549   8.343  0.0466 -0.2820  0.2866
  685PSPI    C1 7561  18.334  14.503   5.765  0.1233  0.1300  0.0937
  685PSPI    C2 7562  18.706  14.569   5.633  0.1332 -0.1894 -0.0475
  685PSPI    C3 7563  18.394  14.631   5.391  0.0951  0.0374  0.0571
  685PSPI   PO4 7564  18.295  14.564   5.954  0.0261 -0.2104 -0.2418
  685PSPI   GL1 7565  18.490  14.663   6.440  0.1681 -0.0135 -0.2138
  685PSPI   GL2 7566  18.146  14.701   6.446 -0.3845 -0.2446  0.2260
  685PSPI   C1A 7567  18.644  14.713   6.877 -0.0412  0.4295  0.2202
  685PSPI   C2A 7568  18.647  14.738   7.237 -0.4122 -0.0264 -0.3102
  685PSPI   C3A 7569  18.771  14.545   7.593  0.3031 -0.0290 -0.1081
  685PSPI   C4A 7570  18.639  14.350   7.985  0.0669 -0.1122  0.1618
  685PSPI   C1B 7571  17.840  14.952   6.700 -0.0627 -0.0310  0.2628
  685PSPI   C2B 7572  17.820  15.156   7.099  0.1916 -0.1096  0.0177
  685PSPI   C3B 7573  17.721  15.292   7.513  0.1632  0.0882 -0.0101
  685PSPI   C4B 7574  17.312  15.170   7.523 -0.4488 -0.1166 -0.0483
  686PSPI    C1 7575   2.676   0.151   6.032 -0.1210 -0.1310 -0.0151
  686PSPI    C2 7576   2.680  -0.049   5.685  0.0742 -0.2349  0.0459
  686PSPI    C3 7577   2.332   0.033   5.864 -0.0235 -0.2439 -0.1378
  686PSPI   PO4 7578   2.935   0.226   6.147 -0.0597 -0.0671  0.0649
  686PSPI   GL1 7579   2.864   0.257   6.614 -0.1295 -0.1777  0.0889
  686PSPI   GL2 7580   2.675   0.441   6.553  0.4436 -0.3926 -0.1711
  686PSPI   C1A 7581   2.814   0.286   7.006  0.0405  0.3414  0.1261
  686PSPI   C2A 7582   2.759   0.308   7.455  0.0154 -0.2550 -0.3137
  686PSPI   C3A 7583   2.713   0.436   7.905  0.1248 -0.0187  0.1914
  686PSPI   C4A 7584   2.489   0.483   8.284  0.0290  0.0395  0.3521
  686PSPI   C1B 7585   2.856   0.733   6.889 -0.2841 -0.2885  0.1518
  686PSPI   C2B 7586   2.834   0.857   7.298  0.0279 -0.2691 -0.2452
  686PSPI   C3B 7587   2.807   0.996   7.731  0.4550  0.1748 -0.0763
  686PSPI   C4B 7588   2.816   1.274   8.091 -0.1060  0.1421 -0.0630
  687PSPI    C1 7589   8.478  18.183   5.548  0.0887  0.2623  0.0248
  687PSPI    C2 7590   8.679  17.929   5.313 -0.0413  0.1601  0.0227
  687PSPI    C3 7591   8.780  17.968   5.698 -0.2723 -0.1928  0.1246
  687PSPI   PO4 7592   8.167  18.038   5.662  0.1088  0.1342  0.0004
  687PSPI   GL1 7593   8.064  17.744   6.017  0.2315  0.1223  0.0974
  687PSPI   GL2 7594   8.085  17.881   6.214 -0.0788  0.1175  0.0205
  687PSPI   C1A 7595   7.681  17.531   6.290 -0.2952  0.2097  0.0018
  687PSPI   C2A 7596   7.584  17.219   6.701 -0.2300  0.2998 -0.3415
  687PSPI   C3A 7597   7.583  16.871   7.031  0.1132  0.2508 -0.0212
  687PSPI   C4A 7598   7.458  16.618   7.486  0.2762  0.0320  0.0414
  687PSPI   C1B 7599   8.224  17.884   6.601  0.2637  0.3303 -0.0175
  687PSPI   C2B 7600   8.307  17.943   7.062 -0.1697 -0.2962  0.2148
  687PSPI   C3B 7601   8.369  17.971   7.537 -0.1860 -0.1102  0.0517
  687PSPI   C4B 7602   8.541  17.978   7.855 -0.0102  0.1344 -0.1394
  688PSPI    C1 7603  11.893  10.999   6.243  0.3188 -0.0769  0.0249
  688PSPI    C2 7604  11.769  10.771   5.939  0.0267 -0.2157  0.2436
  688PSPI    C3 7605  12.021  11.074   5.871 -0.1206 -0.1754 -0.1525
  688PSPI   PO4 7606  11.644  11.102   6.355  0.2618  0.1645 -0.0499
  688PSPI   GL1 7607  11.308  11.258   6.624 -0.0924 -0.2867  0.2001
  688PSPI   GL2 7608  11.270  10.911   6.798 -0.1820 -0.1263 -0.1823
  688PSPI   C1A 7609  10.980  11.387   7.106  0.0647 -0.0749  0.2394
  688PSPI   C2A 7610  10.835  11.358   7.422  0.1673 -0.0891  0.0134
  688PSPI   C3A 7611  10.745  11.503   7.681 -0.0273 -0.0808 -0.4509
  688PSPI   C4A 7612  10.542  11.816   7.890  0.1620 -0.2599 -0.2262
  688PSPI   C1B 7613  11.071  10.935   7.228 -0.0357 -0.0251 -0.0971
  688PSPI   C2B 7614  11.134  11.028   7.682 -0.1071  0.0040  0.0961
  688PSPI   C3B 7615  11.183  11.339   8.039  0.0867  0.0332 -0.0939
  688PSPI   C4B 7616  11.607  11.291   8.235 -0.0334  0.1026 -0.1893
  689PSPI    C1 7617  17.530   8.949   6.209  0.2440 -0.2171  0.0526
  689PSPI    C2 7618  17.320   8.742   5.938  0.0265  0.0267  0.0307
  689PSPI    C3 7619  17.540   9.056   5.823  0.0854  0.0148  0.1105
  689PSPI   PO4 7620  17.315   8.914   6.395 -0.3191  0.4364 -0.2146
  689PSPI   GL1 7621  17.057   8.768   6.790 -0.2143 -0.1165  0.0624
  689PSPI   GL2 7622  16.921   8.476   6.696 -0.0697  0.0069  0.0508
  689PSPI   C1A 7623  16.884   8.702   7.202  0.0170  0.1810  0.0151
  689PSPI   C2A 7624  17.009   8.559   7.542 -0.0255  0.2764 -0.1122
  689PSPI   C3A 7625  17.222   8.577   7.982  0.1203  0.0217 -0.2770
  689PSPI   C4A 7626  17.235   8.318   8.353 -0.3425 -0.2286  0.2109
  689PSPI   C1B 7627  16.544   8.406   7.022  0.1683 -0.0529 -0.3948
  689PSPI   C2B 7628  16.404   8.439   7.376 -0.2005 -0.0031  0.3762
  689PSPI   C3B 7629  16.534   8.228   7.705  0.0049  0.0770  0.2501
  689PSPI   C4B 7630  16.802   8.185   8.038 -0.1981 -0.1912 -0.3112
  690PSPI    C1 7631   7.304   3.890   6.108  0.0570  0.1197  0.0703
  690PSPI    C2 7632   7.014   3.805   5.845 -0.0134 -0.0937  0.2144
  690PSPI    C3 7633   7.055   4.178   5.984 -0.0811 -0.0160  0.0289
  690PSPI   PO4 7634   7.322   3.698   6.297  0.1384  0.3881  0.0968
  690PSPI   GL1 7635   7.597   3.430   6.510  0.3900  0.0355 -0.1572
  690PSPI   GL2 7636   7.784   3.606   6.589 -0.3244 -0.1428 -0.0089
  690PSPI   C1A 7637   7.849   3.034   6.686 -0.1718 -0.0716 -0.2716
  690PSPI   C2A 7638   7.772   2.848   7.067  0.0850 -0.1061  0.0724
  690PSPI   C3A 7639   7.798   2.766   7.399 -0.1613  0.2335 -0.0909
  690PSPI   C4A 7640   8.048   2.800   7.748  0.0902  0.0399 -0.1490
  690PSPI   C1B 7641   7.603   3.672   6.978  0.1512  0.0497 -0.0264
  690PSPI   C2B 7642   7.731   3.673   7.374 -0.1457  0.1284  0.0406
  690PSPI   C3B 7643   7.852   3.460   7.739 -0.2142 -0.0144 -0.0859
  690PSPI   C4B 7644   7.970   3.168   8.048  0.0478 -0.2923  0.0991
  691PSPI    C1 7645   8.807  12.220   5.792  0.0384 -0.1725  0.4640
  691PSPI    C2 7646   8.849  11.870   5.605 -0.0540  0.0763 -0.0394
  691PSPI    C3 7647   9.168  12.103   5.665 -0.0125 -0.0354  0.1861
  691PSPI   PO4 7648   8.639  12.174   6.017 -0.1123 -0.1800  0.1140
  691PSPI   GL1 7649   8.533  12.244   6.523  0.0809  0.0403 -0.1252
  691PSPI   GL2 7650   8.695  12.526   6.465 -0.0261 -0.1419 -0.1594
  691PSPI   C1A 7651   8.709  12.231   6.893  0.0031 -0.3478  0.0406
  691PSPI   C2A 7652   8.675  12.378   7.302  0.1024 -0.0085  0.1183
  691PSPI   C3A 7653   8.820  12.685   7.589  0.0970  0.0824 -0.1144
  691PSPI   C4A 7654   9.201  12.891   7.704  0.0880 -0.0174  0.0219
  691PSPI   C1B 7655   8.655  12.693   6.860  0.0735 -0.0346  0.0739
  691PSPI   C2B 7656   8.534  12.902   7.235  0.0005  0.1308  0.6304
  691PSPI   C3B 7657   8.342  13.334   7.418  0.4800 -0.2013 -0.0079
  691PSPI   C4B 7658   8.373  13.689   7.560 -0.0647  0.0965 -0.1412
  692POPI    C1 7659   2.845  16.637   6.103 -0.1423 -0.1766 -0.1071
  692POPI    C2 7660   2.880  16.480   5.737 -0.0680  0.0919 -0.2180
  692POPI    C3 7661   2.735  16.850   5.783 -0.0876  0.0557  0.0256
  692POPI   PO4 7662   2.941  16.371   6.277  0.0206 -0.1458 -0.3136
  692POPI   GL1 7663   3.157  16.356   6.623 -0.1113 -0.3821  0.3880
  692POPI   GL2 7664   2.869  16.094   6.667  0.1570  0.2427  0.1858
  692POPI   C1A 7665   3.362  16.035   6.803  0.1701 -0.2509  0.1675
  692POPI   D2A 7666   3.761  15.722   6.743  0.0984 -0.0549  0.0278
  692POPI   C3A 7667   4.036  15.602   7.088  0.4082  0.0775  0.1276
  692POPI   C4A 7668   4.047  15.556   7.431  0.0075  0.0607  0.1291
  692POPI   C1B 7669   2.841  16.300   7.003 -0.0371  0.2526 -0.1065
  692POPI   C2B 7670   3.154  16.089   7.269 -0.1640  0.0066 -0.1158
  692POPI   C3B 7671   3.302  15.866   7.634  0.2212 -0.0280 -0.1123
  692POPI   C4B 7672   2.957  15.643   7.885 -0.2041  0.0170  0.0584
  693POPI    C1 7673  15.331   6.888   6.251 -0.2465 -0.1769 -0.1537
  693POPI    C2 7674  15.631   6.850   5.989 -0.0072  0.0113  0.0867
  693POPI    C3 7675  15.604   7.178   6.216 -0.2574 -0.1128  0.2415
  693POPI   PO4 7676  15.359   6.574   6.369 -0.0867  0.2237 -0.3381
  693POPI   GL1 7677  15.333   6.368   6.923 -0.0511  0.2251 -0.0073
  693POPI   GL2 7678  15.569   6.198   6.639 -0.1508  0.0235 -0.1112
  693POPI   C1A 7679  15.287   6.458   7.329 -0.0678 -0.2085 -0.3150
  693POPI   D2A 7680  15.406   6.489   7.717 -0.0229  0.0815  0.2603
  693POPI   C3A 7681  15.199   6.528   8.021  0.0844 -0.2265 -0.0707
  693POPI   C4A 7682  15.064   6.544   8.347 -0.1830 -0.2161  0.2065
  693POPI   C1B 7683  15.794   6.121   7.028 -0.2616 -0.0668 -0.0622
  693POPI   C2B 7684  15.676   6.150   7.505 -0.1474 -0.1027  0.0955
  693POPI   C3B 7685  15.507   5.978   7.893 -0.0778  0.0971 -0.0571
  693POPI   C4B 7686  15.305   6.106   8.214  0.0458 -0.2226  0.5837
  694POPI    C1 7687   1.866   5.709   6.075 -0.0045  0.0570  0.0179
  694POPI    C2 7688   1.568   5.455   6.160 -0.0089  0.0706  0.0431
  694POPI    C3 7689   1.570   5.654   5.813 -0.0773  0.1395  0.0820
  694POPI   PO4 7690   2.132   5.533   6.134  0.2516 -0.3422  0.2159
  694POPI   GL1 7691   2.271   5.435   6.536  0.5608  0.0384 -0.1393
  694POPI   GL2 7692   2.194   5.760   6.603 -0.3005 -0.0014  0.0380
  694POPI   C1A 7693   2.447   5.284   6.892 -0.1313 -0.0208  0.1295
  694POPI   D2A 7694   2.472   5.356   7.352 -0.0249  0.3823  0.1372
  694POPI   C3A 7695   2.367   5.268   7.735  0.0761  0.2148  0.1226
  694POPI   C4A 7696   2.117   5.144   8.046  0.0027 -0.0055 -0.2659
  694POPI   C1B 7697   2.198   5.773   7.060  0.0046  0.0915 -0.2333
  694POPI   C2B 7698   2.154   5.735   7.465  0.1445  0.4380  0.0134
  694POPI   C3B 7699   2.247   6.001   7.746  0.2253  0.3354 -0.1866
  694POPI   C4B 7700   1.871   6.157   7.932 -0.2075 -0.2159 -0.0218
  695POPI    C1 7701  16.030   4.917   5.822  0.2676 -0.3447  0.0522
  695POPI    C2 7702  16.178   5.119   5.509 -0.1350 -0.2437 -0.0780
  695POPI    C3 7703  15.979   4.777   5.451 -0.3463 -0.1451  0.0517
  695POPI   PO4 7704  15.877   5.118   5.962  0.0978  0.1401 -0.0825
  695POPI   GL1 7705  15.785   5.127   6.405 -0.1746  0.0903  0.1549
  695POPI   GL2 7706  15.914   4.903   6.429 -0.1670 -0.1054 -0.1185
  695POPI   C1A 7707  15.638   5.169   6.781  0.0276  0.1192 -0.0609
  695POPI   D2A 7708  15.400   5.386   7.135 -0.0241  0.0582  0.1180
  695POPI   C3A 7709  15.580   5.107   7.509  0.0636 -0.1900 -0.1324
  695POPI   C4A 7710  15.474   4.937   7.935  0.1190  0.1375 -0.0840
  695POPI   C1B 7711  16.009   4.736   6.805 -0.0371  0.1021 -0.1264
  695POPI   C2B 7712  15.723   4.688   7.149 -0.4386 -0.0356  0.1300
  695POPI   C3B 7713  15.592   4.583   7.502 -0.0482  0.3488 -0.2043
  695POPI   C4B 7714  15.576   4.238   7.915  0.4703 -0.2887  0.0283
  696POPI    C1 7715   3.525  16.249   5.809 -0.2112  0.0761  0.1427
  696POPI    C2 7716   3.507  16.229   5.410  0.0860  0.0561  0.1278
  696POPI    C3 7717   3.398  16.564   5.599  0.1882  0.1553  0.0116
  696POPI   PO4 7718   3.757  16.125   5.879  0.3702 -0.0698  0.0875
  696POPI   GL1 7719   3.851  16.312   6.230 -0.0529  0.1185 -0.0233
  696POPI   GL2 7720   3.933  15.909   6.312  0.1581 -0.0066 -0.1692
  696POPI   C1A 7721   4.012  16.214   6.721  0.1312  0.1021  0.3365
  696POPI   D2A 7722   3.902  16.081   7.103 -0.1049 -0.0106  0.1122
  696POPI   C3A 7723   3.611  15.872   7.171  0.1115  0.2181 -0.0965
  696POPI   C4A 7724   3.600  15.447   7.190 -0.2633 -0.1565 -0.0775
  696POPI   C1B 7725   4.197  15.672   6.548 -0.1014 -0.2587 -0.1933
  696POPI   C2B 7726   4.140  15.265   6.690 -0.0361  0.3293 -0.0797
  696POPI   C3B 7727   4.102  15.107   7.040  0.0880  0.4141 -0.0856
  696POPI   C4B 7728   4.321  14.945   7.342 -0.1464  0.1785 -0.2897
  697POPI    C1 7729   1.613   8.636   6.067  0.0346  0.0525 -0.2839
  697POPI    C2 7730   1.722   8.255   6.013 -0.1370 -0.0514  0.0700
  697POPI    C3 7731   1.384   8.392   5.849 -0.1678 -0.1012  0.0918
  697POPI   PO4 7732   1.648   8.694   6.352 -0.1958 -0.0026  0.0051
  697POPI   GL1 7733   1.989   8.848   6.635  0.3380 -0.0308 -0.0294
  697POPI   GL2 7734   2.284   8.671   6.764  0.3332 -0.0699 -0.1549
  697POPI   C1A 7735   1.800   8.747   7.058 -0.2530  0.0505  0.0561
  697POPI   D2A 7736   1.531   8.709   7.392 -0.1280 -0.2427  0.0271
  697POPI   C3A 7737   1.312   8.411   7.427 -0.0335  0.0789 -0.3248
  697POPI   C4A 7738   1.346   7.960   7.635 -0.0328  0.1373  0.0960
  697POPI   C1B 7739   2.231   8.560   7.164 -0.0009  0.1861 -0.5276
  697POPI   C2B 7740   1.939   8.613   7.569  0.0805 -0.3336 -0.1265
  697POPI   C3B 7741   1.648   8.444   7.862 -0.1891 -0.1817 -0.1263
  697POPI   C4B 7742   1.663   8.098   8.163 -0.0152  0.3785  0.3696
  698POPI    C1 7743   0.853  16.446   6.105  0.1226 -0.3729  0.1398
  698POPI    C2 7744   1.094  16.305   5.819  0.1003 -0.0532 -0.0419
  698POPI    C3 7745   0.699  16.251   5.791  0.1018 -0.0607 -0.0483
  698POPI   PO4 7746   1.033  16.616   6.207 -0.3592 -0.2913  0.1321
  698POPI   GL1 7747   1.120  16.788   6.592  0.2163 -0.1707 -0.2419
  698POPI   GL2 7748   1.431  16.923   6.426  0.0370 -0.0544  0.1427
  698POPI   C1A 7749   1.022  16.996   6.967  0.2359 -0.1071 -0.0827
  698POPI   D2A 7750   1.156  16.773   7.298 -0.0212  0.2615 -0.1198
  698POPI   C3A 7751   1.019  16.570   7.754 -0.1280  0.0855  0.0292
  698POPI   C4A 7752   1.073  16.590   8.161 -0.1664 -0.1260 -0.1858
  698POPI   C1B 7753   1.497  17.158   6.766  0.1348 -0.2155  0.0807
  698POPI   C2B 7754   1.444  17.205   7.117  0.1879 -0.1035 -0.1428
  698POPI   C3B 7755   1.453  17.105   7.613  0.2513 -0.3024 -0.1668
  698POPI   C4B 7756   1.417  17.035   8.044 -0.1637 -0.5501 -0.0177
  699POPI    C1 7757   2.409   4.360   6.382  0.2149  0.0184  0.0051
  699POPI    C2 7758   2.553   3.988   6.406  0.0484 -0.0415  0.0907
  699POPI    C3 7759   2.305   4.088   6.108  0.0119 -0.0277  0.1257
  699POPI   PO4 7760   2.622   4.571   6.473 -0.1343  0.0048  0.1496
  699POPI   GL1 7761   2.587   4.689   6.874  0.1332  0.1366  0.1776
  699POPI   GL2 7762   2.361   4.445   6.882  0.2172 -0.1968  0.0736
  699POPI   C1A 7763   2.311   4.851   7.182 -0.1398 -0.2638 -0.0575
  699POPI   D2A 7764   2.364   4.773   7.564  0.0075 -0.2304  0.3990
  699POPI   C3A 7765   2.265   4.661   7.991  0.1658  0.2594 -0.1474
  699POPI   C4A 7766   2.508   4.674   8.329  0.2271 -0.3009 -0.1005
  699POPI   C1B 7767   2.572   4.444   7.262 -0.1316  0.3363  0.1749
  699POPI   C2B 7768   2.487   4.326   7.696 -0.1659  0.1246 -0.3586
  699POPI   C3B 7769   2.576   4.144   8.055  0.2812 -0.1466  0.0741
  699POPI   C4B 7770   2.792   4.267   8.409  0.0213 -0.3936 -0.0753
  700POPI    C1 7771   0.626   9.556   5.851 -0.1674 -0.3057 -0.0198
  700POPI    C2 7772   0.470   9.630   5.490  0.0468 -0.2159 -0.0958
  700POPI    C3 7773   0.713   9.897   5.662  0.0133 -0.2960  0.0788
  700POPI   PO4 7774   0.325   9.411   6.028  0.1658  0.1012 -0.0544
  700POPI   GL1 7775   0.127   9.534   6.384 -0.1037 -0.1896  0.1363
  700POPI   GL2 7776   0.183   9.932   6.421  0.0356  0.1264 -0.2609
  700POPI   C1A 7777   0.194   9.475   6.724 -0.1289 -0.2037  0.1001
  700POPI   D2A 7778   0.292   9.521   7.134 -0.1756  0.1091  0.0398
  700POPI   C3A 7779   0.206   9.453   7.582 -0.2497 -0.0944 -0.0065
  700POPI   C4A 7780  -0.122   9.566   7.885 -0.0922 -0.0675 -0.0469
  700POPI   C1B 7781   0.337   9.896   6.847 -0.0451 -0.2255  0.2007
  700POPI   C2B 7782   0.595   9.928   7.270 -0.2802 -0.0745  0.1462
  700POPI   C3B 7783   0.839   9.951   7.546  0.2578  0.3094  0.1813
  700POPI   C4B 7784   0.845   9.812   7.926  0.1486 -0.1338  0.0761
  701POPI    C1 7785  11.908   4.206   6.253 -0.3842  0.1658  0.0109
  701POPI    C2 7786  11.794   4.489   6.511  0.4586  0.3482  0.2130
  701POPI    C3 7787  11.956   4.592   6.160 -0.0414  0.0995 -0.1020
  701POPI   PO4 7788  11.625   3.963   6.210 -0.0393  0.2595  0.0886
  701POPI   GL1 7789  11.428   3.785   6.598  0.0020  0.1734  0.0829
  701POPI   GL2 7790  11.491   3.486   6.643  0.0772  0.2558  0.2513
  701POPI   C1A 7791  10.998   3.726   6.869 -0.0422 -0.0508  0.1070
  701POPI   D2A 7792  10.834   3.522   7.219 -0.0608 -0.0922 -0.0113
  701POPI   C3A 7793  10.991   3.421   7.579 -0.2013  0.1568  0.2808
  701POPI   C4A 7794  10.920   3.568   7.970  0.2097 -0.0256 -0.2468
  701POPI   C1B 7795  11.360   3.364   7.051  0.2913  0.2188 -0.0800
  701POPI   C2B 7796  11.486   3.461   7.548 -0.2843 -0.0094 -0.2275
  701POPI   C3B 7797  11.483   3.576   7.989 -0.2389  0.1805 -0.0454
  701POPI   C4B 7798  11.561   3.518   8.367  0.1450 -0.3043 -0.3987
  702POPI    C1 7799  14.820  17.700   5.740 -0.1344 -0.0777  0.0527
  702POPI    C2 7800  14.561  18.003   5.768 -0.0011  0.0333  0.0994
  702POPI    C3 7801  14.429  17.626   5.774 -0.1633  0.0892  0.0956
  702POPI   PO4 7802  14.988  17.729   6.018  0.0224 -0.0505  0.1523
  702POPI   GL1 7803  15.080  17.603   6.389 -0.1285 -0.0883 -0.1058
  702POPI   GL2 7804  15.193  17.206   6.380 -0.0837  0.0136 -0.2746
  702POPI   C1A 7805  15.352  17.402   6.802 -0.0942  0.1281  0.1167
  702POPI   D2A 7806  15.289  17.277   7.266  0.0145 -0.2125 -0.1842
  702POPI   C3A 7807  15.432  17.191   7.662  0.0496 -0.2287  0.3182
  702POPI   C4A 7808  15.818  17.148   7.953 -0.1353  0.2769 -0.0821
  702POPI   C1B 7809  15.110  16.997   6.696  0.1964  0.2775  0.0211
  702POPI   C2B 7810  14.788  16.979   7.050 -0.2437  0.1642  0.4688
  702POPI   C3B 7811  14.754  17.179   7.473 -0.1833  0.2614 -0.0886
  702POPI   C4B 7812  14.983  17.269   7.815  0.1389 -0.1189 -0.0045
  703POPI    C1 7813   7.705   0.533   5.713 -0.0035  0.2274  0.1681
  703POPI    C2 7814   7.449   0.542   5.405 -0.0700 -0.2776  0.1994
  703POPI    C3 7815   7.844   0.534   5.338 -0.0655  0.1514  0.1446
  703POPI   PO4 7816   7.595   0.449   5.917 -0.0825 -0.1038  0.2880
  703POPI   GL1 7817   7.431   0.442   6.283  0.1020  0.1506 -0.0949
  703POPI   GL2 7818   7.525   0.753   6.292  0.0403  0.0049 -0.0609
  703POPI   C1A 7819   7.192   0.377   6.647  0.1123  0.2532  0.2699
  703POPI   D2A 7820   6.829   0.072   6.912 -0.1423  0.1159  0.0319
  703POPI   C3A 7821   6.506   0.271   7.084  0.1200  0.0030  0.0974
  703POPI   C4A 7822   6.302   0.428   7.447  0.1388 -0.4093 -0.0518
  703POPI   C1B 7823   7.400   0.833   6.735  0.4300  0.1031  0.1074
  703POPI   C2B 7824   7.264   0.664   7.050  0.0344 -0.0258  0.2153
  703POPI   C3B 7825   6.972   0.413   7.346 -0.0730  0.2338 -0.1721
  703POPI   C4B 7826   7.025  -0.006   7.424  0.0976  0.0201  0.0103
  704POPI    C1 7827  16.138  13.145   6.354 -0.0585  0.1216  0.0343
  704POPI    C2 7828  15.822  13.294   6.549 -0.1569 -0.1982  0.1254
  704POPI    C3 7829  15.770  13.100   6.203 -0.0336 -0.0563  0.0255
  704POPI   PO4 7830  16.237  13.000   6.605  0.2938 -0.0687  0.3670
  704POPI   GL1 7831  15.966  12.745   6.881  0.0608  0.1192  0.0459
  704POPI   GL2 7832  15.768  12.918   6.894  0.1528 -0.1041  0.0918
  704POPI   C1A 7833  16.149  12.877   7.325  0.1181  0.0276 -0.3004
  704POPI   D2A 7834  16.171  12.848   7.761  0.1369  0.1385 -0.0203
  704POPI   C3A 7835  16.292  13.105   8.054 -0.0765 -0.1752 -0.0498
  704POPI   C4A 7836  16.141  13.474   8.381 -0.0258  0.0673 -0.0834
  704POPI   C1B 7837  15.881  13.303   7.203 -0.1533  0.2978  0.0079
  704POPI   C2B 7838  15.795  13.329   7.632  0.3566  0.3551  0.2131
  704POPI   C3B 7839  15.795  13.452   8.021 -0.2723  0.0534  0.1442
  704POPI   C4B 7840  15.508  13.335   8.249 -0.2860 -0.0752 -0.1115
  705POPI    C1 7841  11.795  15.171   5.937  0.2336  0.1224 -0.1586
  705POPI    C2 7842  12.080  15.314   6.178  0.2480 -0.1996  0.0205
  705POPI    C3 7843  12.173  15.192   5.809  0.2840 -0.0091 -0.0342
  705POPI   PO4 7844  11.559  15.364   6.022  0.2994 -0.0910  0.0034
  705POPI   GL1 7845  11.457  15.417   6.504  0.0853  0.2970  0.3342
  705POPI   GL2 7846  11.801  15.393   6.604 -0.0236  0.0016  0.3290
  705POPI   C1A 7847  11.228  15.639   6.764  0.0947 -0.0582 -0.0410
  705POPI   D2A 7848  11.161  15.614   7.148 -0.2998 -0.1625 -0.1674
  705POPI   C3A 7849  10.972  15.893   7.255 -0.2669 -0.1026  0.1495
  705POPI   C4A 7850  10.740  15.827   7.703 -0.2066 -0.3401 -0.0242
  705POPI   C1B 7851  11.804  15.395   7.125 -0.0275 -0.1737 -0.0014
  705POPI   C2B 7852  11.949  15.272   7.584  0.3165  0.0700  0.2493
  705POPI   C3B 7853  12.268  15.101   7.923  0.2448  0.1821 -0.1351
  705POPI   C4B 7854  12.471  14.874   8.216  0.1912 -0.1689 -0.0484
  706POPI    C1 7855   0.047  15.350   6.002 -0.0855  0.2718 -0.0785
  706POPI    C2 7856  -0.184  15.069   6.170  0.0101  0.1867 -0.0881
  706POPI    C3 7857   0.007  14.992   5.827  0.0358  0.2641 -0.0913
  706POPI   PO4 7858   0.350  15.396   6.148  0.2699  0.0298  0.0031
  706POPI   GL1 7859   0.525  15.756   6.356 -0.1119  0.0192 -0.0692
  706POPI   GL2 7860   0.201  15.753   6.550 -0.3265  0.0580  0.0758
  706POPI   C1A 7861   0.606  15.667   6.812  0.1311 -0.0779 -0.1827
  706POPI   D2A 7862   0.598  15.487   7.253  0.4216  0.1048 -0.0883
  706POPI   C3A 7863   0.528  15.737   7.659  0.3181 -0.1902  0.2930
  706POPI   C4A 7864   0.778  16.113   7.850  0.0020  0.2121  0.1772
  706POPI   C1B 7865   0.054  15.634   6.936  0.2787 -0.1478  0.0114
  706POPI   C2B 7866  -0.119  15.996   7.185 -0.1411 -0.4684 -0.3648
  706POPI   C3B 7867  -0.300  15.972   7.684 -0.3444  0.3668  0.2017
  706POPI   C4B 7868  -0.439  15.606   7.889  0.3358  0.1738  0.0802
  707POPI    C1 7869  11.345  18.512   6.077 -0.0208 -0.2531 -0.2801
  707POPI    C2 7870  11.393  18.799   5.803 -0.1453  0.0992  0.0574
  707POPI    C3 7871  11.677  18.523   5.855 -0.0036  0.1837 -0.2417
  707POPI   PO4 7872  11.105  18.579   6.140  0.1232  0.2226 -0.0588
  707POPI   GL1 7873  10.859  18.528   6.470  0.2235 -0.0424 -0.1022
  707POPI   GL2 7874  10.831  18.240   6.426 -0.0795 -0.2451 -0.1579
  707POPI   C1A 7875  10.809  18.606   6.866  0.0621  0.0615  0.1821
  707POPI   D2A 7876  10.628  18.698   7.146 -0.0373  0.0744 -0.0503
  707POPI   C3A 7877  10.659  19.061   7.394 -0.1301  0.1196  0.0471
  707POPI   C4A 7878  10.786  19.455   7.248  0.0635 -0.2386 -0.0809
  707POPI   C1B 7879  10.817  18.108   6.818 -0.0489  0.1204 -0.1990
  707POPI   C2B 7880  10.703  18.150   7.251  0.2106 -0.1358  0.2508
  707POPI   C3B 7881  10.424  18.092   7.693  0.0211  0.1293  0.2769
  707POPI   C4B 7882  10.354  17.692   8.007  0.0992  0.1609  0.2175
  708POPI    C1 7883   9.401   8.076   6.435 -0.3217 -0.1176 -0.2247
  708POPI    C2 7884   9.688   8.104   6.157  0.1198 -0.1797  0.2108
  708POPI    C3 7885   9.416   8.395   6.194  0.0571 -0.1690 -0.2760
  708POPI   PO4 7886   9.512   8.021   6.631  0.1434 -0.2276 -0.5079
  708POPI   GL1 7887   9.531   7.978   7.008 -0.1343 -0.2814 -0.1718
  708POPI   GL2 7888   9.176   8.087   6.985 -0.2027  0.1059  0.1305
  708POPI   C1A 7889   9.650   8.014   7.381 -0.3428  0.0633  0.0086
  708POPI   D2A 7890   9.673   7.959   7.839  0.1186  0.1011  0.1294
  708POPI   C3A 7891   9.536   8.120   8.214 -0.3014 -0.0390 -0.1500
  708POPI   C4A 7892   9.597   8.469   8.379  0.4159 -0.2340  0.3042
  708POPI   C1B 7893   9.182   8.253   7.417 -0.0799  0.0141 -0.2998
  708POPI   C2B 7894   9.149   8.295   7.915  0.0446  0.4034 -0.0501
  708POPI   C3B 7895   9.027   8.312   8.297  0.1359  0.0912  0.1056
  708POPI   C4B 7896   8.888   8.276   8.734 -0.0057 -0.0848  0.0715
  709POPI    C1 7897   5.507  13.091   5.334  0.0515  0.1734 -0.0701
  709POPI    C2 7898   5.313  12.767   5.203 -0.0093  0.1488  0.0788
  709POPI    C3 7899   5.263  13.118   5.019 -0.1098  0.1192  0.0492
  709POPI   PO4 7900   5.579  12.882   5.641  0.0310  0.0578 -0.1643
  709POPI   GL1 7901   5.822  12.904   6.011 -0.3740 -0.3488  0.0775
  709POPI   GL2 7902   5.657  12.567   6.031  0.3492  0.0694  0.2190
  709POPI   C1A 7903   5.949  12.810   6.383  0.0291  0.0820  0.0839
  709POPI   D2A 7904   5.949  12.910   6.807  0.0258  0.0907 -0.1753
  709POPI   C3A 7905   5.824  12.502   7.034  0.1535 -0.0037 -0.0532
  709POPI   C4A 7906   5.451  12.550   7.245 -0.0301  0.1610  0.1938
  709POPI   C1B 7907   5.259  12.442   6.118  0.0472 -0.2678 -0.2523
  709POPI   C2B 7908   5.116  12.122   6.471  0.1633  0.1008 -0.1365
  709POPI   C3B 7909   5.135  12.155   7.035  0.1048 -0.3190  0.0732
  709POPI   C4B 7910   5.188  12.120   7.439 -0.1688  0.2301  0.2002
  710POPI    C1 7911  10.310   7.733   6.268  0.1225  0.0453 -0.0255
  710POPI    C2 7912  10.465   7.771   5.901  0.1785 -0.0830 -0.0159
  710POPI    C3 7913  10.068   7.753   5.950  0.1689 -0.0071 -0.0643
  710POPI   PO4 7914  10.581   7.852   6.407  0.1103 -0.0211 -0.2399
  710POPI   GL1 7915  10.722   7.791   6.778 -0.0177  0.0247 -0.0688
  710POPI   GL2 7916  10.490   7.936   6.922 -0.2287  0.1227  0.2295
  710POPI   C1A 7917  10.847   7.711   7.195  0.1780  0.1952 -0.0698
  710POPI   D2A 7918  11.149   7.666   7.408 -0.1962 -0.0037  0.1039
  710POPI   C3A 7919  11.140   7.793   7.903 -0.2768  0.2757  0.1103
  710POPI   C4A 7920  11.041   7.795   8.348  0.1162  0.1289 -0.0278
  710POPI   C1B 7921  10.383   7.686   7.339 -0.2597 -0.0119  0.0694
  710POPI   C2B 7922  10.123   7.689   7.715  0.1721 -0.6030  0.0159
  710POPI   C3B 7923   9.815   7.598   8.109  0.1267  0.2053  0.1785
  710POPI   C4B 7924   9.397   7.669   8.288  0.2489  0.1374 -0.0530
  711POPI    C1 7925  10.061  13.736   5.374  0.3974 -0.1690  0.0990
  711POPI    C2 7926   9.847  13.399   5.345  0.2451 -0.0571 -0.0985
  711POPI    C3 7927   9.795  13.693   5.078  0.0822  0.2905  0.3048
  711POPI   PO4 7928  10.206  13.654   5.700 -0.0739 -0.5629 -0.1933
  711POPI   GL1 7929  10.408  13.696   6.086 -0.1186 -0.0723  0.1138
  711POPI   GL2 7930  10.126  13.962   6.091  0.0973  0.2600 -0.0348
  711POPI   C1A 7931  10.548  13.582   6.373  0.0009 -0.2898  0.0488
  711POPI   D2A 7932  10.658  13.441   6.803  0.4596  0.0131  0.0289
  711POPI   C3A 7933  10.838  13.748   6.968  0.1928 -0.4136 -0.0158
  711POPI   C4A 7934  11.062  14.100   6.914 -0.0920  0.1047 -0.0526
  711POPI   C1B 7935  10.270  13.943   6.547  0.1248 -0.2557  0.1655
  711POPI   C2B 7936  10.274  13.992   6.899  0.1544  0.3168  0.0412
  711POPI   C3B 7937  10.445  13.943   7.314  0.1022  0.0995  0.2699
  711POPI   C4B 7938  10.364  13.799   7.733  0.1164 -0.3343  0.1357
  712POPI    C1 7939   6.293   7.895   5.636  0.0403  0.1224  0.1234
  712POPI    C2 7940   6.653   7.724   5.671 -0.0856 -0.1862 -0.0458
  712POPI    C3 7941   6.580   7.978   5.371 -0.0695 -0.2819 -0.1310
  712POPI   PO4 7942   6.272   8.051   5.905 -0.0477 -0.0616 -0.1706
  712POPI   GL1 7943   6.397   7.962   6.339  0.4208  0.1206  0.0402
  712POPI   GL2 7944   6.281   8.251   6.392  0.0845  0.0063  0.2376
  712POPI   C1A 7945   6.022   7.686   6.599 -0.0235 -0.3370  0.0708
  712POPI   D2A 7946   5.883   7.721   7.089 -0.0935  0.1624 -0.1602
  712POPI   C3A 7947   5.953   7.734   7.453 -0.0403  0.2286  0.1449
  712POPI   C4A 7948   5.918   7.997   7.780 -0.0051 -0.1091 -0.0518
  712POPI   C1B 7949   6.542   8.247   6.750 -0.1363  0.0514 -0.0035
  712POPI   C2B 7950   6.575   8.583   6.982  0.1501 -0.2184 -0.1134
  712POPI   C3B 7951   6.799   8.693   7.318  0.4887  0.2935 -0.0036
  712POPI   C4B 7952   6.723   8.780   7.652 -0.0558  0.1244  0.1288
  713POPI    C1 7953  16.472  10.780   6.240 -0.0783 -0.0345  0.1123
  713POPI    C2 7954  16.762  10.708   5.974  0.0306 -0.0909  0.2458
  713POPI    C3 7955  16.403  10.832   5.849  0.1540  0.1149  0.0891
  713POPI   PO4 7956  16.546  10.582   6.435  0.1867 -0.2470 -0.2262
  713POPI   GL1 7957  16.555  10.325   6.710  0.0038 -0.0627  0.2536
  713POPI   GL2 7958  16.776  10.537   6.871  0.0973 -0.0451  0.3331
  713POPI   C1A 7959  16.348  10.535   7.073  0.1996  0.1333 -0.0181
  713POPI   D2A 7960  16.260  10.553   7.468 -0.2500  0.2118 -0.4258
  713POPI   C3A 7961  16.361  10.255   7.695  0.0093 -0.2211  0.2506
  713POPI   C4A 7962  16.553   9.904   7.622  0.1361 -0.3388 -0.2731
  713POPI   C1B 7963  17.090  10.200   6.987  0.1903 -0.1551 -0.0763
  713POPI   C2B 7964  17.258  10.051   7.363 -0.1567  0.1228 -0.2135
  713POPI   C3B 7965  17.072  10.038   7.688 -0.0463  0.1038 -0.1013
  713POPI   C4B 7966  17.042  10.175   8.159 -0.2126  0.1471  0.1737
  714POPI    C1 7967   8.957  14.541   5.598  0.0367  0.3410 -0.0983
  714POPI    C2 7968   8.857  14.596   5.215  0.2625  0.0387 -0.2042
  714POPI    C3 7969   8.784  14.245   5.392 -0.1555  0.2875  0.1356
  714POPI   PO4 7970   8.919  14.742   5.734 -0.0280  0.2137 -0.2390
  714POPI   GL1 7971   8.733  14.682   6.067 -0.0542 -0.0304 -0.0495
  714POPI   GL2 7972   8.494  14.544   6.254  0.0361 -0.0987 -0.2892
  714POPI   C1A 7973   8.879  14.920   6.499  0.1380 -0.1750  0.0544
  714POPI   D2A 7974   8.726  14.842   6.888  0.1690 -0.0109 -0.0095
  714POPI   C3A 7975   8.546  15.071   7.265 -0.1008 -0.0758  0.1989
  714POPI   C4A 7976   8.732  15.452   7.520 -0.4310 -0.1097 -0.0345
  714POPI   C1B 7977   8.331  14.605   6.582  0.3015  0.0271 -0.0946
  714POPI   C2B 7978   8.228  14.548   6.980 -0.0234 -0.2090  0.1510
  714POPI   C3B 7979   8.238  14.618   7.404  0.0339 -0.0561 -0.0502
  714POPI   C4B 7980   8.343  14.882   7.707 -0.1586  0.0720 -0.0584
  715POPI    C1 7981  13.047  12.140   6.282  0.4535  0.2297  0.4665
  715POPI    C2 7982  12.862  11.821   6.437  0.0462  0.1489 -0.1501
  715POPI    C3 7983  13.177  11.771   6.196  0.0256  0.2165 -0.1910
  715POPI   PO4 7984  13.010  12.271   6.505  0.2209  0.4148 -0.1889
  715POPI   GL1 7985  12.797  12.147   6.879  0.2009 -0.0370 -0.1626
  715POPI   GL2 7986  13.057  12.157   7.035  0.1479 -0.2329  0.0512
  715POPI   C1A 7987  12.560  12.212   7.248 -0.0953 -0.1150 -0.0202
  715POPI   D2A 7988  12.342  12.433   7.582 -0.4212 -0.2048  0.2930
  715POPI   C3A 7989  12.318  12.334   7.979  0.1145 -0.0765 -0.0032
  715POPI   C4A 7990  12.016  12.139   8.331  0.0068  0.0568  0.2842
  715POPI   C1B 7991  13.085  12.342   7.479  0.1423  0.0591  0.2352
  715POPI   C2B 7992  12.977  12.385   7.914 -0.1697  0.1154 -0.2142
  715POPI   C3B 7993  12.772  12.155   8.237  0.0885 -0.0554 -0.0661
  715POPI   C4B 7994  13.118  12.033   8.616 -0.2878 -0.3879 -0.1598
  716POPI    C1 7995   2.429   1.734   6.232 -0.0693 -0.1903 -0.1535
  716POPI    C2 7996   2.827   1.699   6.260 -0.0810 -0.1129  0.1433
  716POPI    C3 7997   2.666   1.913   5.963  0.1046 -0.0269  0.1030
  716POPI   PO4 7998   2.351   1.468   6.288  0.1265 -0.2600 -0.2261
  716POPI   GL1 7999   2.208   1.727   6.718 -0.1672 -0.0377 -0.0161
  716POPI   GL2 8000   1.721   1.744   6.685  0.1918  0.1627 -0.0358
  716POPI   C1A 8001   1.997   1.561   7.039 -0.0116 -0.0825  0.1862
  716POPI   D2A 8002   1.579   1.410   7.172  0.3084 -0.0765 -0.1680
  716POPI   C3A 8003   1.598   1.032   7.343 -0.1193  0.3138 -0.1690
  716POPI   C4A 8004   2.066   0.942   7.094 -0.0065  0.0102 -0.0665
  716POPI   C1B 8005   1.568   1.968   7.139 -0.3551  0.1299  0.0454
  716POPI   C2B 8006   1.477   1.829   7.613 -0.3695 -0.1335 -0.0269
  716POPI   C3B 8007   1.573   1.730   7.979  0.1528  0.0061 -0.1148
  716POPI   C4B 8008   1.866   1.716   8.259  0.2341 -0.2517  0.4249
  717POPI    C1 8009  13.686  13.362   6.292 -0.0951  0.0739 -0.0576
  717POPI    C2 8010  13.971  13.553   6.498 -0.0958 -0.0166  0.0280
  717POPI    C3 8011  13.658  13.757   6.354  0.0448  0.0944 -0.1230
  717POPI   PO4 8012  13.534  13.257   6.522  0.3558  0.1626 -0.2215
  717POPI   GL1 8013  13.506  13.526   6.790 -0.2747 -0.2378 -0.2062
  717POPI   GL2 8014  13.204  13.667   6.853 -0.0416 -0.0980 -0.2735
  717POPI   C1A 8015  13.887  13.596   7.002  0.4688  0.2386  0.0928
  717POPI   D2A 8016  14.265  13.527   6.887 -0.5337 -0.1498  0.0237
  717POPI   C3A 8017  14.614  13.792   6.763  0.2160 -0.0623 -0.0937
  717POPI   C4A 8018  14.996  14.008   6.749  0.1047  0.1327  0.2725
  717POPI   C1B 8019  12.881  13.343   6.974  0.0517  0.2362 -0.0105
  717POPI   C2B 8020  12.945  13.093   7.269 -0.2052 -0.1691  0.0697
  717POPI   C3B 8021  12.856  13.301   7.646  0.1141  0.0888 -0.0771
  717POPI   C4B 8022  12.579  13.238   7.900 -0.1191 -0.0586 -0.2486
  718POPI    C1 8023   9.988   9.428   6.059  0.0109 -0.0366 -0.1144
  718POPI    C2 8024   9.660   9.498   6.277  0.0794  0.0602 -0.0415
  718POPI    C3 8025   9.654   9.559   5.882  0.0404  0.1623 -0.0255
  718POPI   PO4 8026  10.222   9.339   6.351  0.1000  0.1042 -0.0338
  718POPI   GL1 8027   9.985   9.345   6.754  0.1323  0.0142  0.1418
  718POPI   GL2 8028   9.686   9.283   6.788 -0.0240 -0.0088 -0.1374
  718POPI   C1A 8029   9.934   9.682   7.029  0.2493 -0.1412 -0.0921
  718POPI   D2A 8030   9.860   9.735   7.426 -0.1647 -0.0987 -0.5194
  718POPI   C3A 8031  10.039  10.021   7.816 -0.0392  0.0298  0.2004
  718POPI   C4A 8032  10.117  10.336   8.106  0.0000 -0.1815 -0.0958
  718POPI   C1B 8033   9.772   9.258   7.196 -0.1765 -0.1274 -0.1336
  718POPI   C2B 8034   9.629   9.130   7.683 -0.0970 -0.2597 -0.1171
  718POPI   C3B 8035   9.482   9.247   8.202  0.2837  0.0652  0.1098
  718POPI   C4B 8036   9.673   9.015   8.633 -0.1681 -0.2718 -0.0970
  719POPI    C1 8037  15.756   0.272   5.757  0.2413 -0.2644  0.0653
  719POPI    C2 8038  15.479   0.034   5.595  0.2356 -0.1145 -0.1486
  719POPI    C3 8039  15.806   0.132   5.386  0.1793  0.1626 -0.1107
  719POPI   PO4 8040  15.870   0.181   5.973  0.1914  0.1023  0.4379
  719POPI   GL1 8041  15.687   0.206   6.361  0.0460 -0.1566  0.0486
  719POPI   GL2 8042  15.643  -0.122   6.316  0.0461  0.2662 -0.5145
  719POPI   C1A 8043  15.365   0.209   6.768 -0.3291 -0.2917  0.0631
  719POPI   D2A 8044  15.327   0.399   7.062 -0.1323 -0.1292  0.1794
  719POPI   C3A 8045  15.193   0.191   7.375  0.1766  0.2536  0.1421
  719POPI   C4A 8046  15.192   0.026   7.850  0.3397 -0.1094  0.0044
  719POPI   C1B 8047  15.679  -0.246   6.753  0.0376 -0.1230 -0.0826
  719POPI   C2B 8048  15.526  -0.154   7.139  0.2172 -0.0571 -0.2532
  719POPI   C3B 8049  15.535  -0.392   7.503 -0.1019 -0.1884 -0.1761
  719POPI   C4B 8050  15.548  -0.452   7.907 -0.1307 -0.0831 -0.1063
  720POPI    C1 8051   1.240  12.547   6.282 -0.1794  0.0463  0.0853
  720POPI    C2 8052   1.034  12.735   5.995  0.0311 -0.1835 -0.2227
  720POPI    C3 8053   0.840  12.562   6.300 -0.1751  0.3718 -0.0258
  720POPI   PO4 8054   1.500  12.624   6.231  0.1745  0.1673 -0.0366
  720POPI   GL1 8055   1.741  12.788   6.507 -0.2530  0.1473 -0.2773
  720POPI   GL2 8056   1.824  13.100   6.467  0.0616  0.2511 -0.1029
  720POPI   C1A 8057   1.752  12.730   6.981 -0.1184  0.1051  0.1167
  720POPI   D2A 8058   2.086  12.452   7.112  0.0768 -0.2100  0.3588
  720POPI   C3A 8059   1.970  12.149   7.316 -0.1526 -0.1903 -0.2592
  720POPI   C4A 8060   1.935  11.821   7.611  0.0986 -0.2940  0.0552
  720POPI   C1B 8061   1.862  13.192   6.921  0.0870 -0.2423 -0.3433
  720POPI   C2B 8062   1.655  13.104   7.318  0.1423  0.0639 -0.2479
  720POPI   C3B 8063   1.451  12.994   7.724 -0.1476 -0.1253  0.1222
  720POPI   C4B 8064   1.468  13.342   7.967  0.0556 -0.3947 -0.0071
  721POPI    C1 8065   6.742  14.666   5.608 -0.0236 -0.0175  0.1601
  721POPI    C2 8066   6.582  14.447   5.314  0.0467 -0.0028  0.1107
  721POPI    C3 8067   6.346  14.669   5.549 -0.0187 -0.0849  0.1232
  721POPI   PO4 8068   7.017  14.404   5.638 -0.1288  0.1911 -0.0147
  721POPI   GL1 8069   7.187  14.332   6.173 -0.1897  0.1144 -0.1508
  721POPI   GL2 8070   7.312  14.558   6.059  0.1851 -0.3257 -0.2398
  721POPI   C1A 8071   6.866  14.162   6.452 -0.1591  0.2533 -0.0606
  721POPI   D2A 8072   6.588  14.216   6.744 -0.1172  0.0279  0.2230
  721POPI   C3A 8073   6.627  14.549   7.023 -0.0189  0.1674 -0.2626
  721POPI   C4A 8074   6.758  14.583   7.430  0.2589 -0.3986  0.0054
  721POPI   C1B 8075   7.009  14.815   6.214 -0.0484  0.2091 -0.0120
  721POPI   C2B 8076   6.675  14.703   6.527 -0.0899 -0.2363 -0.2430
  721POPI   C3B 8077   6.276  14.569   6.556  0.0080  0.0145 -0.0369
  721POPI   C4B 8078   5.951  14.233   6.630  0.0974  0.0119  0.2984
  722POPI    C1 8079   7.297  12.379   5.676  0.1247  0.0314 -0.0735
  722POPI    C2 8080   7.216  12.444   5.290  0.1969 -0.0892 -0.1094
  722POPI    C3 8081   7.557  12.264   5.395  0.1327 -0.1453  0.0048
  722POPI   PO4 8082   7.277  12.666   5.871  0.0060  0.0929 -0.1129
  722POPI   GL1 8083   6.924  12.696   6.169  0.3925  0.0520  0.0816
  722POPI   GL2 8084   6.777  12.908   5.950  0.2622 -0.4002 -0.1669
  722POPI   C1A 8085   6.960  12.668   6.561  0.1250 -0.1778  0.0561
  722POPI   D2A 8086   7.085  12.784   6.946  0.2376 -0.2789  0.1291
  722POPI   C3A 8087   7.192  12.546   7.271  0.1772  0.3078 -0.1203
  722POPI   C4A 8088   6.996  12.428   7.614 -0.1555  0.0268  0.1131
  722POPI   C1B 8089   6.511  13.197   6.132 -0.0707 -0.2398  0.0565
  722POPI   C2B 8090   6.299  13.250   6.514  0.0760  0.1123 -0.1002
  722POPI   C3B 8091   6.109  13.372   6.957  0.0952  0.1133 -0.1760
  722POPI   C4B 8092   6.076  13.591   7.332  0.0664  0.3810 -0.0853
  723POPI    C1 8093  12.070  16.558   5.609  0.2182  0.0659 -0.1790
  723POPI    C2 8094  11.789  16.563   5.323 -0.0088  0.1709  0.0418
  723POPI    C3 8095  12.144  16.735   5.258 -0.0568  0.1895 -0.1776
  723POPI   PO4 8096  11.937  16.612   5.853 -0.2500  0.2316  0.2143
  723POPI   GL1 8097  12.084  16.765   6.293 -0.3690 -0.1490  0.1025
  723POPI   GL2 8098  11.718  16.767   6.461  0.0508 -0.1323 -0.0126
  723POPI   C1A 8099  12.230  16.775   6.646  0.0591 -0.1402  0.0216
  723POPI   D2A 8100  12.084  16.571   6.821  0.1679 -0.1928 -0.1558
  723POPI   C3A 8101  11.980  16.691   7.165 -0.0465 -0.2604 -0.2688
  723POPI   C4A 8102  11.770  16.647   7.565 -0.2358 -0.2046  0.0933
  723POPI   C1B 8103  11.709  16.925   6.857  0.1100 -0.3682 -0.0659
  723POPI   C2B 8104  11.730  17.084   7.263 -0.3888 -0.1511 -0.0820
  723POPI   C3B 8105  11.945  17.123   7.664 -0.0660 -0.3157 -0.1204
  723POPI   C4B 8106  11.893  16.959   8.094 -0.0150 -0.1348 -0.1034
  724POPI    C1 8107  13.548  12.145   6.323 -0.3297  0.0392 -0.1115
  724POPI    C2 8108  13.897  12.146   6.127 -0.0098 -0.0926  0.4361
  724POPI    C3 8109  13.680  11.810   6.148 -0.1864 -0.0060  0.0802
  724POPI   PO4 8110  13.635  12.282   6.517  0.2071 -0.0085 -0.0746
  724POPI   GL1 8111  13.464  12.360   6.906  0.0422  0.2859 -0.0775
  724POPI   GL2 8112  13.301  12.532   6.792 -0.1240  0.1430 -0.1396
  724POPI   C1A 8113  13.570  12.215   7.314  0.0527  0.1162 -0.0205
  724POPI   D2A 8114  13.858  12.216   7.788 -0.0849  0.2550 -0.1506
  724POPI   C3A 8115  13.962  12.175   8.201 -0.2486  0.0940 -0.1517
  724POPI   C4A 8116  13.930  11.936   8.582 -0.1722 -0.2961  0.0221
  724POPI   C1B 8117  13.276  12.728   7.153 -0.0623  0.3645  0.0668
  724POPI   C2B 8118  13.282  12.922   7.566  0.0846  0.2078 -0.2595
  724POPI   C3B 8119  13.400  12.665   7.886 -0.1198  0.1813 -0.3469
  724POPI   C4B 8120  13.827  12.665   8.109 -0.1611 -0.2461  0.2390
  725POPI    C1 8121  13.396  16.453   6.288 -0.1476 -0.1848  0.3109
  725POPI    C2 8122  13.402  16.351   5.901  0.0217  0.2220  0.2008
  725POPI    C3 8123  13.130  16.189   6.147  0.0366 -0.1870 -0.0424
  725POPI   PO4 8124  13.680  16.448   6.323 -0.1261  0.0341 -0.3851
  725POPI   GL1 8125  13.979  16.453   6.524  0.3240  0.0234 -0.0454
  725POPI   GL2 8126  14.113  16.076   6.576  0.2089 -0.1883 -0.2193
  725POPI   C1A 8127  13.854  16.593   6.937  0.0387  0.2780  0.0949
  725POPI   D2A 8128  13.873  16.567   7.460  0.3351 -0.1973 -0.1623
  725POPI   C3A 8129  13.527  16.820   7.709 -0.2938  0.2941  0.0952
  725POPI   C4A 8130  13.589  17.252   7.784  0.1905  0.1765 -0.1210
  725POPI   C1B 8131  14.263  15.840   6.959  0.2425  0.0831  0.1229
  725POPI   C2B 8132  14.306  15.725   7.392  0.1542  0.1343  0.0863
  725POPI   C3B 8133  14.292  15.611   7.788 -0.0129 -0.1145  0.1772
  725POPI   C4B 8134  14.215  15.875   8.086 -0.0748 -0.0218 -0.1540
  726POPI    C1 8135  15.407  10.686   6.354  0.2950 -0.0056 -0.3374
  726POPI    C2 8136  15.619  10.946   6.572 -0.0580  0.1154 -0.1304
  726POPI    C3 8137  15.313  11.075   6.349 -0.2744 -0.1263  0.0210
  726POPI   PO4 8138  15.422  10.489   6.552  0.1677 -0.1772 -0.0161
  726POPI   GL1 8139  15.592  10.511   6.939 -0.0681 -0.0059 -0.2429
  726POPI   GL2 8140  15.858  10.556   6.922 -0.1427  0.1004 -0.0926
  726POPI   C1A 8141  15.440  10.439   7.391 -0.1954 -0.1333  0.5201
  726POPI   D2A 8142  15.473  10.403   7.876  0.1529 -0.1852 -0.3784
  726POPI   C3A 8143  15.259  10.279   8.300 -0.0076 -0.1152  0.1734
  726POPI   C4A 8144  15.439   9.982   8.582  0.0557 -0.2118  0.0747
  726POPI   C1B 8145  15.878  10.312   7.274  0.1227  0.3728 -0.0057
  726POPI   C2B 8146  15.897  10.220   7.704  0.0653 -0.3007 -0.0302
  726POPI   C3B 8147  15.994  10.348   8.073 -0.2088  0.0216  0.1586
  726POPI   C4B 8148  16.090  10.557   8.313 -0.2898 -0.0426  0.1688
  727POPI    C1 8149  14.672  14.041   5.696 -0.0457 -0.0133 -0.0254
  727POPI    C2 8150  14.402  13.808   5.516 -0.1385  0.0569  0.0219
  727POPI    C3 8151  14.744  13.900   5.329 -0.0838 -0.1481  0.0185
  727POPI   PO4 8152  14.626  14.012   5.932 -0.0063  0.3454 -0.2094
  727POPI   GL1 8153  14.744  14.148   6.372  0.0423  0.0905  0.1421
  727POPI   GL2 8154  14.825  14.425   6.430 -0.0645 -0.0334  0.0481
  727POPI   C1A 8155  14.614  14.317   6.884  0.1361  0.0550 -0.2653
  727POPI   D2A 8156  14.772  14.521   7.242  0.1541  0.1102  0.3056
  727POPI   C3A 8157  14.715  14.222   7.696 -0.4472 -0.1416 -0.0097
  727POPI   C4A 8158  15.012  14.194   7.962 -0.1010  0.3470 -0.1574
  727POPI   C1B 8159  15.063  14.535   6.716 -0.2157 -0.0156 -0.3262
  727POPI   C2B 8160  15.139  14.819   6.947 -0.1106  0.2670  0.3295
  727POPI   C3B 8161  14.957  15.021   7.248 -0.1756  0.2063  0.0837
  727POPI   C4B 8162  15.065  15.352   7.307 -0.1497 -0.0500  0.3923
  728POPI    C1 8163  15.625  18.157   5.918  0.0778 -0.1860  0.1282
  728POPI    C2 8164  15.927  18.281   5.687 -0.0393 -0.0724  0.0347
  728POPI    C3 8165  15.610  18.102   5.522 -0.1655  0.0928  0.0957
  728POPI   PO4 8166  15.805  17.975   6.122 -0.2447  0.0526 -0.2603
  728POPI   GL1 8167  15.935  17.914   6.572  0.0948 -0.2749 -0.1017
  728POPI   GL2 8168  15.645  17.659   6.540 -0.1603 -0.0595  0.0269
  728POPI   C1A 8169  15.977  18.033   7.109 -0.0552 -0.2180 -0.0030
  728POPI   D2A 8170  16.099  18.374   7.272  0.0624 -0.3739 -0.1303
  728POPI   C3A 8171  15.742  18.541   7.640 -0.1786 -0.1859 -0.0196
  728POPI   C4A 8172  15.717  18.510   7.979 -0.1630  0.1601  0.0291
  728POPI   C1B 8173  15.539  17.849   6.987 -0.0653  0.0647  0.0737
  728POPI   C2B 8174  15.315  17.751   7.336 -0.0395  0.3177  0.2369
  728POPI   C3B 8175  15.353  17.676   7.783 -0.1535 -0.4021  0.0180
  728POPI   C4B 8176  15.444  17.394   8.138  0.0249 -0.0610 -0.1408
  729POPI    C1 8177  13.871  17.486   6.397 -0.0485  0.0048  0.0391
  729POPI    C2 8178  14.154  17.346   6.153  0.0482  0.0771  0.1088
  729POPI    C3 8179  14.183  17.286   6.547  0.0765  0.2674  0.1366
  729POPI   PO4 8180  13.833  17.761   6.213  0.4914 -0.2890 -0.2029
  729POPI   GL1 8181  13.457  18.019   6.373 -0.1954  0.0050 -0.0666
  729POPI   GL2 8182  13.778  17.992   6.628  0.0921 -0.1570 -0.0951
  729POPI   C1A 8183  13.219  17.965   6.793 -0.2549  0.0049 -0.0309
  729POPI   D2A 8184  13.046  18.116   7.222  0.2871 -0.1658  0.2466
  729POPI   C3A 8185  13.197  18.130   7.642  0.2760 -0.2969 -0.3823
  729POPI   C4A 8186  13.206  18.091   7.990 -0.0238  0.1920  0.0490
  729POPI   C1B 8187  13.605  18.281   7.064 -0.0113 -0.0691 -0.1128
  729POPI   C2B 8188  13.635  18.447   7.502  0.1342  0.1545 -0.0529
  729POPI   C3B 8189  13.703  18.817   7.829 -0.2362  0.0873  0.1241
  729POPI   C4B 8190  13.658  18.975   8.323  0.2032 -0.0722 -0.1228
  730POPI    C1 8191  12.661  13.505   5.676  0.2708  0.0899  0.1955
  730POPI    C2 8192  12.775  13.147   5.538  0.0175  0.2025 -0.3318
  730POPI    C3 8193  12.927  13.481   5.379 -0.1751  0.3363 -0.2391
  730POPI   PO4 8194  12.740  13.555   5.983  0.1639  0.1862  0.3215
  730POPI   GL1 8195  12.407  13.758   6.295  0.2515  0.0963  0.0289
  730POPI   GL2 8196  12.702  13.757   6.484 -0.4034  0.2252 -0.3422
  730POPI   C1A 8197  12.066  13.580   6.420 -0.1130  0.3843 -0.0481
  730POPI   D2A 8198  12.005  13.343   6.722 -0.3326  0.2372  0.1777
  730POPI   C3A 8199  12.022  13.396   7.266 -0.0980 -0.1469 -0.0088
  730POPI   C4A 8200  12.118  13.466   7.678 -0.0633  0.2717  0.0462
  730POPI   C1B 8201  12.419  13.627   6.817  0.3122 -0.1676 -0.1373
  730POPI   C2B 8202  12.499  13.558   7.302 -0.0346 -0.0067  0.0248
  730POPI   C3B 8203  12.659  13.754   7.773 -0.0570 -0.2299 -0.2495
  730POPI   C4B 8204  12.849  13.986   8.082  0.0665 -0.1490  0.2042
  731POPI    C1 8205   4.191  14.920   5.713 -0.2804  0.0583  0.0502
  731POPI    C2 8206   3.887  15.178   5.679 -0.2431  0.0834 -0.0998
  731POPI    C3 8207   4.262  15.314   5.706 -0.2176  0.0439 -0.2487
  731POPI   PO4 8208   4.124  14.747   5.942  0.0987  0.0678 -0.1581
  731POPI   GL1 8209   3.816  14.928   6.131  0.2337 -0.3643  0.2880
  731POPI   GL2 8210   3.457  14.733   6.084  0.0518  0.2082 -0.1411
  731POPI   C1A 8211   3.680  14.672   6.573 -0.1115 -0.2596  0.0443
  731POPI   D2A 8212   3.706  14.605   6.948  0.0194  0.2114 -0.2068
  731POPI   C3A 8213   3.691  14.928   7.245  0.0512 -0.1057  0.1188
  731POPI   C4A 8214   3.385  14.885   7.624  0.0216  0.2514  0.0330
  731POPI   C1B 8215   3.096  14.780   6.387  0.0816  0.0456 -0.2006
  731POPI   C2B 8216   3.054  14.654   6.765 -0.1520 -0.0061 -0.0151
  731POPI   C3B 8217   2.894  14.440   7.095  0.0393 -0.1254  0.0495
  731POPI   C4B 8218   2.836  14.382   7.560 -0.0134  0.0977 -0.1149
  732POPI    C1 8219  12.689  10.537   6.126  0.2843  0.0236 -0.0886
  732POPI    C2 8220  12.718  10.157   6.247 -0.2385  0.0116  0.0232
  732POPI    C3 8221  12.626  10.239   5.867  0.1103  0.0342 -0.0597
  732POPI   PO4 8222  12.605  10.603   6.330  0.0564  0.1932 -0.0725
  732POPI   GL1 8223  12.664  10.502   6.725 -0.0283 -0.3236  0.1419
  732POPI   GL2 8224  12.354  10.409   6.707  0.1650 -0.0310  0.0823
  732POPI   C1A 8225  12.676  10.503   7.227  0.1007  0.1183 -0.2722
  732POPI   D2A 8226  12.796  10.463   7.558 -0.0370 -0.3195 -0.0551
  732POPI   C3A 8227  12.551  10.638   7.826 -0.0063  0.0890 -0.1763
  732POPI   C4A 8228  12.352  10.559   8.140 -0.2890 -0.2524  0.3761
  732POPI   C1B 8229  12.229  10.611   6.971 -0.2501  0.0085  0.3570
  732POPI   C2B 8230  12.267  10.787   7.411  0.2050  0.0772 -0.2393
  732POPI   C3B 8231  12.100  10.921   7.795  0.0802 -0.1042 -0.1146
  732POPI   C4B 8232  11.820  10.821   8.172 -0.3608  0.0125  0.0224
  733POPI    C1 8233  14.091   8.580   6.107  0.1267  0.2749 -0.0366
  733POPI    C2 8234  13.712   8.473   6.177  0.1855  0.0675 -0.0272
  733POPI    C3 8235  13.792   8.824   6.003 -0.0111  0.1059 -0.0427
  733POPI   PO4 8236  14.199   8.468   6.367  0.5441 -0.1172  0.0969
  733POPI   GL1 8237  14.246   8.725   6.729  0.0737  0.1151 -0.0084
  733POPI   GL2 8238  14.611   8.705   6.735 -0.2126 -0.1847 -0.0915
  733POPI   C1A 8239  14.189   8.537   7.152 -0.1432 -0.1806  0.0623
  733POPI   D2A 8240  13.941   8.226   7.487 -0.2028  0.3024  0.1224
  733POPI   C3A 8241  14.068   8.141   7.968 -0.0594  0.0950  0.1336
  733POPI   C4A 8242  13.899   8.142   8.368 -0.1165  0.0836 -0.1466
  733POPI   C1B 8243  15.043   8.708   6.887 -0.2872 -0.1069  0.0820
  733POPI   C2B 8244  15.480   8.788   7.014 -0.0127  0.0909 -0.0354
  733POPI   C3B 8245  15.943   8.852   7.156  0.1362 -0.2493 -0.0776
  733POPI   C4B 8246  15.994   9.165   7.494  0.2641  0.1294 -0.2556
  734POPI    C1 8247  14.395   1.583   5.597  0.0131  0.1065  0.0894
  734POPI    C2 8248  14.761   1.427   5.641 -0.0316  0.0305  0.1985
  734POPI    C3 8249  14.670   1.634   5.311  0.0116 -0.2228  0.0248
  734POPI   PO4 8250  14.374   1.655   5.930 -0.1510 -0.3193  0.1588
  734POPI   GL1 8251  14.590   1.608   6.292 -0.1873  0.1634  0.0748
  734POPI   GL2 8252  14.364   1.773   6.547 -0.0447 -0.2684  0.2098
  734POPI   C1A 8253  14.818   1.417   6.702  0.2043 -0.1917 -0.0488
  734POPI   D2A 8254  14.958   1.243   7.077  0.3477 -0.1658  0.1018
  734POPI   C3A 8255  14.782   1.319   7.478  0.1762 -0.2891 -0.1677
  734POPI   C4A 8256  14.407   1.354   7.767 -0.1490  0.2870  0.2092
  734POPI   C1B 8257  14.481   1.959   7.014 -0.3511  0.0737  0.2003
  734POPI   C2B 8258  14.640   2.091   7.465  0.2149 -0.0757 -0.0359
  734POPI   C3B 8259  14.734   2.458   7.687  0.1668  0.0938 -0.2733
  734POPI   C4B 8260  14.644   2.597   8.056 -0.2195  0.1646 -0.0593
  735POPI    C1 8261   0.790   8.410   6.329  0.1426 -0.0578  0.0571
  735POPI    C2 8262   0.898   8.612   6.001  0.1509 -0.0559  0.0610
  735POPI    C3 8263   0.608   8.337   5.980  0.1258 -0.0295  0.0598
  735POPI   PO4 8264   0.808   8.624   6.507 -0.1390  0.1594  0.1944
  735POPI   GL1 8265   0.840   8.791   6.867  0.1100 -0.2765  0.2805
  735POPI   GL2 8266   0.968   9.069   6.733  0.1209 -0.2127  0.1949
  735POPI   C1A 8267   0.965   8.741   7.322  0.2991 -0.0278  0.0891
  735POPI   D2A 8268   1.210   8.761   7.764  0.2482 -0.2041 -0.0229
  735POPI   C3A 8269   1.094   8.491   8.120  0.2102  0.2792 -0.0052
  735POPI   C4A 8270   1.198   7.998   8.152 -0.0757 -0.1329 -0.1220
  735POPI   C1B 8271   1.247   9.129   7.097 -0.2881  0.1150  0.0701
  735POPI   C2B 8272   1.286   9.177   7.489 -0.1130  0.3064  0.2077
  735POPI   C3B 8273   1.233   9.308   7.771 -0.1338 -0.4041 -0.1610
  735POPI   C4B 8274   1.330   9.682   7.995  0.2418  0.0429  0.0703
  736POPI    C1 8275  14.818  14.747   5.941 -0.1920 -0.1444  0.0625
  736POPI    C2 8276  15.210  14.709   6.009 -0.1731  0.1130  0.1066
  736POPI    C3 8277  14.989  14.385   5.928  0.0385 -0.0393  0.1287
  736POPI   PO4 8278  14.687  14.859   6.099 -0.1478  0.2234 -0.4237
  736POPI   GL1 8279  14.529  14.904   6.466 -0.2037 -0.0777  0.2199
  736POPI   GL2 8280  14.191  14.891   6.348  0.0354 -0.1773  0.0567
  736POPI   C1A 8281  14.478  14.893   6.961  0.0381  0.1822 -0.2394
  736POPI   D2A 8282  14.403  14.910   7.320 -0.0460 -0.2015 -0.1220
  736POPI   C3A 8283  14.382  14.638   7.650 -0.2727  0.1479 -0.0453
  736POPI   C4A 8284  14.224  14.354   7.892  0.1367  0.4484  0.1024
  736POPI   C1B 8285  14.307  15.273   6.594  0.2790 -0.0127  0.2021
  736POPI   C2B 8286  14.575  15.445   7.036 -0.1071  0.0027  0.1002
  736POPI   C3B 8287  14.613  15.316   7.468 -0.1529  0.2533  0.1802
  736POPI   C4B 8288  14.664  15.215   8.000 -0.1736 -0.1513 -0.3804
  737POPI    C1 8289   6.873   9.352   5.807  0.0018  0.0259  0.2166
  737POPI    C2 8290   6.676   9.630   5.598  0.0927 -0.0059  0.0867
  737POPI    C3 8291   6.512   9.269   5.656  0.1490 -0.0620 -0.0967
  737POPI   PO4 8292   6.902   9.438   6.003 -0.0901 -0.0091  0.1093
  737POPI   GL1 8293   7.145   9.681   6.290 -0.0098 -0.0846  0.0461
  737POPI   GL2 8294   7.027   9.860   6.421  0.2190 -0.2090  0.2760
  737POPI   C1A 8295   7.527   9.548   6.499  0.2266 -0.1361  0.0600
  737POPI   D2A 8296   7.718   9.574   6.850 -0.1552  0.1626  0.0437
  737POPI   C3A 8297   7.721   9.824   7.119 -0.0837  0.3217  0.1758
  737POPI   C4A 8298   7.624   9.961   7.521  0.0329  0.0757  0.2241
  737POPI   C1B 8299   7.457  10.005   6.603 -0.0250 -0.0118 -0.1874
  737POPI   C2B 8300   7.722  10.228   6.808 -0.0123  0.1773 -0.2466
  737POPI   C3B 8301   7.977  10.226   7.259 -0.2033 -0.0340 -0.1057
  737POPI   C4B 8302   7.903  10.315   7.757  0.0818 -0.1772 -0.3155
  738POPI    C1 8303  15.053   5.658   5.979 -0.0298  0.0587  0.0229
  738POPI    C2 8304  14.670   5.648   5.862 -0.1217  0.1106  0.3086
  738POPI    C3 8305  14.957   5.749   5.602 -0.3208  0.2470  0.1379
  738POPI   PO4 8306  15.061   5.631   6.174 -0.0604 -0.0770 -0.0177
  738POPI   GL1 8307  14.959   5.624   6.607  0.0352  0.1812  0.0156
  738POPI   GL2 8308  14.889   5.933   6.674  0.1985 -0.2046 -0.1856
  738POPI   C1A 8309  15.346   5.800   6.832  0.1699 -0.1592 -0.2570
  738POPI   D2A 8310  15.407   5.842   7.226 -0.3166 -0.3146 -0.2410
  738POPI   C3A 8311  15.355   5.603   7.609 -0.4697 -0.2431 -0.1908
  738POPI   C4A 8312  15.222   5.398   7.912  0.1684  0.3327  0.0335
  738POPI   C1B 8313  14.837   6.100   7.135  0.0645  0.0643  0.1593
  738POPI   C2B 8314  14.481   6.195   7.357  0.1685 -0.0730  0.1709
  738POPI   C3B 8315  14.110   6.014   7.473 -0.1530  0.3009 -0.2816
  738POPI   C4B 8316  13.637   5.831   7.522  0.0991 -0.0826  0.0667
  739POPS   CNO 8317   2.789   9.222   5.974  0.4810 -0.3500  0.1631
  739POPS   PO4 8318   2.772   9.421   6.407  0.0586  0.2100  0.0177
  739POPS   GL1 8319   2.993   9.364   6.879  0.0852  0.1545  0.1557
  739POPS   GL2 8320   2.697   9.483   6.981  0.1846 -0.0984  0.0137
  739POPS   C1A 8321   3.112   9.583   7.244  0.1472 -0.1460  0.2830
  739POPS   D2A 8322   3.151   9.848   7.616 -0.0617 -0.0442 -0.2363
  739POPS   C3A 8323   3.239  10.199   7.826  0.1961  0.3684  0.1439
  739POPS   C4A 8324   3.172  10.609   7.983  0.0027 -0.0863 -0.0588
  739POPS   C1B 8325   2.702   9.798   7.345 -0.0430  0.0268  0.0187
  739POPS   C2B 8326   2.446   9.726   7.820  0.0694 -0.0155  0.0687
  739POPS   C3B 8327   2.206  10.000   7.920 -0.1586 -0.0676 -0.0748
  739POPS   C4B 8328   2.067  10.298   8.214  0.0399 -0.0380 -0.1999
  740POPS   CNO 8329  13.242   5.856   5.928  0.1847 -0.1090  0.1144
  740POPS   PO4 8330  13.436   6.197   6.187  0.1160 -0.0602  0.3631
  740POPS   GL1 8331  13.186   6.106   6.538  0.0050 -0.0491 -0.0762
  740POPS   GL2 8332  13.429   6.270   6.704 -0.1066 -0.1875  0.1565
  740POPS   C1A 8333  13.052   6.059   7.007 -0.1452 -0.2168  0.3078
  740POPS   D2A 8334  13.116   5.863   7.378  0.0172  0.1395 -0.0119
  740POPS   C3A 8335  13.175   5.996   7.745  0.2325  0.1021 -0.3421
  740POPS   C4A 8336  13.661   5.985   7.981 -0.1081  0.2036 -0.0689
  740POPS   C1B 8337  13.189   6.516   6.904  0.2109  0.1660 -0.1303
  740POPS   C2B 8338  12.961   6.691   7.203 -0.0186 -0.1428  0.1985
  740POPS   C3B 8339  12.912   6.948   7.496 -0.1367 -0.1031 -0.1996
  740POPS   C4B 8340  13.107   7.130   7.669  0.0293  0.0730  0.0537
  741POPS   CNO 8341   6.939  16.208   5.540  0.1319  0.0527  0.0936
  741POPS   PO4 8342   6.795  15.883   5.594 -0.6397 -0.1459  0.3092
  741POPS   GL1 8343   6.977  16.024   6.043  0.1518 -0.1244 -0.5394
  741POPS   GL2 8344   7.350  15.896   6.251  0.0436  0.1088 -0.0839
  741POPS   C1A 8345   6.910  15.967   6.506  0.1079  0.0321 -0.1423
  741POPS   D2A 8346   7.134  15.718   6.824  0.0714 -0.1891  0.2803
  741POPS   C3A 8347   6.972  15.435   6.908  0.0704 -0.1026 -0.0201
  741POPS   C4A 8348   7.082  14.975   6.785  0.1398  0.3296 -0.2785
  741POPS   C1B 8349   7.337  16.441   6.398 -0.0273 -0.0448 -0.2271
  741POPS   C2B 8350   7.270  16.740   6.676  0.5836  0.0293  0.2416
  741POPS   C3B 8351   7.107  16.646   7.127 -0.0049 -0.1080  0.3853
  741POPS   C4B 8352   6.974  16.485   7.575  0.0178 -0.0789 -0.1350
  742POPS   CNO 8353  10.519  12.741   5.775 -0.4249  0.2247  0.1030
  742POPS   PO4 8354  10.619  12.357   5.910 -0.0308 -0.2573 -0.0120
  742POPS   GL1 8355  10.473  12.177   6.346 -0.0474  0.0990 -0.1598
  742POPS   GL2 8356  10.219  11.956   6.436 -0.2669 -0.1943 -0.0659
  742POPS   C1A 8357  10.357  12.303   6.770  0.0981 -0.0196 -0.1497
  742POPS   D2A 8358  10.179  12.431   7.145  0.0999 -0.0956 -0.1338
  742POPS   C3A 8359  10.318  12.521   7.634 -0.1430 -0.0297 -0.0110
  742POPS   C4A 8360  10.417  12.877   8.011  0.2002  0.1622 -0.0702
  742POPS   C1B 8361  10.150  11.861   6.870  0.0205  0.2645 -0.4750
  742POPS   C2B 8362   9.875  11.882   7.188 -0.0016  0.0415 -0.0895
  742POPS   C3B 8363   9.402  11.861   7.432 -0.1386 -0.1729  0.1242
  742POPS   C4B 8364   8.845  11.912   7.352 -0.0693  0.3480 -0.2082
  743POPS   CNO 8365   7.170  17.169   5.708  0.0016  0.0352  0.4106
  743POPS   PO4 8366   7.009  16.877   5.984 -0.2269  0.2227  0.3762
  743POPS   GL1 8367   6.813  16.594   6.264  0.0447  0.2751 -0.0332
  743POPS   GL2 8368   6.520  16.762   6.408  0.0981 -0.1464 -0.0569
  743POPS   C1A 8369   6.836  16.487   6.678 -0.4006  0.2373 -0.1870
  743POPS   D2A 8370   7.208  16.233   6.894  0.0402 -0.1220 -0.1399
  743POPS   C3A 8371   7.332  16.191   7.333 -0.0232  0.4288 -0.2956
  743POPS   C4A 8372   7.128  16.015   7.784  0.0130  0.0245 -0.1377
  743POPS   C1B 8373   6.426  16.779   6.807  0.5286 -0.2789 -0.0395
  743POPS   C2B 8374   6.601  16.778   7.230 -0.5952  0.1010 -0.1222
  743POPS   C3B 8375   6.559  16.730   7.639  0.1118  0.0881 -0.0922
  743POPS   C4B 8376   6.414  16.641   7.993 -0.3653  0.1840 -0.1514
  744POPS   CNO 8377   5.254   9.677   5.904 -0.0116 -0.2698  0.1338
  744POPS   PO4 8378   5.360  10.163   6.000  0.4722  0.0326 -0.0096
  744POPS   GL1 8379   5.265  10.245   6.422  0.0432 -0.1574 -0.4094
  744POPS   GL2 8380   5.305   9.991   6.631 -0.3384  0.2441 -0.0742
  744POPS   C1A 8381   5.176  10.557   6.634 -0.1294  0.2598  0.2955
  744POPS   D2A 8382   5.103  10.683   7.000 -0.3766 -0.1355  0.1000
  744POPS   C3A 8383   5.456  10.748   7.158  0.2316  0.0782 -0.0032
  744POPS   C4A 8384   5.698  10.828   7.617 -0.1059  0.0718  0.0452
  744POPS   C1B 8385   5.469  10.258   6.951 -0.0432 -0.1120 -0.0305
  744POPS   C2B 8386   5.734  10.331   7.201  0.3298 -0.0180  0.3256
  744POPS   C3B 8387   5.467  10.287   7.579  0.0235  0.0477 -0.1189
  744POPS   C4B 8388   5.438  10.445   7.901 -0.0619 -0.3266 -0.2986
  745POPS   CNO 8389  17.223   0.897   6.206 -0.2482 -0.2016  0.0004
  745POPS   PO4 8390  17.495   0.622   6.234 -0.0319 -0.1740 -0.3743
  745POPS   GL1 8391  17.533   0.350   6.508  0.3304  0.2555 -0.0511
  745POPS   GL2 8392  17.786   0.190   6.549 -0.1934 -0.0547 -0.0883
  745POPS   C1A 8393  17.391   0.360   7.045 -0.1327  0.0779  0.1891
  745POPS   D2A 8394  17.278   0.344   7.381  0.0001 -0.0264  0.0620
  745POPS   C3A 8395  17.277   0.031   7.754  0.0850  0.1923 -0.0896
  745POPS   C4A 8396  17.018  -0.229   8.084  0.0168 -0.1709  0.3724
  745POPS   C1B 8397  18.082   0.178   6.888  0.1868 -0.0661 -0.3670
  745POPS   C2B 8398  18.202   0.023   7.281  0.2120 -0.0841  0.0125
  745POPS   C3B 8399  18.103   0.075   7.687 -0.1873  0.1942 -0.0321
  745POPS   C4B 8400  18.206  -0.113   8.161 -0.0421 -0.2389  0.0120
  746POPS   CNO 8401  10.966  16.668   5.619  0.1604  0.1226 -0.1715
  746POPS   PO4 8402  11.206  16.794   5.986  0.2733 -0.0499 -0.1828
  746POPS   GL1 8403  11.270  16.539   6.417  0.0906 -0.0712 -0.0913
  746POPS   GL2 8404  11.035  16.698   6.596  0.0358 -0.3445 -0.0904
  746POPS   C1A 8405  11.506  16.343   6.660  0.3254  0.0858 -0.0484
  746POPS   D2A 8406  11.644  16.375   7.054 -0.0450 -0.0195 -0.2593
  746POPS   C3A 8407  11.407  16.311   7.276 -0.0596 -0.2032  0.0025
  746POPS   C4A 8408  10.961  16.414   7.449  0.0224  0.2819  0.0290
  746POPS   C1B 8409  11.240  16.919   6.958  0.0399 -0.1197 -0.2370
  746POPS   C2B 8410  11.217  16.863   7.377 -0.1715  0.2362 -0.4748
  746POPS   C3B 8411  11.432  17.041   7.685  0.1365  0.1325  0.1377
  746POPS   C4B 8412  11.548  17.303   7.926  0.1304 -0.0254 -0.1216
  747POPS   CNO 8413   9.036  15.067   5.391  0.2272 -0.0411 -0.1994
  747POPS   PO4 8414   9.403  15.000   5.667  0.0876 -0.1240  0.0176
  747POPS   GL1 8415   9.222  14.918   6.118  0.1067  0.0974 -0.0843
  747POPS   GL2 8416   9.196  14.569   6.324  0.1084  0.3839  0.0952
  747POPS   C1A 8417   9.507  15.012   6.479  0.0448 -0.0864 -0.3019
  747POPS   D2A 8418   9.724  15.204   6.677  0.1197  0.1442 -0.0209
  747POPS   C3A 8419   9.965  15.047   6.974  0.1727  0.1146 -0.1185
  747POPS   C4A 8420   9.961  14.780   7.346 -0.1922  0.1310  0.0074
  747POPS   C1B 8421   9.186  14.594   6.790  0.3118 -0.0559 -0.1934
  747POPS   C2B 8422   9.183  14.466   7.259  0.1328 -0.0297 -0.2419
  747POPS   C3B 8423   9.192  14.425   7.656 -0.0990  0.2003 -0.2416
  747POPS   C4B 8424   9.446  14.720   7.784 -0.2252  0.2504  0.0006
  748POPS   CNO 8425  11.955   7.012   6.098 -0.0056 -0.1083 -0.1536
  748POPS   PO4 8426  11.745   7.077   6.505  0.0852  0.1556 -0.1348
  748POPS   GL1 8427  11.687   6.954   7.020 -0.2467  0.1458 -0.1153
  748POPS   GL2 8428  12.079   6.969   7.136 -0.3029 -0.2548 -0.2061
  748POPS   C1A 8429  11.787   6.660   7.349  0.1010 -0.2540  0.1651
  748POPS   D2A 8430  11.985   6.514   7.766  0.1439  0.1191  0.1484
  748POPS   C3A 8431  11.980   6.301   8.118 -0.1612 -0.2082  0.0016
  748POPS   C4A 8432  11.885   6.143   8.460  0.4220 -0.0574  0.0749
  748POPS   C1B 8433  11.874   7.158   7.426  0.1350 -0.1072  0.3170
  748POPS   C2B 8434  12.025   7.399   7.773 -0.1334  0.2325 -0.1190
  748POPS   C3B 8435  12.051   7.807   8.084  0.0740  0.3430 -0.2071
  748POPS   C4B 8436  12.208   7.895   8.420  0.3514 -0.2097  0.1038
  749POPS   CNO 8437   1.237   6.368   6.091 -0.2244  0.1086  0.0565
  749POPS   PO4 8438   1.446   5.981   6.164 -0.2619  0.0300 -0.1008
  749POPS   GL1 8439   1.348   5.994   6.638 -0.0369  0.1642  0.0858
  749POPS   GL2 8440   1.272   6.361   6.670  0.0355 -0.1418  0.0561
  749POPS   C1A 8441   1.238   5.544   6.892  0.1829  0.3599 -0.0103
  749POPS   D2A 8442   0.917   5.339   7.136  0.1322 -0.1048 -0.0607
  749POPS   C3A 8443   1.033   4.930   7.349  0.0857 -0.0058  0.1459
  749POPS   C4A 8444   1.433   4.873   7.635 -0.0388  0.2011 -0.0425
  749POPS   C1B 8445   1.279   6.256   7.152  0.1229 -0.1618  0.1742
  749POPS   C2B 8446   1.478   6.272   7.593 -0.0766 -0.0299 -0.2094
  749POPS   C3B 8447   1.329   6.389   8.003 -0.0994  0.0394  0.2569
  749POPS   C4B 8448   1.417   6.732   8.337  0.1745  0.2260  0.0579
  750POPS   CNO 8449  11.231  11.494   6.214 -0.0848  0.0882  0.1062
  750POPS   PO4 8450  10.814  11.397   5.972  0.1125  0.1879 -0.1725
  750POPS   GL1 8451  10.702  11.449   6.496  0.0391 -0.2414  0.0237
  750POPS   GL2 8452  10.824  11.140   6.690  0.1873 -0.0387 -0.1430
  750POPS   C1A 8453  10.517  11.489   6.847  0.1823 -0.1527  0.3087
  750POPS   D2A 8454  10.531  11.770   7.152  0.0772 -0.0079 -0.1267
  750POPS   C3A 8455  10.644  12.186   7.175 -0.0899  0.0087 -0.0213
  750POPS   C4A 8456  10.726  12.472   7.122 -0.1978  0.1880 -0.2496
  750POPS   C1B 8457  10.672  11.002   6.959 -0.0938 -0.0676 -0.1003
  750POPS   C2B 8458  10.598  10.913   7.395  0.1923  0.1632  0.1969
  750POPS   C3B 8459  10.640  11.052   7.772 -0.4268 -0.1429  0.3276
  750POPS   C4B 8460  10.433  11.400   8.102  0.1414  0.4645  0.2324
  751POPS   CNO 8461  17.708   6.097   6.468 -0.0348  0.1950 -0.0325
  751POPS   PO4 8462  17.215   6.055   6.464  0.6077  0.0827  0.3026
  751POPS   GL1 8463  17.383   6.300   6.773  0.3061  0.1756 -0.3901
  751POPS   GL2 8464  17.631   6.519   6.691 -0.0647  0.2015 -0.1750
  751POPS   C1A 8465  17.419   6.247   7.236  0.1695 -0.0830 -0.0707
  751POPS   D2A 8466  17.687   6.262   7.662 -0.2102  0.0565 -0.1221
  751POPS   C3A 8467  17.794   5.891   7.797  0.2474 -0.0388 -0.0511
  751POPS   C4A 8468  17.660   5.496   8.043  0.0311  0.1209 -0.2855
  751POPS   C1B 8469  17.813   6.532   7.143  0.1164 -0.0339  0.0079
  751POPS   C2B 8470  18.053   6.686   7.578 -0.1554 -0.0482  0.2372
  751POPS   C3B 8471  18.164   6.876   7.897  0.2720 -0.2015  0.1248
  751POPS   C4B 8472  18.225   7.039   8.444 -0.4779 -0.1306 -0.1101
  752POPS   CNO 8473   9.977  12.765   5.031  0.2031 -0.1974  0.0593
  752POPS   PO4 8474   9.660  12.864   5.353  0.1165  0.1273 -0.0431
  752POPS   GL1 8475   9.763  12.946   5.918 -0.1857 -0.1193  0.3193
  752POPS   GL2 8476   9.610  12.749   6.132 -0.0176  0.2029 -0.1034
  752POPS   C1A 8477   9.990  13.076   6.341 -0.0955  0.2145  0.1634
  752POPS   D2A 8478  10.111  13.437   6.527  0.0191  0.6201 -0.4292
  752POPS   C3A 8479  10.141  13.483   6.970  0.0227  0.4277  0.1315
  752POPS   C4A 8480  10.368  13.469   7.295  0.0471  0.2106  0.3762
  752POPS   C1B 8481   9.588  12.686   6.519 -0.1368 -0.1982  0.2986
  752POPS   C2B 8482   9.555  12.805   6.970  0.2498 -0.1502 -0.2314
  752POPS   C3B 8483   9.594  12.763   7.421 -0.2143  0.1663  0.1539
  752POPS   C4B 8484   9.550  12.535   7.803 -0.0885 -0.3808 -0.0561
  753POPS   CNO 8485  12.877  14.839   5.862 -0.0043  0.4381 -0.0636
  753POPS   PO4 8486  13.020  14.630   6.321  0.0253  0.1223  0.0597
  753POPS   GL1 8487  12.773  14.852   6.598  0.2031  0.0152 -0.1463
  753POPS   GL2 8488  12.508  14.740   6.717  0.1039  0.0300 -0.1049
  753POPS   C1A 8489  12.830  15.070   6.987  0.2779 -0.0893 -0.0221
  753POPS   D2A 8490  12.924  15.093   7.314  0.0146 -0.4047  0.0261
  753POPS   C3A 8491  13.238  15.167   7.591 -0.1440  0.2514  0.1833
  753POPS   C4A 8492  13.260  15.448   7.949  0.1137  0.2576  0.1238
  753POPS   C1B 8493  12.248  14.846   6.996  0.2026 -0.1745 -0.1975
  753POPS   C2B 8494  12.188  14.773   7.499  0.2038  0.2484 -0.0051
  753POPS   C3B 8495  11.801  14.812   7.855  0.2066  0.1889  0.0356
  753POPS   C4B 8496  11.608  14.502   8.121 -0.0592 -0.3425  0.1105
  754POPS   CNO 8497   8.852  13.840   5.747  0.1121 -0.1513  0.1536
  754POPS   PO4 8498   9.118  13.468   5.887 -0.0054  0.0485 -0.0570
  754POPS   GL1 8499   8.975  13.599   6.256 -0.0471  0.0965 -0.0541
  754POPS   GL2 8500   8.714  13.698   6.216 -0.1417 -0.1523  0.2065
  754POPS   C1A 8501   9.063  13.589   6.626  0.3566  0.1578  0.1675
  754POPS   D2A 8502   9.193  13.771   6.925 -0.1151  0.2815  0.0365
  754POPS   C3A 8503   9.146  13.536   7.323  0.2125 -0.1865 -0.2101
  754POPS   C4A 8504   8.835  13.212   7.531  0.3265  0.1106 -0.1542
  754POPS   C1B 8505   8.591  13.744   6.606 -0.0188 -0.1776 -0.0434
  754POPS   C2B 8506   8.284  13.531   6.914 -0.1811 -0.2710 -0.2880
  754POPS   C3B 8507   7.983  13.676   7.220 -0.0724  0.2030 -0.0007
  754POPS   C4B 8508   7.839  13.438   7.423 -0.0212  0.2466 -0.0470
  755POPS   CNO 8509   2.346   4.911   6.070  0.0770 -0.1122 -0.1388
  755POPS   PO4 8510   2.912   4.802   6.165  0.0103  0.1722 -0.2581
  755POPS   GL1 8511   3.028   5.052   6.465 -0.0942  0.0476 -0.0487
  755POPS   GL2 8512   2.738   5.100   6.528 -0.0284 -0.1244  0.0362
  755POPS   C1A 8513   3.383   4.984   6.642 -0.1350  0.0442 -0.0652
  755POPS   D2A 8514   3.799   4.803   6.808 -0.0527  0.0396 -0.0979
  755POPS   C3A 8515   3.705   4.726   7.311 -0.0930  0.3060 -0.2297
  755POPS   C4A 8516   3.809   5.048   7.648  0.1724 -0.0162 -0.1669
  755POPS   C1B 8517   2.910   5.029   6.924  0.0698 -0.2001  0.0389
  755POPS   C2B 8518   2.808   4.919   7.290  0.3453  0.0423 -0.1151
  755POPS   C3B 8519   2.776   4.972   7.693 -0.1238  0.3346 -0.3628
  755POPS   C4B 8520   2.691   5.126   8.147 -0.1888 -0.1892  0.1098
  756POPS   CNO 8521   5.633   7.057   5.282  0.0183 -0.1543  0.0999
  756POPS   PO4 8522   5.714   6.718   5.600 -0.1279 -0.1043  0.1826
  756POPS   GL1 8523   5.693   6.599   6.087  0.0140 -0.1960  0.0985
  756POPS   GL2 8524   5.539   6.386   6.209  0.2338 -0.1552 -0.1348
  756POPS   C1A 8525   5.574   6.794   6.435  0.0580  0.2123 -0.0759
  756POPS   D2A 8526   5.597   6.540   6.801  0.0420  0.0641  0.3381
  756POPS   C3A 8527   5.242   6.522   7.089  0.0636 -0.0629 -0.4055
  756POPS   C4A 8528   5.185   6.653   7.493 -0.0207  0.1586 -0.0580
  756POPS   C1B 8529   5.169   6.480   6.382  0.0835  0.0528  0.0231
  756POPS   C2B 8530   5.028   6.800   6.434 -0.0116 -0.2854 -0.0858
  756POPS   C3B 8531   4.724   7.146   6.309 -0.0449 -0.2326  0.2356
  756POPS   C4B 8532   4.478   7.412   6.470  0.2459 -0.1044  0.1614
  757POPS   CNO 8533  13.598  10.143   6.168  0.0635  0.0687 -0.2337
  757POPS   PO4 8534  13.765   9.828   6.357  0.1143 -0.1990  0.0140
  757POPS   GL1 8535  13.974   9.849   6.782  0.0779  0.0859  0.1063
  757POPS   GL2 8536  14.093  10.089   6.915 -0.0379 -0.2356  0.0012
  757POPS   C1A 8537  13.794   9.662   7.084  0.0719 -0.3172  0.0264
  757POPS   D2A 8538  13.421   9.915   7.227 -0.0937  0.1350  0.1463
  757POPS   C3A 8539  13.348   9.709   7.507 -0.2137  0.0440 -0.0117
  757POPS   C4A 8540  13.061   9.403   7.680  0.1151 -0.3995 -0.4065
  757POPS   C1B 8541  13.843  10.224   7.187  0.0794  0.2417  0.0401
  757POPS   C2B 8542  13.751  10.516   7.537 -0.1985 -0.2262  0.1781
  757POPS   C3B 8543  13.632  10.604   8.020  0.0901  0.3544  0.1335
  757POPS   C4B 8544  13.546  11.053   8.260  0.2545  0.3040 -0.1064
  758POPS   CNO 8545  11.800  12.916   5.741 -0.2521  0.0899  0.3618
  758POPS   PO4 8546  11.397  12.891   5.895 -0.2945 -0.1067 -0.2512
  758POPS   GL1 8547  11.219  13.161   6.190 -0.4568 -0.2644 -0.0222
  758POPS   GL2 8548  11.447  13.093   6.546 -0.2027 -0.3673  0.1179
  758POPS   C1A 8549  11.109  13.464   6.482 -0.0412  0.1016 -0.1551
  758POPS   D2A 8550  10.958  13.948   6.422 -0.3118 -0.1754 -0.3767
  758POPS   C3A 8551  10.680  14.139   6.237  0.2290  0.2238  0.4311
  758POPS   C4A 8552  10.453  14.455   6.081 -0.3547  0.1996 -0.1804
  758POPS   C1B 8553  11.227  13.183   6.967 -0.0049 -0.1151  0.0286
  758POPS   C2B 8554  10.874  13.378   7.239  0.4166 -0.0631 -0.1520
  758POPS   C3B 8555  10.884  13.699   7.461 -0.0548 -0.0633  0.1276
  758POPS   C4B 8556  10.845  13.955   7.754 -0.1279 -0.2502  0.1915
  759POPS   CNO 8557  12.464   3.614   6.096  0.0109 -0.1463  0.1166
  759POPS   PO4 8558  12.261   3.819   6.392  0.2085  0.1224 -0.2458
  759POPS   GL1 8559  11.935   3.640   6.780 -0.1482 -0.3746 -0.1705
  759POPS   GL2 8560  11.870   3.978   6.690  0.1659 -0.1571 -0.0098
  759POPS   C1A 8561  11.734   3.715   7.073  0.2851  0.0094 -0.0978
  759POPS   D2A 8562  11.315   3.909   7.124 -0.0778 -0.2437 -0.0522
  759POPS   C3A 8563  11.204   3.882   7.449  0.0518  0.0443  0.1185
  759POPS   C4A 8564  11.241   3.944   7.933  0.0768 -0.4235 -0.0059
  759POPS   C1B 8565  11.702   4.195   6.928  0.0597  0.0732 -0.1471
  759POPS   C2B 8566  11.614   4.177   7.377  0.1737  0.0374 -0.2101
  759POPS   C3B 8567  11.673   3.945   7.589 -0.3045 -0.0211 -0.0609
  759POPS   C4B 8568  11.877   3.961   8.003 -0.1285  0.2499  0.1300
  760POPS   CNO 8569   5.077   8.670   5.846 -0.5181 -0.1045  0.1246
  760POPS   PO4 8570   4.874   8.788   6.146 -0.1435  0.0798 -0.2216
  760POPS   GL1 8571   4.891   9.017   6.527 -0.2510 -0.3115  0.0932
  760POPS   GL2 8572   5.034   9.237   6.476  0.0503 -0.0895  0.2945
  760POPS   C1A 8573   4.847   9.072   6.974  0.1268 -0.0119  0.0992
  760POPS   D2A 8574   4.863   9.199   7.373  0.3498  0.1006  0.1503
  760POPS   C3A 8575   4.859   8.812   7.657 -0.2054  0.1760 -0.0799
  760POPS   C4A 8576   4.890   8.567   7.941 -0.0006 -0.3889 -0.2648
  760POPS   C1B 8577   4.944   9.599   6.694  0.3110  0.1491  0.2881
  760POPS   C2B 8578   5.038   9.605   7.076  0.2058  0.1938 -0.1038
  760POPS   C3B 8579   5.139   9.631   7.566 -0.1475  0.0584 -0.2133
  760POPS   C4B 8580   5.474   9.723   7.782 -0.2096 -0.0907 -0.1374
  761POPS   CNO 8581   8.598   0.559   5.921 -0.1356 -0.0357  0.0556
  761POPS   PO4 8582   8.599   0.073   5.774  0.3430  0.0694  0.1293
  761POPS   GL1 8583   8.538   0.189   6.244 -0.1225 -0.0741 -0.1485
  761POPS   GL2 8584   8.296   0.455   6.337 -0.2367  0.1419 -0.0312
  761POPS   C1A 8585   8.629   0.343   6.673  0.1708  0.1260 -0.2823
  761POPS   D2A 8586   8.464   0.495   7.140 -0.3893 -0.0169  0.0424
  761POPS   C3A 8587   8.789   0.665   7.385 -0.0344 -0.1811  0.0911
  761POPS   C4A 8588   8.732   0.901   7.730  0.0427  0.1369 -0.0912
  761POPS   C1B 8589   7.917   0.536   6.486  0.0340 -0.0832 -0.1641
  761POPS   C2B 8590   7.654   0.388   6.806  0.3842 -0.0186 -0.1032
  761POPS   C3B 8591   7.417   0.143   7.115 -0.0931 -0.0021  0.0605
  761POPS   C4B 8592   7.477   0.319   7.430 -0.0836 -0.2367 -0.0211
  762POPS   CNO 8593  18.470   2.323   5.943 -0.1695 -0.1847 -0.1916
  762POPS   PO4 8594  18.415   2.080   6.256  0.1242 -0.3190 -0.2734
  762POPS   GL1 8595  18.470   2.378   6.598 -0.0363 -0.0445 -0.2884
  762POPS   GL2 8596  18.773   2.554   6.607 -0.2373 -0.2272 -0.1017
  762POPS   C1A 8597  18.410   2.571   6.999 -0.1608  0.0125 -0.2546
  762POPS   D2A 8598  18.557   2.803   7.306  0.2762 -0.2958 -0.4636
  762POPS   C3A 8599  18.607   2.665   7.698  0.1745  0.2761  0.0906
  762POPS   C4A 8600  19.047   2.851   7.948  0.3987  0.6511  0.1111
  762POPS   C1B 8601  19.000   2.665   7.013  0.2299  0.0948 -0.1487
  762POPS   C2B 8602  19.027   2.634   7.504  0.0557 -0.2854  0.0700
  762POPS   C3B 8603  19.342   2.546   7.817  0.2740  0.3104 -0.0137
  762POPS   C4B 8604  19.554   2.557   8.229  0.3366  0.1070 -0.2929
  763POPS   CNO 8605   6.225  11.899   6.206  0.0947 -0.1771  0.1542
  763POPS   PO4 8606   6.022  11.797   5.951 -0.3973  0.2188 -0.2061
  763POPS   GL1 8607   5.730  11.774   6.341 -0.2213 -0.0216  0.0857
  763POPS   GL2 8608   5.652  12.158   6.383  0.0853  0.1753  0.2096
  763POPS   C1A 8609   5.992  11.830   6.679  0.0958  0.2253  0.2163
  763POPS   D2A 8610   6.169  12.060   7.133 -0.1775 -0.2325 -0.0274
  763POPS   C3A 8611   6.048  12.388   7.479  0.2408 -0.0957  0.0716
  763POPS   C4A 8612   5.763  12.734   7.570 -0.1739  0.0351  0.1406
  763POPS   C1B 8613   5.565  12.139   6.835 -0.2537 -0.0808 -0.3723
  763POPS   C2B 8614   5.624  12.063   7.298  0.3572 -0.1565 -0.2608
  763POPS   C3B 8615   5.587  12.203   7.738  0.0890 -0.4911  0.0496
  763POPS   C4B 8616   5.105  12.105   7.945  0.3006 -0.0301  0.0554
  764POPS   CNO 8617   7.802   6.979   5.860 -0.2647  0.0517 -0.2096
  764POPS   PO4 8618   7.857   6.764   6.278  0.2199 -0.0052 -0.1849
  764POPS   GL1 8619   7.854   6.839   6.644 -0.0107 -0.0500  0.1276
  764POPS   GL2 8620   7.590   6.547   6.752 -0.1135 -0.0054 -0.3096
  764POPS   C1A 8621   7.801   6.824   7.150 -0.0021 -0.1208 -0.2621
  764POPS   D2A 8622   7.714   6.989   7.573 -0.1922 -0.2652  0.1145
  764POPS   C3A 8623   7.506   6.750   7.819  0.2609  0.0367  0.1706
  764POPS   C4A 8624   7.467   6.727   8.261 -0.1434  0.1407  0.1023
  764POPS   C1B 8625   7.442   6.519   7.200  0.1795 -0.2075 -0.0017
  764POPS   C2B 8626   7.077   6.568   7.528  0.1432  0.2419  0.1839
  764POPS   C3B 8627   6.971   6.826   7.937 -0.2128  0.1844  0.1137
  764POPS   C4B 8628   6.724   6.903   8.237 -0.1359 -0.0697  0.0710
  765POPS   CNO 8629  12.045   2.310   6.047 -0.0438  0.0235 -0.1867
  765POPS   PO4 8630  11.662   2.234   6.217 -0.2307 -0.1567 -0.0794
  765POPS   GL1 8631  11.517   2.036   6.599 -0.3604 -0.2230  0.1767
  765POPS   GL2 8632  11.555   2.228   6.953 -0.1882 -0.1363  0.0361
  765POPS   C1A 8633  11.543   1.720   6.939 -0.1893  0.0344  0.5996
  765POPS   D2A 8634  11.157   1.457   7.204  0.3204  0.2123 -0.0686
  765POPS   C3A 8635  10.985   1.273   7.635  0.1507 -0.1950  0.0973
  765POPS   C4A 8636  11.220   1.190   8.028 -0.2959  0.1374 -0.1950
  765POPS   C1B 8637  11.295   2.011   7.289 -0.1040  0.1137 -0.0706
  765POPS   C2B 8638  11.035   1.829   7.578 -0.0264  0.1797  0.2757
  765POPS   C3B 8639  10.941   1.773   7.959  0.3699 -0.0029 -0.0568
  765POPS   C4B 8640  11.046   1.631   8.379 -0.0959 -0.3628  0.0215
  766POPS   CNO 8641   4.104   8.972   5.712 -0.0275 -0.2802  0.1952
  766POPS   PO4 8642   4.269   8.968   6.087  0.0726 -0.0528  0.0454
  766POPS   GL1 8643   4.438   8.842   6.422  0.0219 -0.2062 -0.0650
  766POPS   GL2 8644   4.477   8.500   6.337 -0.0976 -0.0089  0.0730
  766POPS   C1A 8645   4.410   8.786   6.851 -0.1041  0.0061  0.3522
  766POPS   D2A 8646   4.456   8.743   7.256  0.0813  0.2052 -0.2727
  766POPS   C3A 8647   4.412   8.616   7.614  0.0772 -0.1039 -0.3933
  766POPS   C4A 8648   4.382   8.707   7.980 -0.0597 -0.1594 -0.0929
  766POPS   C1B 8649   4.549   8.302   6.701 -0.0198 -0.0067  0.1770
  766POPS   C2B 8650   4.753   8.375   7.054  0.2822  0.3341 -0.1026
  766POPS   C3B 8651   4.865   8.338   7.433  0.1676 -0.1477  0.0739
  766POPS   C4B 8652   4.950   8.065   7.785 -0.1486  0.2547 -0.1173
  767POPS   CNO 8653   9.522  12.532   5.623 -0.0570  0.0293  0.0362
  767POPS   PO4 8654   9.605  12.260   5.919  0.1708  0.2074  0.0144
  767POPS   GL1 8655   9.875  12.333   6.237  0.0855 -0.0628 -0.1132
  767POPS   GL2 8656  10.129  12.532   6.232  0.1043  0.1581  0.0028
  767POPS   C1A 8657   9.830  12.203   6.682 -0.1758 -0.2779 -0.1041
  767POPS   D2A 8658   9.714  12.329   7.088 -0.1767  0.0081 -0.0758
  767POPS   C3A 8659   9.860  12.267   7.542 -0.2081  0.0989  0.1873
  767POPS   C4A 8660   9.983  12.258   7.859 -0.0497 -0.2126  0.1725
  767POPS   C1B 8661  10.108  12.675   6.653  0.0997 -0.1463  0.2403
  767POPS   C2B 8662  10.023  12.947   6.956 -0.0095  0.0788 -0.2988
  767POPS   C3B 8663   9.968  13.109   7.319 -0.3032  0.0154  0.2623
  767POPS   C4B 8664  10.141  13.291   7.744 -0.1809 -0.0456 -0.2461
  768POPS   CNO 8665   2.693   1.683   6.725 -0.0498  0.1735  0.1405
  768POPS   PO4 8666   2.524   2.098   6.626 -0.3421 -0.5432  0.0404
  768POPS   GL1 8667   2.463   1.999   7.063 -0.2766  0.3556  0.2820
  768POPS   GL2 8668   2.756   2.050   7.266 -0.1958 -0.2150 -0.0626
  768POPS   C1A 8669   2.381   1.717   7.426  0.0794  0.3126  0.0704
  768POPS   D2A 8670   2.471   1.559   7.897  0.0283 -0.2926  0.0421
  768POPS   C3A 8671   2.147   1.384   7.955  0.2780  0.0041 -0.0452
  768POPS   C4A 8672   1.887   0.992   8.080 -0.1983 -0.3709  0.2653
  768POPS   C1B 8673   2.726   1.938   7.692 -0.0464 -0.0468  0.1164
  768POPS   C2B 8674   2.754   1.988   8.068 -0.0317  0.0963 -0.1541
  768POPS   C3B 8675   2.573   1.773   8.340 -0.1053  0.2235  0.2632
  768POPS   C4B 8676   2.288   1.447   8.480 -0.2154  0.3225 -0.0468
  769POPS   CNO 8677   6.064  16.712   5.556  0.1500 -0.2028 -0.2014
  769POPS   PO4 8678   5.732  16.941   5.710 -0.1812 -0.0429 -0.1880
  769POPS   GL1 8679   5.583  17.169   6.090 -0.0600  0.0081 -0.1329
  769POPS   GL2 8680   5.680  17.486   6.222  0.1617  0.0367  0.1947
  769POPS   C1A 8681   5.515  16.794   6.368 -0.0981 -0.0298  0.2654
  769POPS   D2A 8682   5.540  16.684   6.795 -0.1461 -0.2594  0.6745
  769POPS   C3A 8683   5.635  16.702   7.266  0.0134 -0.2062  0.1585
  769POPS   C4A 8684   5.643  16.693   7.673  0.0762  0.1466 -0.0008
  769POPS   C1B 8685   5.501  17.184   6.622 -0.0832 -0.0625  0.4024
  769POPS   C2B 8686   5.343  17.172   7.042 -0.1123 -0.0048 -0.3643
  769POPS   C3B 8687   5.274  17.017   7.441 -0.1824  0.0066 -0.2257
  769POPS   C4B 8688   5.102  16.856   7.905  0.0341 -0.0552  0.2682
  770POPS   CNO 8689   0.317   1.247   6.119 -0.3124  0.2824 -0.4883
  770POPS   PO4 8690   0.104   0.911   6.423  0.1123 -0.0060 -0.1530
  770POPS   GL1 8691   0.072   0.879   6.773 -0.1295  0.0325 -0.1844
  770POPS   GL2 8692  -0.253   0.736   6.782 -0.4122 -0.1648 -0.1466
  770POPS   C1A 8693   0.029   1.041   7.190  0.0527 -0.1639  0.0348
  770POPS   D2A 8694  -0.159   1.301   7.564 -0.0296 -0.0980 -0.0031
  770POPS   C3A 8695   0.048   1.274   8.075  0.0430  0.1519  0.0959
  770POPS   C4A 8696   0.287   1.175   8.378  0.1091 -0.1064 -0.0129
  770POPS   C1B 8697  -0.120   0.461   7.172 -0.1084 -0.2998 -0.2228
  770POPS   C2B 8698  -0.060   0.430   7.621  0.1016  0.2083 -0.2132
  770POPS   C3B 8699  -0.082   0.418   7.990  0.2209  0.1464 -0.1162
  770POPS   C4B 8700  -0.211   0.347   8.387  0.0462  0.3832 -0.0379
  771POPS   CNO 8701   8.709  16.052   5.542  0.2723  0.1787  0.0387
  771POPS   PO4 8702   8.911  16.275   5.864  0.0219 -0.1882 -0.1089
  771POPS   GL1 8703   8.718  16.439   6.283 -0.0837  0.0386  0.2142
  771POPS   GL2 8704   8.929  16.188   6.435 -0.1811 -0.1279 -0.1307
  771POPS   C1A 8705   8.715  16.469   6.813 -0.0133  0.1608 -0.2772
  771POPS   D2A 8706   9.038  16.271   7.029 -0.0075  0.0369 -0.2920
  771POPS   C3A 8707   9.175  15.833   7.169 -0.0749  0.0141 -0.1019
  771POPS   C4A 8708   9.283  15.574   7.577  0.0502  0.0585 -0.1174
  771POPS   C1B 8709   9.351  16.058   6.653  0.1016  0.2953  0.0238
  771POPS   C2B 8710   9.553  16.152   7.022 -0.1155  0.2257  0.2724
  771POPS   C3B 8711   9.660  16.123   7.387 -0.4667 -0.1905 -0.2336
  771POPS   C4B 8712   9.603  15.954   7.700  0.0967  0.0693  0.0736
  772POPS   CNO 8713   7.616   2.237   5.798 -0.0924  0.0120  0.0256
  772POPS   PO4 8714   8.089   2.017   5.971 -0.0028 -0.2714 -0.3253
  772POPS   GL1 8715   8.014   1.863   6.399 -0.0671 -0.3120  0.0722
  772POPS   GL2 8716   7.917   1.631   6.601 -0.3477  0.0183  0.1088
  772POPS   C1A 8717   8.039   2.033   6.874  0.0702  0.2341 -0.1727
  772POPS   D2A 8718   8.241   1.825   7.253  0.1323 -0.1917 -0.0295
  772POPS   C3A 8719   8.304   1.834   7.678  0.2066  0.1684  0.2197
  772POPS   C4A 8720   8.422   1.721   8.117  0.1179 -0.1717 -0.0379
  772POPS   C1B 8721   8.006   1.421   7.020  0.0426 -0.1583 -0.1220
  772POPS   C2B 8722   8.018   1.296   7.486 -0.1883  0.0837 -0.1767
  772POPS   C3B 8723   7.989   1.430   8.006  0.4959 -0.0367  0.1504
  772POPS   C4B 8724   7.614   1.534   8.394  0.0109 -0.0108 -0.4504
  773POPS   CNO 8725  14.326   4.024   5.899  0.1492  0.1475 -0.2019
  773POPS   PO4 8726  14.072   4.064   6.341 -0.1275 -0.1691 -0.1404
  773POPS   GL1 8727  13.990   4.119   6.816  0.2355  0.1477  0.0254
  773POPS   GL2 8728  13.747   3.794   6.804  0.3472  0.0311  0.0361
  773POPS   C1A 8729  13.765   4.101   7.185  0.3929 -0.0018  0.0897
  773POPS   D2A 8730  13.596   4.240   7.574 -0.1373 -0.4965  0.0243
  773POPS   C3A 8731  13.845   4.437   7.869  0.0400  0.2060 -0.1247
  773POPS   C4A 8732  14.195   4.502   8.146 -0.0671 -0.1224  0.3519
  773POPS   C1B 8733  13.734   3.575   7.178  0.0776 -0.1892  0.0643
  773POPS   C2B 8734  13.761   3.740   7.604  0.0814  0.0062  0.0433
  773POPS   C3B 8735  13.544   3.908   7.871  0.0263 -0.2574 -0.2942
  773POPS   C4B 8736  13.154   3.897   8.144 -0.0782  0.0058  0.1249
  774POPS   CNO 8737   9.289   7.303   6.024  0.1672  0.4118 -0.3863
  774POPS   PO4 8738   9.178   7.417   6.449 -0.3618 -0.0852  0.2742
  774POPS   GL1 8739   9.156   7.072   6.706 -0.3432  0.1227  0.1631
  774POPS   GL2 8740   9.281   6.761   6.714 -0.0835  0.0278 -0.3747
  774POPS   C1A 8741   8.921   6.929   7.044  0.2600 -0.0923  0.1906
  774POPS   D2A 8742   8.593   6.923   7.416  0.2678 -0.0032 -0.2873
  774POPS   C3A 8743   8.687   6.703   7.802 -0.0820 -0.1065 -0.0489
  774POPS   C4A 8744   8.532   6.593   8.131  0.0947 -0.6142  0.2510
  774POPS   C1B 8745   9.261   6.526   7.089  0.1763  0.2087  0.1012
  774POPS   C2B 8746   9.378   6.427   7.458  0.4347 -0.0561  0.1072
  774POPS   C3B 8747   9.157   6.594   7.749 -0.1780  0.3984 -0.0818
  774POPS   C4B 8748   9.072   6.736   8.079  0.0946  0.1089 -0.3256
  775POPS   CNO 8749  10.534   3.354   6.355 -0.0782 -0.1165 -0.0111
  775POPS   PO4 8750  10.094   3.433   6.489  0.1570 -0.0856  0.2169
  775POPS   GL1 8751  10.156   3.009   6.718  0.2019  0.4009 -0.1698
  775POPS   GL2 8752  10.365   2.795   6.640  0.1312 -0.1224 -0.1565
  775POPS   C1A 8753  10.277   2.901   7.133 -0.3205 -0.0396  0.0163
  775POPS   D2A 8754  10.507   3.158   7.384 -0.0421  0.1189  0.1193
  775POPS   C3A 8755  10.736   3.050   7.741  0.0061 -0.1642  0.2710
  775POPS   C4A 8756  10.866   2.680   7.900  0.0593 -0.0747  0.0124
  775POPS   C1B 8757  10.660   2.555   6.973 -0.2060  0.0578  0.0923
  775POPS   C2B 8758  10.639   2.672   7.456  0.2135  0.1619 -0.0124
  775POPS   C3B 8759  10.319   2.753   7.840  0.1825 -0.1642 -0.0793
  775POPS   C4B 8760  10.219   2.779   8.221  0.0968 -0.1057 -0.0083
  776POPS   CNO 8761   1.421  11.048   5.244 -0.3200 -0.5567 -0.3242
  776POPS   PO4 8762   1.098  11.032   5.548 -0.2503 -0.0133 -0.2169
  776POPS   GL1 8763   1.050  11.131   5.899  0.0788 -0.0377 -0.0770
  776POPS   GL2 8764   0.744  10.902   6.038 -0.4136 -0.0283  0.3569
  776POPS   C1A 8765   1.144  11.088   6.347 -0.0133 -0.1166  0.1500
  776POPS   D2A 8766   1.069  11.284   6.736  0.0804  0.2058 -0.2086
  776POPS   C3A 8767   1.361  11.266   7.148 -0.0986 -0.3007  0.2643
  776POPS   C4A 8768   1.234  11.413   7.541 -0.1804 -0.2539  0.2241
  776POPS   C1B 8769   0.650  11.055   6.457 -0.1546  0.1705 -0.1090
  776POPS   C2B 8770   0.560  10.880   6.849 -0.0317  0.0016  0.0905
  776POPS   C3B 8771   0.499  10.967   7.267  0.1535 -0.1388  0.3404
  776POPS   C4B 8772   0.498  10.942   7.689 -0.2522 -0.2675  0.0065
  777POPS   CNO 8773   9.556  10.554   5.844 -0.0803 -0.0966  0.0060
  777POPS   PO4 8774   9.520  10.955   6.028 -0.2663  0.0025  0.2612
  777POPS   GL1 8775   9.200  11.169   6.291  0.1703 -0.1270 -0.1131
  777POPS   GL2 8776   8.829  11.257   6.306 -0.3737 -0.0662 -0.2140
  777POPS   C1A 8777   9.205  11.627   6.461  0.0157 -0.1898 -0.3232
  777POPS   D2A 8778   8.895  11.879   6.623 -0.2943  0.3491 -0.1639
  777POPS   C3A 8779   8.762  11.718   6.896  0.2570 -0.2223 -0.3004
  777POPS   C4A 8780   8.514  11.585   7.169 -0.4786 -0.0207  0.1404
  777POPS   C1B 8781   8.975  11.199   6.739  0.1416 -0.1026  0.1726
  777POPS   C2B 8782   8.827  11.069   7.139 -0.1505 -0.0341 -0.1400
  777POPS   C3B 8783   8.720  10.904   7.552 -0.0118 -0.1952 -0.0472
  777POPS   C4B 8784   8.436  11.037   7.930 -0.0362 -0.1569  0.1428
  778POPS   CNO 8785  14.020  12.987   6.488 -0.4828 -0.1946 -0.2360
  778POPS   PO4 8786  14.406  13.263   6.441  0.3350 -0.0208 -0.2584
  778POPS   GL1 8787  14.338  12.980   6.889  0.3134  0.1122 -0.0741
  778POPS   GL2 8788  14.348  12.656   6.901  0.0787  0.1638 -0.0227
  778POPS   C1A 8789  14.119  13.155   7.298 -0.1000  0.0602 -0.1468
  778POPS   D2A 8790  14.112  13.339   7.666  0.0636  0.0490  0.5115
  778POPS   C3A 8791  14.280  13.083   7.914 -0.1054 -0.1784 -0.3521
  778POPS   C4A 8792  14.555  13.237   8.226 -0.2554 -0.0461  0.1892
  778POPS   C1B 8793  14.420  12.757   7.291 -0.3928  0.1335 -0.2209
  778POPS   C2B 8794  14.657  12.916   7.698  0.0492 -0.1735 -0.0378
  778POPS   C3B 8795  14.764  12.739   8.083 -0.0995  0.2919  0.0627
  778POPS   C4B 8796  15.008  12.581   8.394  0.0836  0.1119 -0.2797
  779POPS   CNO 8797  15.506   9.099   6.542  0.0546  0.3555 -0.0686
  779POPS   PO4 8798  15.156   9.313   6.381  0.2120  0.3958 -0.5248
  779POPS   GL1 8799  15.042   9.388   6.774 -0.2187  0.1766  0.2260
  779POPS   GL2 8800  15.081   9.192   7.057 -0.2085 -0.3327  0.0574
  779POPS   C1A 8801  14.859   9.572   7.189 -0.1370  0.0135  0.0047
  779POPS   D2A 8802  14.763   9.786   7.592  0.1779  0.0054 -0.1532
  779POPS   C3A 8803  14.496   9.586   7.851  0.0356 -0.1631 -0.0209
  779POPS   C4A 8804  14.210   9.455   8.118 -0.0014 -0.0242 -0.2279
  779POPS   C1B 8805  15.081   8.850   7.404  0.0765 -0.0681 -0.3805
  779POPS   C2B 8806  14.959   8.847   7.835  0.1138  0.1531  0.1654
  779POPS   C3B 8807  14.792   8.587   8.092  0.2551  0.3031 -0.1231
  779POPS   C4B 8808  14.765   8.295   8.395 -0.1972  0.1051 -0.2839
  780POPS   CNO 8809   6.823  12.487   5.661  0.1618 -0.0306  0.1599
  780POPS   PO4 8810   6.579  12.034   5.860 -0.0884  0.0953  0.3587
  780POPS   GL1 8811   6.538  12.296   6.205 -0.0847 -0.4156 -0.0695
  780POPS   GL2 8812   6.355  12.545   6.121 -0.1505  0.3247 -0.1666
  780POPS   C1A 8813   6.870  12.153   6.496 -0.1848  0.3066  0.2019
  780POPS   D2A 8814   7.047  12.173   6.758  0.3827 -0.2585 -0.1478
  780POPS   C3A 8815   7.126  12.035   7.202  0.1428 -0.1994 -0.1410
  780POPS   C4A 8816   7.446  12.136   7.547  0.0827 -0.2774  0.1274
  780POPS   C1B 8817   6.507  12.748   6.451  0.1779 -0.1986  0.3345
  780POPS   C2B 8818   6.534  12.992   6.865 -0.2056  0.2109 -0.0358
  780POPS   C3B 8819   6.230  12.886   7.238 -0.2099  0.4013 -0.0772
  780POPS   C4B 8820   5.819  13.116   7.262 -0.0174  0.0822  0.3617
  781POPS   CNO 8821   6.417   3.477   6.346  0.0796  0.1730 -0.0728
  781POPS   PO4 8822   6.040   3.629   6.283  0.0617  0.2645  0.2242
  781POPS   GL1 8823   5.936   3.463   6.669 -0.2496 -0.2273 -0.0268
  781POPS   GL2 8824   6.110   3.201   6.669  0.0082 -0.2604 -0.0365
  781POPS   C1A 8825   6.163   3.373   7.097 -0.2325 -0.4267  0.1428
  781POPS   D2A 8826   6.198   2.990   7.336  0.1730  0.0878 -0.0859
  781POPS   C3A 8827   6.418   2.997   7.777 -0.0397 -0.1252  0.1767
  781POPS   C4A 8828   6.458   3.477   8.013 -0.2314 -0.3352  0.0742
  781POPS   C1B 8829   6.103   2.785   6.839  0.3039  0.0967 -0.0372
  781POPS   C2B 8830   5.926   2.616   7.289  0.2166  0.1968 -0.2655
  781POPS   C3B 8831   5.862   2.373   7.581  0.1898  0.1258  0.2308
  781POPS   C4B 8832   5.881   2.180   8.006 -0.1553 -0.2482  0.1704
  782POPS   CNO 8833   0.643   1.303   5.727 -0.1933  0.0151  0.1516
  782POPS   PO4 8834   0.656   1.665   6.065 -0.1213 -0.2304  0.3149
  782POPS   GL1 8835   0.749   1.726   6.516 -0.0276 -0.0243  0.4081
  782POPS   GL2 8836   0.868   1.377   6.655  0.1927 -0.0548  0.0888
  782POPS   C1A 8837   0.824   2.107   6.863  0.1841 -0.2354 -0.0423
  782POPS   D2A 8838   0.748   2.251   7.232 -0.0072  0.1189 -0.2100
  782POPS   C3A 8839   1.037   2.061   7.588  0.1283 -0.0629  0.0255
  782POPS   C4A 8840   1.261   2.141   7.968 -0.3350 -0.2181 -0.2323
  782POPS   C1B 8841   0.663   1.564   7.020 -0.2084  0.0277 -0.2040
  782POPS   C2B 8842   0.603   1.775   7.400  0.1749  0.2269 -0.1072
  782POPS   C3B 8843   0.560   2.117   7.740  0.0358 -0.2800 -0.3391
  782POPS   C4B 8844   0.467   2.332   8.192 -0.0661 -0.0541  0.1250
  783POPS   CNO 8845   6.941   6.418   6.005  0.2536  0.1964  0.2139
  783POPS   PO4 8846   7.171   6.162   6.158  0.1289  0.1779 -0.2698
  783POPS   GL1 8847   7.213   6.254   6.606  0.2213  0.0538  0.0688
  783POPS   GL2 8848   7.427   6.075   6.877 -0.0440 -0.0056 -0.2470
  783POPS   C1A 8849   7.074   6.599   6.910  0.2235  0.1654 -0.2549
  783POPS   D2A 8850   6.612   6.753   7.078  0.2603 -0.0923 -0.0220
  783POPS   C3A 8851   6.483   6.914   6.767  0.1010  0.0295 -0.1297
  783POPS   C4A 8852   6.095   6.938   6.544  0.0677  0.0149 -0.1519
  783POPS   C1B 8853   7.148   6.127   7.290  0.1713  0.0931 -0.1786
  783POPS   C2B 8854   6.915   6.031   7.661  0.0297  0.1444 -0.3655
  783POPS   C3B 8855   6.698   6.362   8.045 -0.1496 -0.0287 -0.2108
  783POPS   C4B 8856   6.299   6.463   8.307  0.2777  0.0741  0.0866
  784POPS   CNO 8857   9.566  10.011   5.734  0.1567 -0.1642  0.0333
  784POPS   PO4 8858   9.864  10.024   6.148 -0.1195 -0.1465  0.0565
  784POPS   GL1 8859  10.061  10.220   6.508  0.1097 -0.0205 -0.3365
  784POPS   GL2 8860   9.804  10.283   6.740 -0.1994  0.2644  0.0390
  784POPS   C1A 8861  10.207  10.098   6.954  0.2030  0.1113  0.0396
  784POPS   D2A 8862  10.156  10.067   7.354  0.1366  0.0576 -0.0188
  784POPS   C3A 8863  10.333   9.703   7.624  0.1913  0.5285 -0.0918
  784POPS   C4A 8864  10.605   9.353   7.733 -0.0902  0.0299  0.1710
  784POPS   C1B 8865   9.720  10.163   7.143  0.1766  0.0595  0.0798
  784POPS   C2B 8866   9.513  10.079   7.564  0.3135 -0.1489 -0.2168
  784POPS   C3B 8867   9.490  10.206   8.010 -0.1070 -0.0027 -0.2901
  784POPS   C4B 8868   9.713  10.145   8.397 -0.1884 -0.2532 -0.3680
  785POPS   CNO 8869   0.098  16.226   6.384 -0.1527 -0.1809 -0.0020
  785POPS   PO4 8870   0.375  16.344   6.153 -0.1570 -0.2047  0.1700
  785POPS   GL1 8871   0.590  16.275   6.561  0.1587  0.0183  0.1121
  785POPS   GL2 8872   0.718  16.502   6.754 -0.0476 -0.4588 -0.1010
  785POPS   C1A 8873   0.329  16.136   6.812  0.1528 -0.1044  0.0311
  785POPS   D2A 8874   0.400  15.908   7.199  0.3646 -0.0559  0.0415
  785POPS   C3A 8875   0.212  16.143   7.500 -0.1226 -0.0818 -0.1546
  785POPS   C4A 8876  -0.043  16.512   7.506 -0.0623  0.1021 -0.0102
  785POPS   C1B 8877   0.795  16.292   7.049 -0.4362  0.0651  0.0026
  785POPS   C2B 8878   0.722  16.299   7.387 -0.2657  0.0539 -0.1066
  785POPS   C3B 8879   0.430  16.579   7.665 -0.0810  0.1029 -0.1997
  785POPS   C4B 8880   0.465  16.996   7.663 -0.2217 -0.1105  0.1880
  786POPS   CNO 8881  18.100   7.770   6.263 -0.0276 -0.1346  0.1546
  786POPS   PO4 8882  18.472   8.036   6.267 -0.0690  0.2807  0.1455
  786POPS   GL1 8883  18.311   7.712   6.753  0.1444 -0.3563  0.2490
  786POPS   GL2 8884  18.016   7.833   6.939  0.0751 -0.1615 -0.0200
  786POPS   C1A 8885  18.303   7.456   6.985 -0.0724  0.2300 -0.1369
  786POPS   D2A 8886  18.454   7.106   7.184 -0.1126 -0.3524  0.2044
  786POPS   C3A 8887  18.547   7.078   7.638 -0.0709 -0.1935  0.1179
  786POPS   C4A 8888  18.862   6.840   7.848  0.3132  0.0221 -0.0617
  786POPS   C1B 8889  18.123   7.798   7.323 -0.2242  0.1501 -0.0118
  786POPS   C2B 8890  18.217   7.890   7.884  0.1541  0.2957  0.2494
  786POPS   C3B 8891  18.088   7.961   8.257 -0.1160  0.0722  0.3851
  786POPS   C4B 8892  17.743   8.025   8.451 -0.2931 -0.2986 -0.0598
  787POPS   CNO 8893  17.006   1.443   5.783  0.2144  0.0895 -0.1564
  787POPS   PO4 8894  17.320   1.360   6.231  0.0365 -0.0768  0.1706
  787POPS   GL1 8895  17.495   1.086   6.587 -0.1449 -0.0566  0.0471
  787POPS   GL2 8896  17.685   0.880   6.574  0.0398  0.2705 -0.0528
  787POPS   C1A 8897  17.407   0.874   6.955 -0.5548  0.4225  0.0580
  787POPS   D2A 8898  17.556   0.817   7.358  0.0070  0.5860 -0.2970
  787POPS   C3A 8899  17.401   0.886   7.703  0.1683 -0.0777 -0.1653
  787POPS   C4A 8900  17.672   1.007   8.083  0.3930 -0.1137 -0.4019
  787POPS   C1B 8901  17.802   0.604   6.878  0.0737 -0.0822  0.1212
  787POPS   C2B 8902  17.844   0.371   7.322 -0.0851  0.0973  0.0869
  787POPS   C3B 8903  17.696   0.301   7.712 -0.1775 -0.1657 -0.1254
  787POPS   C4B 8904  17.946   0.512   8.036  0.2068  0.0336  0.0834
  788POPS   CNO 8905  12.382   6.832   5.814 -0.0064  0.0882  0.4696
  788POPS   PO4 8906  12.387   6.855   6.377  0.0919 -0.1703  0.0925
  788POPS   GL1 8907  12.390   7.135   6.671  0.0172 -0.0219 -0.1373
  788POPS   GL2 8908  12.482   7.386   6.664 -0.2423  0.0726 -0.3326
  788POPS   C1A 8909  12.584   7.226   7.150  0.0017 -0.2379  0.0072
  788POPS   D2A 8910  12.778   7.424   7.470 -0.2957 -0.0163 -0.2726
  788POPS   C3A 8911  12.596   7.297   7.857 -0.0440  0.2073 -0.1390
  788POPS   C4A 8912  12.550   7.037   8.250  0.1162 -0.0650 -0.3114
  788POPS   C1B 8913  12.639   7.683   6.773  0.0080 -0.1913 -0.3352
  788POPS   C2B 8914  12.744   7.948   7.139 -0.0902 -0.1358  0.1241
  788POPS   C3B 8915  12.981   8.056   7.650  0.1025  0.1116  0.2718
  788POPS   C4B 8916  13.007   8.452   7.859 -0.1482 -0.0293 -0.0431
  789POPS   CNO 8917  16.281   2.351   5.800  0.1673 -0.0505  0.1403
  789POPS   PO4 8918  16.547   2.158   6.130  0.0253 -0.2244 -0.2506
  789POPS   GL1 8919  16.866   2.163   6.524 -0.1552 -0.0581  0.1831
  789POPS   GL2 8920  17.004   2.512   6.481 -0.2491 -0.1170  0.1479
  789POPS   C1A 8921  16.965   2.226   6.980  0.0217 -0.4013 -0.1055
  789POPS   D2A 8922  16.821   2.110   7.348 -0.1088 -0.0912 -0.0415
  789POPS   C3A 8923  16.754   2.406   7.702  0.2986 -0.0281  0.0333
  789POPS   C4A 8924  16.653   2.633   8.011  0.0078  0.1669  0.1569
  789POPS   C1B 8925  17.198   2.663   6.906 -0.1016  0.0183  0.2436
  789POPS   C2B 8926  17.158   2.577   7.317  0.1438  0.0424  0.1562
  789POPS   C3B 8927  17.276   2.345   7.637  0.1416 -0.1661  0.3262
  789POPS   C4B 8928  17.506   2.082   7.859  0.0606  0.5422 -0.0118
  790POPS   CNO 8929   1.533  18.115   5.747  0.0699  0.2437  0.2378
  790POPS   PO4 8930   1.234  17.737   5.937  0.1068 -0.1631  0.0843
  790POPS   GL1 8931   1.262  17.711   6.459 -0.0320 -0.1518  0.1594
  790POPS   GL2 8932   1.086  17.895   6.517  0.0517  0.2268  0.1526
  790POPS   C1A 8933   1.160  17.575   6.888 -0.0673  0.0263  0.2371
  790POPS   D2A 8934   1.215  17.582   7.413  0.3639 -0.1187 -0.2771
  790POPS   C3A 8935   1.027  17.415   7.741  0.1644  0.1743 -0.1875
  790POPS   C4A 8936   0.920  17.042   7.744 -0.4924 -0.0476  0.0578
  790POPS   C1B 8937   1.382  18.001   6.878 -0.0596  0.0136  0.0609
  790POPS   C2B 8938   1.449  18.088   7.305 -0.1042 -0.2541  0.0137
  790POPS   C3B 8939   1.591  18.033   7.636  0.1842  0.0429 -0.3449
  790POPS   C4B 8940   1.785  17.893   7.956  0.1423  0.0225  0.0907
  791POPS   CNO 8941  11.041   1.345   6.260 -0.5522 -0.0894  0.3823
  791POPS   PO4 8942  11.275   1.017   6.163  0.2573 -0.2646 -0.0951
  791POPS   GL1 8943  11.125   0.820   6.528  0.1549 -0.1892  0.0393
  791POPS   GL2 8944  11.377   0.765   6.682 -0.0684 -0.0580 -0.0708
  791POPS   C1A 8945  10.821   0.652   6.769 -0.1302 -0.0556 -0.0397
  791POPS   D2A 8946  10.337   0.739   7.038 -0.1966  0.1500  0.0874
  791POPS   C3A 8947  10.181   0.654   7.562  0.0646 -0.2458 -0.1773
  791POPS   C4A 8948   9.991   0.413   7.953 -0.1679 -0.0116 -0.0118
  791POPS   C1B 8949  11.304   0.977   7.093  0.2578 -0.0147  0.1655
  791POPS   C2B 8950  11.402   1.036   7.560  0.2464  0.1486 -0.3103
  791POPS   C3B 8951  11.712   1.199   7.814  0.0388  0.2210 -0.0873
  791POPS   C4B 8952  11.874   1.604   7.929 -0.0079 -0.1211  0.0662
  792POPS   CNO 8953   3.797  16.729   5.931 -0.2097 -0.1673 -0.0038
  792POPS   PO4 8954   3.805  16.799   6.330  0.2477  0.1211  0.0608
  792POPS   GL1 8955   4.100  16.706   6.659  0.0137 -0.1608  0.0129
  792POPS   GL2 8956   4.487  16.731   6.625  0.0264  0.0457 -0.0283
  792POPS   C1A 8957   4.155  16.498   7.133  0.2163  0.1959 -0.0135
  792POPS   D2A 8958   4.141  16.366   7.473  0.1990 -0.2312  0.0777
  792POPS   C3A 8959   3.907  15.995   7.593  0.1565 -0.2343 -0.4240
  792POPS   C4A 8960   3.646  15.578   7.702 -0.0798  0.1850 -0.0350
  792POPS   C1B 8961   4.611  16.729   7.059  0.1630  0.0815 -0.0420
  792POPS   C2B 8962   4.698  16.633   7.467  0.0098 -0.0504 -0.1047
  792POPS   C3B 8963   4.546  16.415   7.806 -0.0638  0.0231  0.0156
  792POPS   C4B 8964   4.251  16.137   7.936  0.0215  0.0496  0.1823
  793POPS   CNO 8965  15.102  17.199   5.800  0.1218  0.4055  0.3545
  793POPS   PO4 8966  14.684  17.203   6.195 -0.0371  0.4113  0.2475
  793POPS   GL1 8967  14.687  17.293   6.619  0.0299  0.0967 -0.0154
  793POPS   GL2 8968  14.709  17.689   6.724 -0.0273  0.0266  0.0460
  793POPS   C1A 8969  14.507  17.376   7.038 -0.0807  0.0246 -0.0305
  793POPS   D2A 8970  14.359  17.541   7.402  0.0279  0.1047  0.0306
  793POPS   C3A 8971  14.349  17.301   7.777  0.2122  0.0208 -0.2620
  793POPS   C4A 8972  14.108  17.272   8.180 -0.0288  0.0831 -0.0946
  793POPS   C1B 8973  14.947  17.560   7.012 -0.3194 -0.0049 -0.1302
  793POPS   C2B 8974  14.828  17.661   7.470  0.0439 -0.1251  0.0142
  793POPS   C3B 8975  14.636  17.718   7.865  0.0366 -0.1159 -0.2543
  793POPS   C4B 8976  14.590  17.635   8.339  0.0867  0.0951  0.0794
  794POPS   CNO 8977  10.563  11.035   6.226 -0.0203 -0.3046  0.0289
  794POPS   PO4 8978  10.451  10.672   6.423 -0.0798  0.1379 -0.1307
  794POPS   GL1 8979  10.193  10.611   6.782 -0.1150  0.0671  0.2765
  794POPS   GL2 8980   9.909  10.803   6.672  0.1303  0.1409  0.5361
  794POPS   C1A 8981  10.081  10.536   7.158  0.2080  0.1640 -0.1576
  794POPS   D2A 8982   9.821  10.437   7.602  0.0369 -0.0461  0.0845
  794POPS   C3A 8983   9.700  10.705   7.843  0.0290  0.0633 -0.2456
  794POPS   C4A 8984   9.768  10.667   8.289 -0.2191  0.0298  0.0845
  794POPS   C1B 8985   9.786  10.915   7.131 -0.3009 -0.2283  0.2528
  794POPS   C2B 8986   9.594  11.002   7.466  0.0643 -0.0940 -0.0263
  794POPS   C3B 8987   9.166  11.121   7.570 -0.3774  0.1926  0.1925
  794POPS   C4B 8988   8.995  11.127   7.936  0.0935  0.1715 -0.0635
  795POPS   CNO 8989   4.858  15.863   5.189 -0.1006  0.1751 -0.0485
  795POPS   PO4 8990   4.938  15.880   5.679 -0.3514 -0.2329  0.0303
  795POPS   GL1 8991   4.944  15.858   6.200  0.0537 -0.1567 -0.0792
  795POPS   GL2 8992   4.975  16.096   6.388  0.0999 -0.1161 -0.0109
  795POPS   C1A 8993   4.892  15.675   6.594  0.2217  0.0079  0.0254
  795POPS   D2A 8994   4.921  15.266   6.903 -0.2604 -0.1308  0.1844
  795POPS   C3A 8995   4.686  15.010   7.015  0.2612  0.0763 -0.2107
  795POPS   C4A 8996   4.772  14.655   7.287  0.1213  0.0736  0.4340
  795POPS   C1B 8997   5.326  16.133   6.626  0.1723  0.0974 -0.1383
  795POPS   C2B 8998   5.499  16.252   7.095  0.1093 -0.1126  0.1794
  795POPS   C3B 8999   5.838  16.197   7.353 -0.0020  0.0067  0.2269
  795POPS   C4B 9000   5.936  15.945   7.702  0.0001 -0.1676  0.3133
  796POPS   CNO 9001   7.021   8.802   5.800 -0.1497  0.0079  0.2092
  796POPS   PO4 9002   7.074   8.586   6.183 -0.2435  0.1065 -0.1488
  796POPS   GL1 9003   6.729   8.703   6.504  0.1431 -0.2172  0.0356
  796POPS   GL2 9004   7.052   8.633   6.782  0.1822  0.3575 -0.1312
  796POPS   C1A 9005   6.653   9.026   6.838  0.0092 -0.1422  0.0236
  796POPS   D2A 9006   6.581   9.207   7.166 -0.1185  0.0782  0.0676
  796POPS   C3A 9007   6.836   9.277   7.500  0.1439  0.0368 -0.0360
  796POPS   C4A 9008   6.758   9.475   7.921  0.1688 -0.1803  0.0415
  796POPS   C1B 9009   7.050   9.044   7.148 -0.2607 -0.5153  0.2075
  796POPS   C2B 9010   7.277   9.087   7.503  0.2189 -0.0203  0.2646
  796POPS   C3B 9011   7.050   9.017   7.870  0.0103  0.1112 -0.0516
  796POPS   C4B 9012   6.810   8.714   8.176 -0.0341  0.1836  0.0615
  797POPS   CNO 9013   0.800  13.406   5.748 -0.1288 -0.0267  0.0927
  797POPS   PO4 9014   1.050  13.256   6.154  0.3602 -0.2512  0.1989
  797POPS   GL1 9015   1.190  12.951   6.521 -0.0176 -0.1250  0.0465
  797POPS   GL2 9016   1.349  13.146   6.544  0.0982 -0.2030  0.2781
  797POPS   C1A 9017   1.276  12.827   6.908  0.3217  0.0626  0.1245
  797POPS   D2A 9018   1.277  12.698   7.335  0.2475 -0.1268  0.1869
  797POPS   C3A 9019   1.699  12.623   7.493  0.0844  0.0263  0.0318
  797POPS   C4A 9020   2.122  12.771   7.497  0.2136 -0.1255  0.3278
  797POPS   C1B 9021   1.054  13.381   6.766 -0.0019  0.2213 -0.1801
  797POPS   C2B 9022   1.019  13.358   7.133 -0.0264  0.3593 -0.1975
  797POPS   C3B 9023   1.038  13.205   7.529  0.2893  0.0668  0.1753
  797POPS   C4B 9024   0.826  13.288   7.899  0.1528 -0.0678  0.1330
  798POPS   CNO 9025   2.710   9.873   6.215 -0.1580  0.1014  0.3163
  798POPS   PO4 9026   3.040  10.134   6.207 -0.0168  0.0522  0.1235
  798POPS   GL1 9027   3.271  10.351   6.410 -0.3623 -0.0147 -0.1243
  798POPS   GL2 9028   3.071  10.392   6.601  0.0725  0.0670  0.1659
  798POPS   C1A 9029   3.431  10.507   6.894  0.1053  0.2101  0.0180
  798POPS   D2A 9030   3.290  10.782   7.267  0.0841 -0.0527 -0.1788
  798POPS   C3A 9031   3.511  10.661   7.527  0.3592 -0.0703 -0.0370
  798POPS   C4A 9032   3.671  10.475   7.876 -0.0358  0.1053 -0.0543
  798POPS   C1B 9033   2.897  10.667   6.999  0.0535  0.0926  0.0731
  798POPS   C2B 9034   2.842  11.037   7.391 -0.0475 -0.3323  0.0776
  798POPS   C3B 9035   3.024  11.053   7.802  0.1847  0.2648 -0.2359
  798POPS   C4B 9036   2.580  11.183   7.982 -0.0488  0.0285 -0.1953
  799POPS   CNO 9037   9.299   5.071   6.135 -0.3288 -0.0827 -0.4210
  799POPS   PO4 9038   9.518   5.011   6.512  0.0591 -0.0269 -0.2143
  799POPS   GL1 9039   9.477   5.228   6.824  0.2218 -0.1875 -0.2690
  799POPS   GL2 9040   9.679   5.152   7.096 -0.0450 -0.1091  0.1113
  799POPS   C1A 9041   9.193   5.429   7.124 -0.0439 -0.0978 -0.1291
  799POPS   D2A 9042   9.056   5.278   7.480 -0.0974 -0.0879 -0.0295
  799POPS   C3A 9043   9.038   5.582   7.857  0.0925 -0.0616 -0.3329
  799POPS   C4A 9044   8.962   5.721   8.209  0.2334 -0.2211 -0.1424
  799POPS   C1B 9045   9.491   4.986   7.507  0.1671 -0.1112  0.2998
  799POPS   C2B 9046   9.494   4.791   7.929 -0.1904 -0.1942 -0.1635
  799POPS   C3B 9047   9.528   4.836   8.381  0.2901 -0.3269 -0.1868
  799POPS   C4B 9048   9.581   5.034   8.699  0.0065 -0.1271 -0.1762
  800POPS   CNO 9049  12.680  16.091   6.018 -0.0850 -0.2280  0.0082
  800POPS   PO4 9050  12.820  15.977   6.476  0.1625 -0.1604 -0.1466
  800POPS   GL1 9051  12.575  15.957   6.854  0.1031  0.0247  0.0657
  800POPS   GL2 9052  12.234  15.773   6.785  0.1202 -0.2088  0.2720
  800POPS   C1A 9053  12.584  16.093   7.259  0.1442  0.0494 -0.1849
  800POPS   D2A 9054  12.716  16.258   7.605 -0.0624  0.0174  0.1140
  800POPS   C3A 9055  12.444  16.412   7.963  0.4978  0.0518  0.0654
  800POPS   C4A 9056  12.404  16.667   8.322  0.2252 -0.1684  0.1561
  800POPS   C1B 9057  12.155  15.723   7.270 -0.2829 -0.1991 -0.2891
  800POPS   C2B 9058  12.031  15.701   7.747 -0.3185 -0.2540  0.0446
  800POPS   C3B 9059  12.129  15.971   8.142 -0.3751  0.0477  0.4403
  800POPS   C4B 9060  12.232  16.216   8.444 -0.0994 -0.0384 -0.0871
  801POPS   CNO 9061   2.983   6.028   6.193  0.1377  0.1101 -0.3398
  801POPS   PO4 9062   3.113   5.631   6.046  0.5583  0.0615  0.2662
  801POPS   GL1 9063   3.254   5.582   6.467 -0.1087 -0.0445  0.0438
  801POPS   GL2 9064   3.587   5.447   6.341  0.0764 -0.2028 -0.5542
  801POPS   C1A 9065   3.336   5.400   6.922  0.1658  0.0925 -0.1761
  801POPS   D2A 9066   3.383   5.013   7.117 -0.2576 -0.1491 -0.0737
  801POPS   C3A 9067   3.241   5.070   7.591  0.3188 -0.2282 -0.0570
  801POPS   C4A 9068   3.177   5.052   8.028 -0.1179 -0.0270 -0.3871
  801POPS   C1B 9069   3.758   5.262   6.686  0.0272 -0.0830  0.0322
  801POPS   C2B 9070   3.830   5.227   7.182  0.3038  0.2349 -0.2091
  801POPS   C3B 9071   4.221   5.277   7.465  0.0857 -0.1374  0.0729
  801POPS   C4B 9072   4.320   5.559   7.740  0.0323 -0.1836 -0.0774
  802POPS   CNO 9073  15.331  13.069   6.389 -0.1798  0.0239  0.2135
  802POPS   PO4 9074  15.257  13.497   6.131  0.1290  0.0400 -0.0416
  802POPS   GL1 9075  15.161  13.515   6.556  0.1208  0.1398 -0.1801
  802POPS   GL2 9076  15.415  13.511   6.715 -0.0718 -0.0843  0.0886
  802POPS   C1A 9077  15.102  13.625   7.067 -0.0972  0.0078 -0.1756
  802POPS   D2A 9078  14.791  13.975   7.246  0.1914 -0.0692 -0.0979
  802POPS   C3A 9079  14.390  14.231   7.342  0.2261  0.0608  0.0749
  802POPS   C4A 9080  13.914  14.092   7.539 -0.4281 -0.0849 -0.2438
  802POPS   C1B 9081  15.672  13.644   6.987 -0.1260  0.0515  0.2804
  802POPS   C2B 9082  15.570  13.755   7.401  0.1068  0.0698  0.0304
  802POPS   C3B 9083  15.862  13.827   7.746  0.0297 -0.1686  0.3577
  802POPS   C4B 9084  16.028  13.960   7.975 -0.2705 -0.1996 -0.1350
  803POPS   CNO 9085   1.133   3.095   6.662 -0.0845  0.1756  0.2109
  803POPS   PO4 9086   1.397   3.397   6.508  0.0129 -0.1296 -0.2299
  803POPS   GL1 9087   1.574   3.319   6.959  0.0866  0.1563  0.2012
  803POPS   GL2 9088   1.506   3.592   7.209  0.0740  0.1832 -0.2047
  803POPS   C1A 9089   1.463   2.910   7.166  0.0480  0.1735  0.0087
  803POPS   D2A 9090   1.293   2.557   7.474 -0.0571  0.0827 -0.0243
  803POPS   C3A 9091   1.380   2.696   7.847 -0.0163 -0.0432 -0.0625
  803POPS   C4A 9092   1.549   2.732   8.101  0.1771  0.4520  0.1012
  803POPS   C1B 9093   1.375   3.653   7.558  0.0286  0.1734 -0.1128
  803POPS   C2B 9094   1.007   3.523   7.729  0.2093 -0.0825 -0.1218
  803POPS   C3B 9095   0.643   3.288   7.735  0.1670  0.0298  0.1533
  803POPS   C4B 9096   0.382   3.169   7.392 -0.1259 -0.1021 -0.0008
  804POPS   CNO 9097   4.162   5.693   5.751  0.0675 -0.0764 -0.1201
  804POPS   PO4 9098   3.964   5.646   6.068 -0.1618 -0.0974  0.1689
  804POPS   GL1 9099   3.972   5.701   6.506 -0.2741  0.4703 -0.1847
  804POPS   GL2 9100   4.300   5.578   6.498 -0.2968 -0.1132 -0.2627
  804POPS   C1A 9101   4.180   5.972   6.841  0.0672  0.1520 -0.1249
  804POPS   D2A 9102   4.303   6.155   7.143 -0.1798  0.2047 -0.1564
  804POPS   C3A 9103   4.416   6.053   7.540  0.2979  0.0875  0.1369
  804POPS   C4A 9104   4.600   6.033   7.948 -0.0081 -0.4251  0.2165
  804POPS   C1B 9105   4.162   5.478   6.892  0.0861  0.1866  0.0632
  804POPS   C2B 9106   4.017   5.697   7.210 -0.0826  0.0894 -0.2093
  804POPS   C3B 9107   3.864   5.762   7.647 -0.0999 -0.0094 -0.2145
  804POPS   C4B 9108   3.971   5.607   8.057  0.1757 -0.4427 -0.3509
  805POPS   CNO 9109   4.805   9.798   5.751 -0.0160 -0.1447  0.3709
  805POPS   PO4 9110   4.522   9.838   6.018 -0.0087  0.2673  0.2058
  805POPS   GL1 9111   4.516   9.714   6.282 -0.2185  0.1300 -0.0612
  805POPS   GL2 9112   4.374   9.371   6.361  0.1039  0.0823  0.0807
  805POPS   C1A 9113   4.396   9.832   6.799  0.1860  0.0843  0.0355
  805POPS   D2A 9114   4.569   9.728   7.158 -0.1452 -0.3261 -0.1346
  805POPS   C3A 9115   4.663   9.611   7.572 -0.2113  0.0112 -0.0495
  805POPS   C4A 9116   4.353   9.647   7.853  0.1622  0.0801 -0.1614
  805POPS   C1B 9117   4.497   9.316   6.732 -0.1347 -0.2761 -0.0203
  805POPS   C2B 9118   4.352   9.280   7.094 -0.2962 -0.1700 -0.0697
  805POPS   C3B 9119   4.427   9.151   7.469 -0.2070  0.2605 -0.0371
  805POPS   C4B 9120   4.509   9.141   7.893 -0.3379  0.0650  0.1828
  806POPS   CNO 9121  13.232   3.399   5.705 -0.2978 -0.0805  0.1884
  806POPS   PO4 9122  13.289   3.893   5.811 -0.1379 -0.1292 -0.1581
  806POPS   GL1 9123  13.270   4.076   6.159 -0.1263  0.0707 -0.0372
  806POPS   GL2 9124  13.575   4.044   6.417  0.0293 -0.2290  0.0105
  806POPS   C1A 9125  13.224   4.411   6.442 -0.1765  0.0429 -0.2779
  806POPS   D2A 9126  13.101   4.474   6.773 -0.0703 -0.1765  0.0202
  806POPS   C3A 9127  13.263   4.807   7.012 -0.1731  0.0863 -0.3236
  806POPS   C4A 9128  13.441   5.000   7.474 -0.1092 -0.1268 -0.1879
  806POPS   C1B 9129  13.598   4.386   6.746 -0.0597  0.2401  0.0017
  806POPS   C2B 9130  13.770   4.600   7.177  0.3593  0.1530 -0.2694
  806POPS   C3B 9131  13.959   4.825   7.498  0.2247 -0.1623  0.2615
  806POPS   C4B 9132  13.950   5.007   7.853 -0.2869  0.1288 -0.0541
  807POPS   CNO 9133   3.885  17.740   6.206 -0.2585  0.2314 -0.0424
  807POPS   PO4 9134   4.242  17.572   6.291  0.0570 -0.0044 -0.3111
  807POPS   GL1 9135   4.523  17.785   6.365 -0.0646 -0.0037 -0.0167
  807POPS   GL2 9136   4.426  17.675   6.781  0.0049  0.1403  0.0275
  807POPS   C1A 9137   4.915  17.829   6.620 -0.1968 -0.1855  0.0744
  807POPS   D2A 9138   5.166  17.664   6.863 -0.1141 -0.0473  0.1055
  807POPS   C3A 9139   5.200  17.728   7.269  0.0026  0.1916 -0.0681
  807POPS   C4A 9140   5.161  17.464   7.698  0.2570  0.0106 -0.0477
  807POPS   C1B 9141   4.508  17.677   7.143  0.0739  0.1924  0.1000
  807POPS   C2B 9142   4.516  17.589   7.478  0.1915  0.1859  0.1722
  807POPS   C3B 9143   4.351  17.663   7.846  0.0065  0.2906  0.1523
  807POPS   C4B 9144   3.996  17.313   7.906  0.2935 -0.0993  0.1480
  808POPS   CNO 9145   0.869   2.908   6.212 -0.0188  0.0815 -0.4980
  808POPS   PO4 9146   0.500   3.096   6.129 -0.0741 -0.0400 -0.1091
  808POPS   GL1 9147   0.479   3.224   6.611  0.1502  0.0215 -0.0151
  808POPS   GL2 9148   0.574   2.999   6.722 -0.1652 -0.0069 -0.0543
  808POPS   C1A 9149   0.174   3.501   6.674  0.1015  0.0407 -0.0621
  808POPS   D2A 9150  -0.231   3.666   6.968 -0.0066 -0.1023 -0.0844
  808POPS   C3A 9151  -0.181   3.766   7.360  0.3346  0.1087 -0.2288
  808POPS   C4A 9152   0.028   3.903   7.751 -0.0380  0.1012  0.0480
  808POPS   C1B 9153   0.728   3.201   7.059  0.2067 -0.0694 -0.1842
  808POPS   C2B 9154   1.092   3.394   7.212  0.1964  0.2143  0.0209
  808POPS   C3B 9155   1.438   3.188   7.549  0.1303  0.1592 -0.2966
  808POPS   C4B 9156   1.510   3.207   8.008  0.0058  0.3495  0.0506
  809YOPS   CNO 9157   4.490   2.796   5.971  0.0400 -0.1643 -0.3140
  809YOPS   PO4 9158   4.580   3.145   6.108  0.1056 -0.1681 -0.0126
  809YOPS   GL1 9159   4.318   3.122   6.495  0.2335 -0.1119 -0.0681
  809YOPS   GL2 9160   4.391   3.418   6.656  0.0727 -0.1297 -0.2497
  809YOPS   C1A 9161   4.113   2.983   6.982  0.1115  0.0593 -0.1729
  809YOPS   D2A 9162   4.200   3.078   7.429 -0.0348 -0.0004 -0.0527
  809YOPS   C3A 9163   4.167   3.212   7.782 -0.2246  0.1277 -0.3106
  809YOPS   C4A 9164   3.872   2.976   8.050 -0.1433 -0.3812  0.2489
  809YOPS   C1B 9165   4.512   3.183   7.001  0.1155  0.4184 -0.3521
  809YOPS   C2B 9166   4.717   3.030   7.389  0.0949 -0.1836 -0.0038
  809YOPS   D3B 9167   4.638   3.077   7.825  0.0002  0.3425 -0.0012
  809YOPS   C4B 9168   4.357   2.938   8.191 -0.0256 -0.3427 -0.1389
  810YOPS   CNO 9169  11.884   8.697   6.327  0.1740 -0.1120  0.1449
  810YOPS   PO4 9170  12.029   9.153   6.490  0.0155 -0.0272 -0.3644
  810YOPS   GL1 9171  12.149   9.156   6.936  0.1447  0.1435 -0.3159
  810YOPS   GL2 9172  12.073   8.765   6.888  0.2315 -0.3651 -0.1858
  810YOPS   C1A 9173  11.998   9.184   7.271  0.4229  0.1669 -0.3664
  810YOPS   D2A 9174  11.834   9.431   7.622 -0.0420 -0.2799  0.1395
  810YOPS   C3A 9175  11.750   9.370   8.125 -0.0869 -0.0238  0.1878
  810YOPS   C4A 9176  11.796   8.991   8.317  0.0792 -0.2463  0.4055
  810YOPS   C1B 9177  11.783   8.671   7.193  0.1641 -0.2132  0.4034
  810YOPS   C2B 9178  11.750   8.482   7.479  0.1806 -0.4481  0.0042
  810YOPS   D3B 9179  11.674   8.389   7.899 -0.1455  0.2038 -0.1122
  810YOPS   C4B 9180  11.411   8.577   8.179  0.0431 -0.3004 -0.0927
  811YOPS   CNO 9181  16.233  14.546   6.443  0.1301 -0.1275 -0.1887
  811YOPS   PO4 9182  15.974  14.208   6.383 -0.0094  0.2458 -0.2058
  811YOPS   GL1 9183  15.958  14.059   6.732 -0.1573 -0.1129 -0.1539
  811YOPS   GL2 9184  15.580  14.054   6.766 -0.0453 -0.0893 -0.1192
  811YOPS   C1A 9185  15.995  13.958   7.151 -0.0720 -0.1017 -0.3311
  811YOPS   D2A 9186  15.808  14.218   7.417 -0.6337  0.1108  0.1373
  811YOPS   C3A 9187  15.483  14.199   7.765  0.0996 -0.2469 -0.0984
  811YOPS   C4A 9188  15.155  13.944   7.537 -0.0947 -0.0055  0.1515
  811YOPS   C1B 9189  15.389  14.139   7.109 -0.1138 -0.1291  0.1418
  811YOPS   C2B 9190  15.264  14.534   7.377  0.4581  0.1278  0.2403
  811YOPS   D3B 9191  15.148  14.704   7.773 -0.5504  0.2742  0.2432
  811YOPS   C4B 9192  15.085  15.115   7.786 -0.1277 -0.3170  0.0202
  812YOPS   CNO 9193   1.987   4.117   6.593  0.0660  0.3580  0.0002
  812YOPS   PO4 9194   1.681   3.839   6.670  0.3467  0.3635 -0.3875
  812YOPS   GL1 9195   1.983   3.895   7.049  0.1793 -0.0337 -0.1993
  812YOPS   GL2 9196   2.386   3.865   6.872  0.4098  0.0654  0.0290
  812YOPS   C1A 9197   1.883   3.884   7.497 -0.0434 -0.0382  0.0289
  812YOPS   D2A 9198   1.709   3.893   7.838  0.0045  0.0349  0.0945
  812YOPS   C3A 9199   1.225   3.813   8.098 -0.2514  0.1012 -0.0354
  812YOPS   C4A 9200   1.129   3.461   8.214  0.0660 -0.0082 -0.0179
  812YOPS   C1B 9201   2.377   3.849   7.362 -0.1223 -0.0413 -0.3858
  812YOPS   C2B 9202   2.292   3.861   7.659  0.0251  0.2843  0.1652
  812YOPS   D3B 9203   1.991   4.277   7.905  0.2631 -0.0692 -0.0361
  812YOPS   C4B 9204   1.774   4.727   8.037  0.0872 -0.1959 -0.0039
  813YOPS   CNO 9205   9.362  16.711   6.023  0.1687  0.0355  0.1460
  813YOPS   PO4 9206   9.213  17.162   5.819 -0.1150  0.0907 -0.0580
  813YOPS   GL1 9207   9.080  17.225   6.235 -0.2874  0.1621 -0.1129
  813YOPS   GL2 9208   9.056  16.910   6.339  0.2618  0.0317 -0.3440
  813YOPS   C1A 9209   9.011  17.261   6.738  0.2417  0.2855 -0.1678
  813YOPS   D2A 9210   8.747  17.187   6.984 -0.0202 -0.2122  0.2173
  813YOPS   C3A 9211   8.454  17.011   7.096  0.1111  0.2503  0.1111
  813YOPS   C4A 9212   8.113  16.954   6.907 -0.0774  0.0034  0.0568
  813YOPS   C1B 9213   9.216  16.668   6.692  0.3765  0.0328  0.1716
  813YOPS   C2B 9214   9.108  16.828   7.080  0.0254 -0.1754  0.0474
  813YOPS   D3B 9215   8.860  16.903   7.392 -0.2373 -0.0410  0.1081
  813YOPS   C4B 9216   8.584  17.295   7.501  0.2521  0.3177  0.1056
  814YOPS   CNO 9217  17.417  13.046   6.043  0.0162 -0.2216 -0.2050
  814YOPS   PO4 9218  17.514  12.770   6.313 -0.1885  0.0171 -0.0919
  814YOPS   GL1 9219  17.497  12.832   6.722 -0.1444 -0.1246 -0.0378
  814YOPS   GL2 9220  17.503  13.267   6.897  0.1306 -0.2348 -0.0309
  814YOPS   C1A 9221  17.461  12.518   7.052  0.1419  0.1198 -0.0682
  814YOPS   D2A 9222  17.487  12.456   7.488  0.1543 -0.1420 -0.4432
  814YOPS   C3A 9223  17.465  12.679   7.763 -0.0486 -0.1284 -0.1768
  814YOPS   C4A 9224  17.273  12.618   8.072 -0.0673  0.1826 -0.2848
  814YOPS   C1B 9225  17.495  13.187   7.390  0.2806  0.0668  0.0187
  814YOPS   C2B 9226  17.656  13.266   7.784  0.3043  0.1292  0.3782
  814YOPS   D3B 9227  17.619  13.052   8.173  0.0517 -0.1787  0.2017
  814YOPS   C4B 9228  17.698  12.657   8.331  0.0007  0.2383 -0.0266
  815YOPS   CNO 9229  17.110   9.282   5.554 -0.0273 -0.1871 -0.1222
  815YOPS   PO4 9230  17.294   9.403   6.077  0.1755  0.0975  0.0679
  815YOPS   GL1 9231  17.354   9.407   6.523  0.0033  0.1303 -0.1265
  815YOPS   GL2 9232  17.294   9.289   6.825 -0.3384  0.2480 -0.1565
  815YOPS   C1A 9233  17.707   9.521   6.724  0.0373 -0.2203  0.0879
  815YOPS   D2A 9234  17.924   9.297   7.082 -0.1092  0.2077  0.1208
  815YOPS   C3A 9235  18.044   8.876   7.238 -0.2527  0.1242 -0.1308
  815YOPS   C4A 9236  17.924   8.546   7.042  0.0982  0.1201 -0.0623
  815YOPS   C1B 9237  17.361   9.351   7.233  0.0566 -0.1675 -0.4980
  815YOPS   C2B 9238  17.271   9.558   7.619  0.0730  0.3507 -0.1210
  815YOPS   D3B 9239  17.500   9.741   8.058  0.2370 -0.1485 -0.1075
  815YOPS   C4B 9240  17.776   9.507   8.257  0.1742  0.4014 -0.3469
  816YOPS   CNO 9241  14.810  11.117   6.238  0.0292  0.0936  0.0245
  816YOPS   PO4 9242  14.518  10.952   6.573 -0.0531 -0.4028  0.0073
  816YOPS   GL1 9243  14.723  10.870   6.996  0.2447 -0.1621 -0.1692
  816YOPS   GL2 9244  14.594  11.038   7.251  0.1628 -0.3691 -0.0474
  816YOPS   C1A 9245  14.560  10.540   7.300 -0.0503 -0.0719 -0.0750
  816YOPS   D2A 9246  14.491  10.434   7.699 -0.0004  0.0606  0.0807
  816YOPS   C3A 9247  14.133  10.232   7.907  0.1128  0.0856  0.2208
  816YOPS   C4A 9248  13.889   9.847   8.038 -0.0804  0.2635 -0.2040
  816YOPS   C1B 9249  14.575  10.921   7.716 -0.1774  0.0075  0.0490
  816YOPS   C2B 9250  14.666  10.687   8.054 -0.1518 -0.2343 -0.0488
  816YOPS   D3B 9251  14.779  10.570   8.479 -0.1929  0.0471 -0.1874
  816YOPS   C4B 9252  14.764  10.538   8.945  0.1277  0.3249 -0.1216
  817YOPS   CNO 9253  17.415   5.622   6.279  0.2021 -0.2493  0.3004
  817YOPS   PO4 9254  17.730   5.358   6.201 -0.3770  0.1224 -0.0403
  817YOPS   GL1 9255  17.595   5.386   6.671  0.0501 -0.0040  0.1645
  817YOPS   GL2 9256  17.566   5.742   6.776  0.2037  0.0006 -0.0362
  817YOPS   C1A 9257  17.581   4.927   6.930 -0.0487 -0.1466 -0.2282
  817YOPS   D2A 9258  17.760   4.632   7.110 -0.1222  0.0594 -0.0447
  817YOPS   C3A 9259  17.749   4.640   7.471  0.0299 -0.0915 -0.0917
  817YOPS   C4A 9260  17.778   4.227   7.730 -0.1210 -0.4249 -0.0000
  817YOPS   C1B 9261  17.182   5.751   7.215 -0.1573 -0.2696 -0.1715
  817YOPS   C2B 9262  17.245   5.829   7.666  0.3301 -0.0019  0.0185
  817YOPS   D3B 9263  17.030   5.871   8.034  0.2204  0.2106 -0.0499
  817YOPS   C4B 9264  16.802   5.725   8.292 -0.1758  0.1876  0.3097
  818YOPS   CNO 9265  16.030  16.649   6.271  0.4603  0.4441  0.2552
  818YOPS   PO4 9266  15.617  16.470   6.228  0.0665 -0.0171  0.1675
  818YOPS   GL1 9267  15.907  16.180   6.478  0.1365 -0.4062 -0.0873
  818YOPS   GL2 9268  16.130  15.973   6.399 -0.1641  0.1091 -0.0125
  818YOPS   C1A 9269  16.123  16.078   6.908  0.2432  0.2543  0.2039
  818YOPS   D2A 9270  16.342  15.793   7.232  0.1230 -0.3433  0.0892
  818YOPS   C3A 9271  16.714  15.807   7.456  0.3231 -0.1297  0.2606
  818YOPS   C4A 9272  16.538  15.923   7.931  0.1252  0.3248 -0.0016
  818YOPS   C1B 9273  16.549  15.819   6.681 -0.0561  0.0422 -0.0756
  818YOPS   C2B 9274  16.806  15.758   6.979 -0.1822 -0.2684  0.2630
  818YOPS   D3B 9275  17.090  15.468   6.844  0.3384  0.0654  0.1485
  818YOPS   C4B 9276  17.492  15.353   6.676  0.1063 -0.0707 -0.0860
  819YOPS   CNO 9277   3.067  14.159   5.537  0.1321 -0.0750  0.1867
  819YOPS   PO4 9278   3.454  14.233   5.628 -0.2307 -0.1798 -0.0860
  819YOPS   GL1 9279   3.514  14.231   6.038 -0.0230 -0.0243  0.1136
  819YOPS   GL2 9280   3.782  14.366   6.170  0.0179 -0.2765  0.0086
  819YOPS   C1A 9281   3.314  14.283   6.393  0.0093 -0.0615  0.0522
  819YOPS   D2A 9282   3.305  14.197   6.857  0.0248 -0.1380 -0.1300
  819YOPS   C3A 9283   3.502  13.999   7.180 -0.0061 -0.2430 -0.0965
  819YOPS   C4A 9284   3.777  13.710   7.154 -0.2835  0.1247 -0.2596
  819YOPS   C1B 9285   3.967  14.089   6.177  0.2975 -0.0714 -0.0545
  819YOPS   C2B 9286   4.291  13.976   6.371 -0.0550 -0.1351  0.0207
  819YOPS   D3B 9287   4.778  13.902   6.361 -0.0656 -0.1347 -0.1575
  819YOPS   C4B 9288   5.039  14.184   6.636  0.1861  0.2717  0.0005
  820YOPS   CNO 9289  13.347  10.893   6.659 -0.1345 -0.1555 -0.3290
  820YOPS   PO4 9290  13.164  10.445   6.442  0.0290  0.2170 -0.1176
  820YOPS   GL1 9291  13.113  10.392   6.878 -0.1900 -0.1087 -0.0898
  820YOPS   GL2 9292  12.962  10.095   6.835 -0.1847  0.0084 -0.2392
  820YOPS   C1A 9293  13.318  10.402   7.201  0.1559 -0.0334 -0.0332
  820YOPS   D2A 9294  13.266  10.257   7.652 -0.0184 -0.0820 -0.0858
  820YOPS   C3A 9295  13.348   9.997   8.018  0.3360  0.1015 -0.1112
  820YOPS   C4A 9296  13.128   9.568   8.165 -0.3084 -0.1809  0.3802
  820YOPS   C1B 9297  12.952  10.067   7.298  0.0520 -0.0938  0.2119
  820YOPS   C2B 9298  12.846   9.870   7.668  0.0796  0.0995  0.1402
  820YOPS   D3B 9299  12.703   9.822   8.140 -0.1974 -0.1753  0.0533
  820YOPS   C4B 9300  12.376  10.106   8.335  0.0614  0.1022 -0.0888
  821YOPS   CNO 9301   0.616  14.531   5.853  0.4484 -0.4548 -0.3230
  821YOPS   PO4 9302   0.820  14.803   5.992  0.1332 -0.1573  0.2609
  821YOPS   GL1 9303   1.051  14.527   6.232  0.0331 -0.0374  0.1176
  821YOPS   GL2 9304   1.375  14.553   6.123 -0.0322 -0.3618 -0.0809
  821YOPS   C1A 9305   1.036  14.402   6.642  0.2102  0.1265  0.2133
  821YOPS   D2A 9306   1.068  14.326   7.101  0.0634 -0.1522 -0.1154
  821YOPS   C3A 9307   1.022  14.359   7.501  0.3052  0.3482 -0.3075
  821YOPS   C4A 9308   0.651  14.322   7.754 -0.4756 -0.2737  0.2334
  821YOPS   C1B 9309   1.506  14.609   6.469  0.0152 -0.0562  0.1024
  821YOPS   C2B 9310   1.560  15.056   6.634 -0.2296  0.1384  0.1342
  821YOPS   D3B 9311   1.347  15.332   6.916  0.1126 -0.0101 -0.1896
  821YOPS   C4B 9312   0.957  15.299   6.927  0.5131  0.1422 -0.1157
  822YOPS   CNO 9313  13.073   2.380   5.660 -0.1328 -0.1731 -0.3674
  822YOPS   PO4 9314  13.362   2.352   6.117 -0.3081  0.0475  0.1133
  822YOPS   GL1 9315  13.169   2.250   6.607 -0.4244  0.4090 -0.0668
  822YOPS   GL2 9316  13.158   2.501   6.706 -0.1429 -0.2222  0.2020
  822YOPS   C1A 9317  12.963   1.972   7.030 -0.2662  0.0506  0.1744
  822YOPS   D2A 9318  13.139   2.071   7.457  0.0906  0.2309 -0.0360
  822YOPS   C3A 9319  13.099   2.100   7.911 -0.0805  0.0189  0.1011
  822YOPS   C4A 9320  12.974   2.537   8.147  0.0223  0.1802  0.0268
  822YOPS   C1B 9321  13.265   2.446   7.101 -0.0978 -0.0644 -0.3820
  822YOPS   C2B 9322  13.243   2.559   7.601  0.0243 -0.0687 -0.2045
  822YOPS   D3B 9323  13.325   2.772   7.938 -0.1318  0.1638 -0.2016
  822YOPS   C4B 9324  13.731   3.102   7.979  0.0052  0.1310  0.2579
  823YOPS   CNO 9325   3.925  10.773   6.220  0.0132 -0.0497 -0.1951
  823YOPS   PO4 9326   4.338  10.950   6.218 -0.3702 -0.1458  0.0834
  823YOPS   GL1 9327   4.379  11.005   6.690 -0.0252 -0.1798 -0.3055
  823YOPS   GL2 9328   4.351  10.731   6.719  0.0702 -0.2152  0.0711
  823YOPS   C1A 9329   4.342  10.910   7.138 -0.0827  0.0917 -0.0785
  823YOPS   D2A 9330   4.280  11.058   7.617 -0.1792 -0.1032  0.3812
  823YOPS   C3A 9331   4.002  11.001   7.987  0.0036  0.0160 -0.2740
  823YOPS   C4A 9332   3.965  11.183   8.357 -0.1105 -0.0476  0.7141
  823YOPS   C1B 9333   4.599  10.534   6.973 -0.0282 -0.2446 -0.2611
  823YOPS   C2B 9334   4.679  10.654   7.354  0.0020  0.1355  0.3479
  823YOPS   D3B 9335   5.140  10.849   7.535  0.0204  0.0570  0.1326
  823YOPS   C4B 9336   5.233  11.245   7.750 -0.0341 -0.0260  0.0859
  824YOPS   CNO 9337   3.074  18.274   5.923 -0.0103  0.1703 -0.0726
  824YOPS   PO4 9338   3.376  18.540   6.034  0.1950  0.0085  0.1572
  824YOPS   GL1 9339   3.499  18.461   6.434  0.3091  0.0166  0.0591
  824YOPS   GL2 9340   3.288  18.320   6.629 -0.0587 -0.0721 -0.3763
  824YOPS   C1A 9341   3.768  18.449   6.849 -0.0385 -0.1316 -0.0752
  824YOPS   D2A 9342   3.714  18.574   7.230 -0.1496  0.2060 -0.0203
  824YOPS   C3A 9343   3.542  18.724   7.683  0.0354  0.0235  0.0807
  824YOPS   C4A 9344   3.747  18.415   7.856 -0.3041 -0.2591  0.2773
  824YOPS   C1B 9345   3.166  18.425   7.019 -0.0072  0.2542 -0.2346
  824YOPS   C2B 9346   3.151  18.461   7.410 -0.1903 -0.2135  0.1494
  824YOPS   D3B 9347   3.062  18.630   7.785 -0.0063  0.0707  0.0948
  824YOPS   C4B 9348   3.291  18.782   8.083 -0.3166 -0.2059 -0.2877
  825YOPS   CNO 9349  17.450   2.238   5.727  0.1399 -0.1584  0.3168
  825YOPS   PO4 9350  17.541   2.375   6.160 -0.4876 -0.0155  0.1092
  825YOPS   GL1 9351  17.477   2.580   6.521  0.2598 -0.0446  0.0548
  825YOPS   GL2 9352  17.281   2.924   6.499 -0.2510  0.1504  0.1137
  825YOPS   C1A 9353  17.660   2.592   6.879 -0.2477  0.0822  0.1295
  825YOPS   D2A 9354  17.669   2.521   7.410  0.0827 -0.4895 -0.1257
  825YOPS   C3A 9355  17.594   2.592   7.950 -0.2345 -0.1898  0.2277
  825YOPS   C4A 9356  17.935   2.427   8.287  0.0120 -0.1746 -0.1072
  825YOPS   C1B 9357  17.569   3.071   6.728  0.2096  0.3208 -0.2428
  825YOPS   C2B 9358  17.566   3.053   7.135 -0.0183 -0.1271  0.0955
  825YOPS   D3B 9359  17.560   2.969   7.640  0.4829 -0.1018 -0.0954
  825YOPS   C4B 9360  17.341   3.235   7.905  0.0734 -0.1548  0.1180
  826YOPS   CNO 9361  15.907  12.410   6.225  0.0880  0.1330 -0.1900
  826YOPS   PO4 9362  15.917  12.135   6.546  0.3907 -0.2272 -0.4668
  826YOPS   GL1 9363  15.801  12.259   6.953  0.2649  0.0065  0.0361
  826YOPS   GL2 9364  15.791  12.018   7.089  0.0444  0.1305  0.0398
  826YOPS   C1A 9365  15.758  12.563   7.303 -0.1598 -0.2760 -0.0157
  826YOPS   D2A 9366  15.588  12.917   7.460 -0.1488  0.3300 -0.1801
  826YOPS   C3A 9367  15.594  12.910   7.859  0.0384 -0.0619 -0.0913
  826YOPS   C4A 9368  15.323  12.845   8.152 -0.2766  0.0147  0.1700
  826YOPS   C1B 9369  15.879  12.083   7.429  0.2221  0.1586  0.1510
  826YOPS   C2B 9370  15.845  12.419   7.793 -0.2669 -0.0285 -0.0608
  826YOPS   D3B 9371  15.879  12.511   8.184  0.0848 -0.1867 -0.2614
  826YOPS   C4B 9372  15.868  12.994   8.373 -0.2120 -0.0212 -0.0469
  827YOPS   CNO 9373  13.702   1.084   5.987  0.1359 -0.4721  0.2542
  827YOPS   PO4 9374  13.516   1.445   6.348 -0.3007  0.0095 -0.0803
  827YOPS   GL1 9375  13.466   1.819   6.600  0.1103  0.4063 -0.1777
  827YOPS   GL2 9376  13.783   1.892   6.670 -0.3738  0.2356 -0.2427
  827YOPS   C1A 9377  13.508   1.807   7.102 -0.0585  0.0148 -0.2094
  827YOPS   D2A 9378  13.746   1.753   7.443 -0.0351 -0.3762 -0.0710
  827YOPS   C3A 9379  13.948   1.555   7.834  0.2372 -0.2554  0.1834
  827YOPS   C4A 9380  13.729   1.633   8.182 -0.2752  0.0067 -0.0933
  827YOPS   C1B 9381  14.009   1.984   7.084  0.0124 -0.1346 -0.0762
  827YOPS   C2B 9382  14.095   2.163   7.548  0.1185 -0.0479  0.0776
  827YOPS   D3B 9383  14.242   2.420   7.891 -0.0185  0.3735 -0.1008
  827YOPS   C4B 9384  13.991   2.094   8.103  0.0876 -0.1518  0.1233
  828YOPS   CNO 9385  11.346  18.092   6.317 -0.2344 -0.1532  0.0947
  828YOPS   PO4 9386  11.432  17.733   6.152 -0.0378  0.1845 -0.0478
  828YOPS   GL1 9387  11.398  17.445   6.410 -0.1220  0.1402 -0.0845
  828YOPS   GL2 9388  11.294  17.084   6.415  0.0956 -0.1586  0.0430
  828YOPS   C1A 9389  11.572  17.366   6.844  0.1765 -0.0578 -0.1229
  828YOPS   D2A 9390  11.350  17.465   7.211 -0.1813  0.1125  0.0513
  828YOPS   C3A 9391  11.224  17.559   7.588  0.0368  0.1364  0.1070
  828YOPS   C4A 9392  11.342  17.839   7.908 -0.2035 -0.2830  0.4125
  828YOPS   C1B 9393  10.943  17.248   6.741 -0.0544 -0.2041  0.1858
  828YOPS   C2B 9394  10.907  17.316   7.132  0.5812 -0.1177  0.0361
  828YOPS   D3B 9395  10.865  17.168   7.567 -0.0259  0.1000 -0.0223
  828YOPS   C4B 9396  10.520  17.235   7.796 -0.0674 -0.0318  0.0108
  829YOPS   CNO 9397  18.323   3.678   6.381 -0.4046  0.0530 -0.2621
  829YOPS   PO4 9398  18.517   4.019   6.111 -0.5032 -0.1184  0.3040
  829YOPS   GL1 9399  18.704   4.095   6.450 -0.1444  0.0289  0.1878
  829YOPS   GL2 9400  18.920   4.239   6.617  0.0893 -0.0248  0.2988
  829YOPS   C1A 9401  18.655   3.998   6.896  0.0611  0.2478  0.1929
  829YOPS   D2A 9402  18.727   4.077   7.255 -0.0312  0.0178  0.0778
  829YOPS   C3A 9403  18.866   4.301   7.614  0.0110 -0.1036 -0.1250
  829YOPS   C4A 9404  18.712   4.284   8.025  0.1583 -0.0327  0.0692
  829YOPS   C1B 9405  19.089   4.220   6.950 -0.0366  0.2541 -0.2258
  829YOPS   C2B 9406  19.277   4.290   7.340  0.0738  0.0393  0.0301
  829YOPS   D3B 9407  19.398   4.534   7.674 -0.1514  0.1883  0.0208
  829YOPS   C4B 9408  19.512   4.922   7.844 -0.0991  0.3371 -0.2043
  830YOPS   CNO 9409   3.201  12.249   5.487  0.1575  0.0026 -0.1382
  830YOPS   PO4 9410   2.812  12.524   5.480 -0.2159  0.0903 -0.0792
  830YOPS   GL1 9411   2.869  12.454   5.984  0.0195 -0.0599 -0.2484
  830YOPS   GL2 9412   2.560  12.393   6.210  0.2742 -0.0284  0.0192
  830YOPS   C1A 9413   3.090  12.406   6.348 -0.0329  0.0010 -0.1053
  830YOPS   D2A 9414   3.081  12.352   6.882  0.1621  0.0231 -0.1392
  830YOPS   C3A 9415   3.051  12.248   7.283 -0.0565 -0.0277  0.0978
  830YOPS   C4A 9416   3.175  12.464   7.713  0.2220  0.2262  0.2703
  830YOPS   C1B 9417   2.612  12.380   6.681 -0.2386  0.0498 -0.1529
  830YOPS   C2B 9418   2.619  12.479   7.080 -0.0885 -0.0852 -0.1380
  830YOPS   D3B 9419   2.611  12.550   7.512  0.1058 -0.1786  0.1960
  830YOPS   C4B 9420   2.677  12.227   7.865 -0.4696  0.0786 -0.5429
  831YOPS   CNO 9421   0.264  17.586   6.094  0.0462 -0.2439 -0.0467
  831YOPS   PO4 9422   0.487  17.210   6.075 -0.0651 -0.0586 -0.0957
  831YOPS   GL1 9423   0.328  17.206   6.408  0.5250 -0.0851 -0.3844
  831YOPS   GL2 9424   0.074  17.387   6.531 -0.1199  0.1380 -0.4376
  831YOPS   C1A 9425   0.271  17.065   6.883 -0.0520 -0.0238  0.0853
  831YOPS   D2A 9426   0.065  16.986   7.198  0.2459 -0.0940  0.0904
  831YOPS   C3A 9427  -0.067  17.064   7.615 -0.2617 -0.3060  0.1693
  831YOPS   C4A 9428   0.070  16.873   7.977  0.1689  0.1442  0.0346
  831YOPS   C1B 9429  -0.001  17.472   6.929  0.0285 -0.1395 -0.3867
  831YOPS   C2B 9430   0.040  17.670   7.389 -0.1859 -0.2542 -0.0198
  831YOPS   D3B 9431   0.145  17.581   7.785  0.2767 -0.3507 -0.1308
  831YOPS   C4B 9432   0.206  18.059   8.091 -0.0480 -0.0561 -0.0221
  832YOPS   CNO 9433  16.665   4.228   5.731  0.1425 -0.0749 -0.2192
  832YOPS   PO4 9434  16.829   3.893   6.015  0.2510 -0.2313 -0.0659
  832YOPS   GL1 9435  16.926   3.995   6.469  0.1055  0.0582  0.3961
  832YOPS   GL2 9436  17.122   3.797   6.645 -0.3053  0.1464  0.0454
  832YOPS   C1A 9437  16.655   4.254   6.750 -0.0375 -0.0987  0.0346
  832YOPS   D2A 9438  16.577   4.503   7.039 -0.2025  0.2895 -0.2044
  832YOPS   C3A 9439  16.616   4.907   7.108 -0.0604 -0.1624 -0.0241
  832YOPS   C4A 9440  16.745   4.982   7.515 -0.0410 -0.1677 -0.0703
  832YOPS   C1B 9441  17.122   4.099   6.914  0.1176  0.0264  0.0463
  832YOPS   C2B 9442  16.958   4.163   7.211 -0.1248 -0.2470 -0.1569
  832YOPS   D3B 9443  16.852   3.987   7.527 -0.0976 -0.0910 -0.1463
  832YOPS   C4B 9444  16.624   3.706   7.689 -0.0764 -0.1098  0.1507
  833YOPS   CNO 9445  11.353   2.637   6.094 -0.0776 -0.0069 -0.2942
  833YOPS   PO4 9446  10.909   2.440   6.059  0.1110 -0.0448  0.1022
  833YOPS   GL1 9447  10.765   2.309   6.453 -0.1832  0.3280 -0.0135
  833YOPS   GL2 9448  11.072   2.362   6.656  0.0177 -0.1879 -0.1372
  833YOPS   C1A 9449  10.418   2.189   6.719 -0.2329  0.0242 -0.1108
  833YOPS   D2A 9450  10.120   2.361   7.087  0.0902  0.0540 -0.0702
  833YOPS   C3A 9451   9.988   2.526   7.510 -0.2884  0.1209  0.0026
  833YOPS   C4A 9452   9.718   2.542   7.737 -0.2037  0.0579  0.1166
  833YOPS   C1B 9453  11.063   2.432   7.150 -0.4767 -0.0084  0.3106
  833YOPS   C2B 9454  11.012   2.292   7.516  0.1050 -0.0233  0.1503
  833YOPS   D3B 9455  11.159   2.257   7.946  0.2995 -0.0653 -0.0511
  833YOPS   C4B 9456  11.446   1.983   8.258 -0.0673  0.2068 -0.1510
  834YOPS   CNO 9457  13.443   9.490   6.495  0.0252  0.1135 -0.3660
  834YOPS   PO4 9458  13.028   9.360   6.284  0.3082 -0.2972 -0.1149
  834YOPS   GL1 9459  12.976   9.141   6.665 -0.1103  0.1588 -0.0296
  834YOPS   GL2 9460  12.634   9.127   6.853 -0.2692  0.5229  0.0058
  834YOPS   C1A 9461  13.081   8.967   7.110 -0.1223 -0.1085  0.1936
  834YOPS   D2A 9462  13.011   8.902   7.561 -0.0891 -0.2063  0.2892
  834YOPS   C3A 9463  12.972   9.045   7.993  0.0447 -0.2429 -0.3130
  834YOPS   C4A 9464  12.630   9.383   7.961 -0.1834  0.1811 -0.1676
  834YOPS   C1B 9465  12.551   8.921   7.296 -0.0747  0.1527  0.1795
  834YOPS   C2B 9466  12.565   8.792   7.843  0.0577 -0.0912 -0.0501
  834YOPS   D3B 9467  12.591   8.891   8.278  0.1774 -0.2611 -0.1351
  834YOPS   C4B 9468  12.667   8.660   8.672  0.2393  0.0239  0.0066
  835YOPS   CNO 9469   5.636  11.049   5.581  0.0076  0.2811 -0.0751
  835YOPS   PO4 9470   5.625  10.964   5.989 -0.1427 -0.0667  0.0654
  835YOPS   GL1 9471   5.593  11.172   6.331 -0.1442  0.0438  0.0138
  835YOPS   GL2 9472   5.353  11.039   6.556  0.0772  0.0227  0.1241
  835YOPS   C1A 9473   5.635  11.434   6.661  0.1577 -0.2817  0.2274
  835YOPS   D2A 9474   5.748  11.650   7.027  0.1474  0.0248  0.0772
  835YOPS   C3A 9475   5.983  11.663   7.411 -0.1456 -0.1416  0.1105
  835YOPS   C4A 9476   6.023  11.950   7.736 -0.0208  0.4175 -0.0505
  835YOPS   C1B 9477   5.356  11.184   6.996 -0.2076 -0.3508 -0.0255
  835YOPS   C2B 9478   5.505  11.207   7.362  0.3237 -0.1526  0.2460
  835YOPS   D3B 9479   5.734  11.323   7.760 -0.1987  0.0587  0.2575
  835YOPS   C4B 9480   5.674  11.536   8.031 -0.2162  0.1696  0.0516
  836YOPS   CNO 9481  10.832   6.441   6.124 -0.3828  0.1970 -0.0714
  836YOPS   PO4 9482  10.662   6.188   6.419 -0.0673 -0.0776  0.5094
  836YOPS   GL1 9483  10.606   6.485   6.805  0.1481 -0.2255 -0.2434
  836YOPS   GL2 9484  10.697   6.372   6.996  0.1306  0.4467  0.1050
  836YOPS   C1A 9485  10.523   6.802   7.309  0.1341 -0.1937 -0.0835
  836YOPS   D2A 9486  10.553   6.839   7.681  0.0236 -0.1718  0.0313
  836YOPS   C3A 9487  10.404   6.638   8.039 -0.0367 -0.0210 -0.2105
  836YOPS   C4A 9488  10.110   6.739   8.335 -0.0663 -0.0206  0.1220
  836YOPS   C1B 9489  10.682   6.381   7.510 -0.2638 -0.2914 -0.1017
  836YOPS   C2B 9490  10.513   6.173   7.850  0.2066  0.0580  0.0480
  836YOPS   D3B 9491  10.489   6.147   8.297 -0.0131  0.0235  0.0839
  836YOPS   C4B 9492  10.515   6.502   8.534  0.1291  0.1683  0.1604
  837YOPS   CNO 9493   9.378   2.911   5.983 -0.1171  0.1602  0.1164
  837YOPS   PO4 9494   9.828   2.714   5.930  0.0519 -0.2182  0.0400
  837YOPS   GL1 9495  10.000   2.644   6.346 -0.1817  0.1503 -0.2818
  837YOPS   GL2 9496  10.024   2.335   6.311  0.0896 -0.4056 -0.3492
  837YOPS   C1A 9497   9.828   2.640   6.764 -0.4727 -0.0840  0.1695
  837YOPS   D2A 9498   9.741   2.733   7.174  0.1472  0.0608  0.2167
  837YOPS   C3A 9499   9.447   2.549   7.336  0.2057  0.3563 -0.2320
  837YOPS   C4A 9500   9.071   2.563   7.687 -0.0523 -0.0354  0.0353
  837YOPS   C1B 9501   9.709   2.167   6.576  0.5396 -0.0226  0.0022
  837YOPS   C2B 9502   9.583   1.806   6.723  0.0690  0.0273  0.0536
  837YOPS   D3B 9503   9.289   1.554   6.606  0.1422 -0.1939  0.1972
  837YOPS   C4B 9504   9.377   1.136   6.770  0.3146  0.0133  0.4874
  838YOPS   CNO 9505   3.666   3.344   5.939  0.2015  0.0822 -0.2804
  838YOPS   PO4 9506   3.370   3.624   6.276  0.0259 -0.0466  0.0942
  838YOPS   GL1 9507   3.266   3.566   6.649 -0.1650  0.0022  0.0568
  838YOPS   GL2 9508   2.978   3.650   6.797 -0.0345 -0.0500  0.0095
  838YOPS   C1A 9509   3.308   3.437   7.069 -0.3010 -0.0490 -0.1255
  838YOPS   D2A 9510   3.335   3.497   7.488  0.2521 -0.0603 -0.3537
  838YOPS   C3A 9511   3.084   3.540   7.864 -0.1488  0.0505  0.0731
  838YOPS   C4A 9512   3.313   3.513   8.231 -0.0930  0.1355 -0.0445
  838YOPS   C1B 9513   2.729   3.513   7.143 -0.0737 -0.1437  0.1131
  838YOPS   C2B 9514   2.683   3.483   7.571  0.0547 -0.1716 -0.0703
  838YOPS   D3B 9515   2.614   3.480   7.965  0.0321  0.1919  0.4019
  838YOPS   C4B 9516   2.747   3.694   8.243  0.0059 -0.1238  0.3139
  839POPE   NH3 9517   7.223   3.341   5.847  0.2249 -0.2003  0.2328
  839POPE   PO4 9518   7.128   2.952   5.965 -0.1624  0.2059 -0.1666
  839POPE   GL1 9519   7.091   2.819   6.336 -0.1550 -0.4737  0.0975
  839POPE   GL2 9520   6.950   2.573   6.382  0.0099 -0.0437 -0.0805
  839POPE   C1A 9521   7.269   3.053   6.686  0.2120  0.0385 -0.0515
  839POPE   D2A 9522   7.223   3.406   6.976 -0.0094  0.0701 -0.1237
  839POPE   C3A 9523   7.002   3.499   7.368 -0.0850  0.1226 -0.0067
  839POPE   C4A 9524   6.911   3.254   7.633  0.0770 -0.1777  0.1476
  839POPE   C1B 9525   6.844   2.738   6.725  0.0526 -0.0263 -0.0204
  839POPE   C2B 9526   7.010   2.693   7.001 -0.2725  0.0876  0.0548
  839POPE   C3B 9527   7.165   2.929   7.209 -0.3053  0.0076 -0.1771
  839POPE   C4B 9528   7.573   3.189   7.390 -0.0557  0.1881  0.2781
  840POPE   NH3 9529   0.208  14.122   5.847  0.3362 -0.0526 -0.3450
  840POPE   PO4 9530   0.288  14.373   6.246 -0.1943 -0.3287  0.2590
  840POPE   GL1 9531   0.599  14.153   6.467 -0.0544  0.1237 -0.1986
  840POPE   GL2 9532   0.854  14.039   6.230  0.0410 -0.1536 -0.1084
  840POPE   C1A 9533   0.639  14.074   6.854  0.0570  0.0540  0.1952
  840POPE   D2A 9534   0.519  14.185   7.223 -0.0720 -0.0569  0.2599
  840POPE   C3A 9535   0.424  13.925   7.563 -0.2724 -0.1150  0.0664
  840POPE   C4A 9536   0.526  13.949   8.038  0.0767 -0.1489 -0.2204
  840POPE   C1B 9537   1.075  13.925   6.624  0.1891 -0.0579  0.5259
  840POPE   C2B 9538   0.993  13.806   6.995 -0.1320  0.1130  0.0070
  840POPE   C3B 9539   1.114  13.900   7.357 -0.1731  0.0027  0.1176
  840POPE   C4B 9540   0.896  13.740   7.610  0.1639  0.3029 -0.2001
  841POPE   NH3 9541   8.650  13.256   5.890  0.0807  0.0460 -0.0735
  841POPE   PO4 9542   8.255  12.979   5.906 -0.0536 -0.3453 -0.0848
  841POPE   GL1 9543   8.033  13.211   6.287  0.1419  0.1949  0.3155
  841POPE   GL2 9544   8.317  13.367   6.370 -0.1546  0.0943  0.3829
  841POPE   C1A 9545   7.768  13.279   6.630  0.0695  0.0404 -0.1646
  841POPE   D2A 9546   7.502  13.381   6.969 -0.0172  0.1971  0.0020
  841POPE   C3A 9547   7.444  13.208   7.424 -0.2302  0.2331 -0.0634
  841POPE   C4A 9548   7.585  13.100   7.790 -0.1373 -0.1477 -0.0107
  841POPE   C1B 9549   8.001  13.722   6.541  0.1547  0.2282  0.2474
  841POPE   C2B 9550   7.669  13.850   6.901  0.1827  0.1341  0.0914
  841POPE   C3B 9551   7.561  13.949   7.303 -0.1355 -0.0520  0.0418
  841POPE   C4B 9552   7.272  14.128   7.447 -0.0057  0.0939  0.1093
  842POPE   NH3 9553   4.899   3.508   6.124  0.2902  0.0941  0.1459
  842POPE   PO4 9554   4.656   3.759   6.377  0.3072 -0.1289 -0.0884
  842POPE   GL1 9555   4.883   3.550   6.647  0.1996 -0.0226 -0.1731
  842POPE   GL2 9556   5.122   3.687   6.870  0.2317 -0.3072  0.1211
  842POPE   C1A 9557   5.181   3.181   6.841  0.0490  0.1271 -0.1629
  842POPE   D2A 9558   5.187   2.762   7.018 -0.1242 -0.1356  0.1426
  842POPE   C3A 9559   5.224   2.927   7.546 -0.2025  0.0009 -0.1025
  842POPE   C4A 9560   5.036   2.844   7.960  0.1013  0.1098  0.1981
  842POPE   C1B 9561   4.811   3.683   7.227 -0.0078  0.1826  0.0636
  842POPE   C2B 9562   4.911   3.453   7.595 -0.1085 -0.0858 -0.0166
  842POPE   C3B 9563   5.139   3.288   7.844  0.0197 -0.3088 -0.1412
  842POPE   C4B 9564   5.131   3.247   8.281 -0.0543 -0.1126  0.1611
  843POPE   NH3 9565   9.390  14.518   5.849 -0.1849 -0.2007 -0.0212
  843POPE   PO4 9566   9.285  14.161   5.683 -0.1960  0.0612  0.0195
  843POPE   GL1 9567   9.475  13.975   6.081  0.0299  0.2137 -0.0528
  843POPE   GL2 9568   9.332  14.049   6.385 -0.1016 -0.2061 -0.0027
  843POPE   C1A 9569   9.738  13.752   6.388  0.3097  0.0498 -0.3129
  843POPE   D2A 9570   9.792  13.846   6.777 -0.2482 -0.2929  0.0930
  843POPE   C3A 9571   9.835  14.135   7.095 -0.0600  0.0653 -0.1387
  843POPE   C4A 9572   9.640  14.416   7.431 -0.3081  0.2000 -0.0924
  843POPE   C1B 9573   9.416  14.176   6.839 -0.2994  0.1075 -0.0602
  843POPE   C2B 9574   9.412  14.053   7.263  0.2757 -0.3783  0.1867
  843POPE   C3B 9575   9.440  13.954   7.761 -0.1287 -0.1099  0.4215
  843POPE   C4B 9576   9.139  13.859   8.112  0.0570 -0.0394  0.3157
  844POPE   NH3 9577   9.329   8.903   5.640 -0.2790  0.0601  0.0386
  844POPE   PO4 9578   9.380   9.019   6.103 -0.5048 -0.0190 -0.2881
  844POPE   GL1 9579   9.252   8.871   6.546 -0.1042  0.0160 -0.1980
  844POPE   GL2 9580   9.422   8.530   6.703  0.0564  0.0533 -0.2407
  844POPE   C1A 9581   9.280   9.031   6.971 -0.0407  0.1050 -0.0433
  844POPE   D2A 9582   9.357   8.968   7.351  0.2794  0.0803  0.0336
  844POPE   C3A 9583   9.151   9.155   7.747  0.0799  0.2071  0.0666
  844POPE   C4A 9584   8.751   9.241   7.888  0.0195 -0.2356  0.1708
  844POPE   C1B 9585   9.437   8.546   7.110 -0.0631  0.1034  0.2993
  844POPE   C2B 9586   9.579   8.481   7.591  0.1087  0.2290 -0.1762
  844POPE   C3B 9587   9.798   8.645   7.975  0.1044  0.0633 -0.0786
  844POPE   C4B 9588   9.922   9.047   8.142  0.1102  0.4123  0.1391
  845POPE   NH3 9589   3.807   0.287   6.063 -0.1295 -0.0062  0.1779
  845POPE   PO4 9590   4.273   0.159   6.099  0.1260  0.1978 -0.2105
  845POPE   GL1 9591   4.466   0.210   6.472  0.0695  0.0603 -0.3161
  845POPE   GL2 9592   4.281   0.012   6.746  0.2624 -0.0752 -0.0775
  845POPE   C1A 9593   4.865   0.275   6.822 -0.1534  0.3285  0.1384
  845POPE   D2A 9594   5.132   0.521   7.003  0.0964  0.1694 -0.2840
  845POPE   C3A 9595   4.969   0.616   7.406  0.0415 -0.1509  0.1498
  845POPE   C4A 9596   4.840   1.043   7.707 -0.1363 -0.1363  0.1498
  845POPE   C1B 9597   4.394   0.124   7.077  0.0369  0.1717  0.0178
  845POPE   C2B 9598   4.541   0.298   7.518  0.0244 -0.0115  0.0853
  845POPE   C3B 9599   4.590   0.587   7.769  0.0585  0.1118 -0.0707
  845POPE   C4B 9600   4.881   0.692   8.120 -0.0552 -0.4548 -0.0573
  846POPE   NH3 9601   5.340   8.851   6.324 -0.0059 -0.0944 -0.0136
  846POPE   PO4 9602   5.694   9.062   6.484 -0.0739  0.0253  0.0056
  846POPE   GL1 9603   5.862   8.932   6.839 -0.0627  0.1255  0.1766
  846POPE   GL2 9604   5.572   8.686   6.819  0.0909 -0.1492  0.1767
  846POPE   C1A 9605   6.064   8.923   7.246  0.0910 -0.0916  0.1079
  846POPE   D2A 9606   6.194   8.890   7.690 -0.2787 -0.1704  0.0378
  846POPE   C3A 9607   5.964   9.039   7.934  0.1645 -0.0374 -0.1132
  846POPE   C4A 9608   5.946   9.271   8.448 -0.0669 -0.4060 -0.0182
  846POPE   C1B 9609   5.711   8.582   7.195  0.1121  0.0812 -0.1908
  846POPE   C2B 9610   5.769   8.596   7.556 -0.2845  0.0677  0.0099
  846POPE   C3B 9611   5.810   8.581   7.954 -0.1358  0.1904 -0.1502
  846POPE   C4B 9612   5.975   8.318   8.241 -0.3089 -0.2535  0.0475
  847POPE   NH3 9613  10.308   5.880   6.306  0.1661 -0.0464  0.3647
  847POPE   PO4 9614  10.284   5.429   6.297 -0.1407 -0.1671 -0.0942
  847POPE   GL1 9615  10.431   5.276   6.659 -0.0350 -0.0188 -0.0413
  847POPE   GL2 9616  10.486   5.525   6.737 -0.3243  0.1137 -0.0410
  847POPE   C1A 9617  10.389   5.093   7.089  0.0739  0.4361  0.1947
  847POPE   D2A 9618  10.595   5.275   7.450 -0.3044  0.3421  0.1163
  847POPE   C3A 9619  10.508   5.174   7.863 -0.1207  0.1681 -0.0676
  847POPE   C4A 9620  10.577   5.065   8.302  0.0036  0.0795 -0.0626
  847POPE   C1B 9621  10.521   5.755   7.216  0.0933  0.0122  0.1158
  847POPE   C2B 9622  10.412   5.792   7.547  0.2328  0.2177  0.2326
  847POPE   C3B 9623  10.263   5.724   7.873 -0.0065 -0.1399  0.0317
  847POPE   C4B 9624  10.276   5.483   8.306 -0.0004  0.3647  0.1654
  848POPE   NH3 9625   3.695   8.861   6.000  0.2483 -0.1205  0.1914
  848POPE   PO4 9626   3.432   8.843   6.270 -0.0508 -0.1317  0.4519
  848POPE   GL1 9627   3.563   8.567   6.554  0.2257  0.0498  0.1703
  848POPE   GL2 9628   3.475   8.260   6.547  0.1430  0.0788  0.1755
  848POPE   C1A 9629   3.576   8.534   6.911  0.0731 -0.1047  0.0826
  848POPE   D2A 9630   3.488   8.647   7.363 -0.2049  0.0922  0.0538
  848POPE   C3A 9631   3.479   8.384   7.640  0.2393 -0.0683 -0.0116
  848POPE   C4A 9632   3.609   8.529   8.069  0.2707  0.3159  0.1192
  848POPE   C1B 9633   3.652   8.047   6.835 -0.2065  0.1700  0.1066
  848POPE   C2B 9634   3.637   8.104   7.205 -0.0617  0.1808  0.0448
  848POPE   C3B 9635   3.588   7.783   7.529  0.0540 -0.1159  0.2330
  848POPE   C4B 9636   3.398   7.872   7.858  0.0912  0.0291  0.1416
  849POPE   NH3 9637   8.873   3.182   6.518  0.2339 -0.1363  0.2976
  849POPE   PO4 9638   9.165   2.871   6.414 -0.2010  0.1858 -0.1210
  849POPE   GL1 9639   9.116   2.731   6.788  0.2357  0.0742 -0.0888
  849POPE   GL2 9640   8.928   2.463   6.715  0.0101 -0.1305  0.2625
  849POPE   C1A 9641   8.986   2.511   7.161  0.2956  0.0207 -0.1308
  849POPE   D2A 9642   9.130   2.132   7.417 -0.0735 -0.0131  0.1085
  849POPE   C3A 9643   8.895   1.760   7.523 -0.3040  0.0636  0.0919
  849POPE   C4A 9644   8.920   1.768   7.985 -0.0418 -0.0092 -0.0594
  849POPE   C1B 9645   9.347   2.346   6.823  0.0935 -0.0096  0.0463
  849POPE   C2B 9646   9.582   2.109   7.123  0.0324  0.2574 -0.1919
  849POPE   C3B 9647   9.830   2.040   7.452  0.2453 -0.0211  0.0816
  849POPE   C4B 9648   9.975   1.937   7.786  0.0224 -0.0721  0.3288
  850POPE   NH3 9649   7.449   2.593   6.098 -0.4268 -0.0641 -0.0588
  850POPE   PO4 9650   7.131   2.275   5.949  0.0909  0.0334 -0.0066
  850POPE   GL1 9651   7.292   2.071   6.213 -0.1322  0.3256 -0.1664
  850POPE   GL2 9652   7.155   2.042   6.447 -0.1506 -0.1727  0.3263
  850POPE   C1A 9653   7.561   1.919   6.671  0.0723 -0.0140 -0.3856
  850POPE   D2A 9654   7.529   1.843   7.084 -0.0988  0.1680 -0.0913
  850POPE   C3A 9655   7.807   1.779   7.431  0.0088 -0.0701 -0.1494
  850POPE   C4A 9656   7.668   1.873   7.901 -0.0121  0.1264  0.1908
  850POPE   C1B 9657   6.900   2.182   6.696  0.1215 -0.1603 -0.2207
  850POPE   C2B 9658   6.994   2.214   7.096  0.0544 -0.0429 -0.1694
  850POPE   C3B 9659   6.736   2.035   7.532 -0.0335 -0.1681 -0.0425
  850POPE   C4B 9660   6.753   1.966   7.966 -0.1877 -0.5260  0.3858
  851POPE   NH3 9661   3.511   5.895   6.146 -0.1082 -0.0643  0.0282
  851POPE   PO4 9662   3.790   6.164   6.253 -0.4817 -0.1347  0.1404
  851POPE   GL1 9663   3.584   5.962   6.678 -0.2277  0.2159 -0.1104
  851POPE   GL2 9664   3.252   6.128   6.877  0.0342 -0.2585  0.0001
  851POPE   C1A 9665   3.532   5.846   7.169  0.3254 -0.0924 -0.2097
  851POPE   D2A 9666   3.503   5.480   7.456 -0.1239  0.0060 -0.0086
  851POPE   C3A 9667   3.539   5.428   7.851 -0.1337  0.0873  0.2925
  851POPE   C4A 9668   3.627   5.177   8.189 -0.4680 -0.0964  0.1820
  851POPE   C1B 9669   3.182   6.121   7.366  0.0885 -0.1304  0.0795
  851POPE   C2B 9670   3.353   5.869   7.700  0.0081  0.0181  0.3424
  851POPE   C3B 9671   3.603   6.001   8.027  0.3263 -0.0687 -0.0740
  851POPE   C4B 9672   3.549   6.128   8.397  0.2408  0.0544  0.0032
  852POPE   NH3 9673  17.401   8.436   6.546 -0.0689 -0.0706 -0.0007
  852POPE   PO4 9674  17.211   7.958   6.479  0.2531 -0.2213  0.2319
  852POPE   GL1 9675  17.418   7.785   6.822 -0.1566 -0.1223 -0.2001
  852POPE   GL2 9676  17.525   8.031   6.865  0.0269  0.0819  0.1222
  852POPE   C1A 9677  17.537   7.627   7.229  0.1862 -0.2860  0.1980
  852POPE   D2A 9678  17.457   7.647   7.677  0.1338 -0.2084 -0.1382
  852POPE   C3A 9679  17.492   7.261   7.911  0.0154 -0.3669 -0.0117
  852POPE   C4A 9680  17.805   7.191   8.183 -0.1217  0.2159 -0.1393
  852POPE   C1B 9681  17.710   8.127   7.247  0.2910 -0.1240  0.0353
  852POPE   C2B 9682  17.806   7.968   7.634  0.4763  0.1520 -0.0414
  852POPE   C3B 9683  17.755   8.294   8.003 -0.2468 -0.2602 -0.1055
  852POPE   C4B 9684  17.683   8.516   8.429  0.2502 -0.0749 -0.0429
  853POPE   NH3 9685   7.314   0.894   5.839 -0.1261  0.1383 -0.1075
  853POPE   PO4 9686   7.577   1.292   5.889  0.0377 -0.4027 -0.0520
  853POPE   GL1 9687   7.553   1.264   6.364 -0.2953 -0.0911  0.1859
  853POPE   GL2 9688   7.349   1.554   6.370 -0.2087  0.0354  0.1946
  853POPE   C1A 9689   7.550   1.339   6.770  0.1230  0.1187 -0.0158
  853POPE   D2A 9690   7.563   1.381   7.276  0.4007 -0.0604 -0.0793
  853POPE   C3A 9691   7.257   1.408   7.579 -0.3316 -0.1392 -0.0856
  853POPE   C4A 9692   7.290   1.543   7.960 -0.1837  0.0626 -0.1769
  853POPE   C1B 9693   7.071   1.678   6.770  0.2152  0.0410  0.2134
  853POPE   C2B 9694   7.037   1.649   7.238 -0.1561  0.1780  0.1164
  853POPE   C3B 9695   7.216   1.935   7.582 -0.3962 -0.0774 -0.3077
  853POPE   C4B 9696   7.040   2.385   7.740  0.3975  0.1338  0.1448
  854POPE   NH3 9697  18.020   8.929   6.054  0.2317 -0.0486  0.2802
  854POPE   PO4 9698  17.788   8.528   6.168 -0.3953  0.1138  0.0306
  854POPE   GL1 9699  17.925   8.751   6.534 -0.0657  0.3772  0.1756
  854POPE   GL2 9700  17.806   8.996   6.609  0.0247  0.0706 -0.0360
  854POPE   C1A 9701  18.312   8.825   6.740 -0.3774 -0.1738  0.2591
  854POPE   D2A 9702  18.505   8.704   7.126  0.1605  0.1289  0.1727
  854POPE   C3A 9703  18.515   8.775   7.652 -0.1875 -0.3494  0.1768
  854POPE   C4A 9704  18.663   8.713   8.073 -0.4072 -0.1848  0.2670
  854POPE   C1B 9705  17.550   8.869   6.996 -0.3295 -0.1770 -0.0318
  854POPE   C2B 9706  17.365   8.499   7.168  0.4632 -0.0952 -0.2414
  854POPE   C3B 9707  17.568   8.497   7.559 -0.0436 -0.1513 -0.2970
  854POPE   C4B 9708  17.758   8.743   7.854 -0.0846 -0.0428  0.0059
  855POPE   NH3 9709  17.746  13.263   6.427  0.2052  0.2209  0.1479
  855POPE   PO4 9710  18.190  13.302   6.319  0.1945  0.1936  0.1512
  855POPE   GL1 9711  18.148  13.244   6.749 -0.0690 -0.1633 -0.0272
  855POPE   GL2 9712  18.068  13.444   6.946  0.2808 -0.0163 -0.0558
  855POPE   C1A 9713  18.377  13.079   7.032  0.2860  0.0988 -0.0925
  855POPE   D2A 9714  18.453  13.119   7.458  0.0094  0.1312 -0.0245
  855POPE   C3A 9715  18.517  12.798   7.783 -0.4173  0.3406  0.0971
  855POPE   C4A 9716  18.629  12.311   7.850  0.0861  0.0225  0.2132
  855POPE   C1B 9717  18.008  13.347   7.427 -0.2204 -0.0211 -0.3149
  855POPE   C2B 9718  18.127  13.299   7.788 -0.0646  0.2355 -0.0686
  855POPE   C3B 9719  18.322  13.601   8.131 -0.1106  0.0297 -0.1820
  855POPE   C4B 9720  18.764  13.562   7.907 -0.0828 -0.1863 -0.3504
  856POPE   NH3 9721   1.673  16.514   6.160 -0.2153 -0.0171  0.2563
  856POPE   PO4 9722   1.941  16.223   6.051 -0.0326  0.1021  0.2568
  856POPE   GL1 9723   1.959  16.133   6.450 -0.1781  0.0507  0.2390
  856POPE   GL2 9724   1.637  15.892   6.577 -0.0044 -0.0313 -0.2811
  856POPE   C1A 9725   1.842  16.194   6.933  0.2368 -0.1072  0.2434
  856POPE   D2A 9726   1.961  16.171   7.329 -0.3978 -0.0707 -0.0058
  856POPE   C3A 9727   1.816  16.007   7.727 -0.1657  0.0694 -0.0067
  856POPE   C4A 9728   1.581  15.681   7.835 -0.0313 -0.0702 -0.0355
  856POPE   C1B 9729   1.618  15.779   7.042  0.3005  0.0565  0.1616
  856POPE   C2B 9730   1.522  15.528   7.351  0.0088 -0.2873  0.1553
  856POPE   C3B 9731   1.464  15.234   7.784  0.0195  0.3205  0.0123
  856POPE   C4B 9732   1.194  15.020   7.958 -0.0226  0.4637 -0.0227
  857POPE   NH3 9733  15.363   6.889   6.794  0.1209 -0.0889  0.2054
  857POPE   PO4 9734  15.765   6.862   6.605  0.0171 -0.0517 -0.1235
  857POPE   GL1 9735  15.863   6.664   6.899  0.0378 -0.0003 -0.1904
  857POPE   GL2 9736  16.073   6.429   6.774 -0.3400  0.2470  0.0330
  857POPE   C1A 9737  15.792   6.630   7.346  0.0429  0.2889  0.0852
  857POPE   D2A 9738  15.894   6.531   7.727 -0.0258  0.0432 -0.0282
  857POPE   C3A 9739  15.698   6.466   8.187  0.0349  0.1654 -0.0251
  857POPE   C4A 9740  15.554   6.479   8.594  0.1334 -0.0901  0.0829
  857POPE   C1B 9741  16.246   6.191   7.260  0.1439  0.4329 -0.1568
  857POPE   C2B 9742  16.223   6.059   7.594 -0.1029  0.1733  0.3721
  857POPE   C3B 9743  16.023   6.082   8.000 -0.1722  0.4885 -0.1945
  857POPE   C4B 9744  15.841   5.834   8.299  0.2908  0.1672 -0.1087
  858POPE   NH3 9745   1.530  17.361   6.025  0.1762 -0.1137  0.1855
  858POPE   PO4 9746   1.864  16.960   6.055 -0.0086 -0.0265  0.5774
  858POPE   GL1 9747   1.999  16.885   6.441 -0.1913  0.0774  0.1972
  858POPE   GL2 9748   1.809  16.596   6.584  0.0759 -0.0110 -0.2161
  858POPE   C1A 9749   2.015  17.045   6.894 -0.2233 -0.1468  0.0596
  858POPE   D2A 9750   1.886  17.019   7.411  0.0425  0.0798  0.0083
  858POPE   C3A 9751   1.913  17.093   7.809  0.1245 -0.0282 -0.0174
  858POPE   C4A 9752   2.216  16.929   8.159  0.0287 -0.1330 -0.1410
  858POPE   C1B 9753   1.683  16.686   6.948 -0.0041 -0.3129  0.0208
  858POPE   C2B 9754   1.616  16.603   7.458 -0.0675 -0.1173  0.0174
  858POPE   C3B 9755   1.598  16.440   7.794  0.1171  0.0347  0.0832
  858POPE   C4B 9756   1.707  16.199   8.185  0.0051 -0.0751 -0.1496
  859POPE   NH3 9757  16.816   1.192   6.194  0.0528  0.0359 -0.0774
  859POPE   PO4 9758  16.725   0.787   6.163  0.0935 -0.1521  0.0190
  859POPE   GL1 9759  16.602   0.654   6.551  0.0149 -0.1068 -0.0181
  859POPE   GL2 9760  16.164   0.663   6.500 -0.2084  0.2271  0.0374
  859POPE   C1A 9761  16.341   0.404   6.843  0.2261  0.1613 -0.2273
  859POPE   D2A 9762  16.457   0.140   7.153  0.0006  0.3713  0.2106
  859POPE   C3A 9763  16.318   0.243   7.551 -0.0611 -0.1650  0.0812
  859POPE   C4A 9764  16.356   0.050   7.888  0.2544  0.0899  0.1069
  859POPE   C1B 9765  16.208   0.857   6.887 -0.3212  0.4422  0.0744
  859POPE   C2B 9766  16.207   0.704   7.299 -0.1960 -0.1312  0.0734
  859POPE   C3B 9767  16.440   0.658   7.734 -0.1063 -0.1815 -0.1428
  859POPE   C4B 9768  16.640   0.989   8.031 -0.0479 -0.0277 -0.2176
  860POPE   NH3 9769  16.427   3.625   5.763 -0.3641 -0.1151 -0.0429
  860POPE   PO4 9770  16.224   3.990   5.961  0.1098 -0.1298 -0.1536
  860POPE   GL1 9771  16.078   4.108   6.420  0.3772 -0.1471  0.1332
  860POPE   GL2 9772  15.955   3.862   6.534 -0.2260  0.3086 -0.1835
  860POPE   C1A 9773  16.192   4.288   6.802  0.1577  0.0108 -0.2342
  860POPE   D2A 9774  16.148   4.432   7.239  0.1220 -0.5418 -0.0524
  860POPE   C3A 9775  16.542   4.524   7.508  0.0307  0.0763 -0.1872
  860POPE   C4A 9776  16.853   4.415   7.795 -0.1431  0.1355  0.1592
  860POPE   C1B 9777  15.869   3.716   7.004  0.0742  0.1836 -0.4227
  860POPE   C2B 9778  16.137   3.505   7.253  0.2993  0.1235  0.1713
  860POPE   C3B 9779  16.238   3.363   7.670  0.1115 -0.1135 -0.1956
  860POPE   C4B 9780  16.211   2.958   7.943  0.1871 -0.3096  0.3860
  861POPE   NH3 9781  12.668  11.893   5.937 -0.1513 -0.1203  0.0674
  861POPE   PO4 9782  12.366  11.919   6.363  0.1469  0.0376  0.3122
  861POPE   GL1 9783  12.278  11.890   6.779 -0.1600  0.1669 -0.0236
  861POPE   GL2 9784  12.015  12.032   6.820  0.0591  0.4391 -0.0221
  861POPE   C1A 9785  12.044  11.659   7.111 -0.0067 -0.0292 -0.2602
  861POPE   D2A 9786  11.831  11.648   7.561 -0.0863  0.0674 -0.2341
  861POPE   C3A 9787  11.910  11.950   7.908 -0.1262  0.4472 -0.1459
  861POPE   C4A 9788  11.857  12.349   7.818  0.1356  0.1920  0.3397
  861POPE   C1B 9789  12.124  12.034   7.364 -0.2541  0.0450  0.0544
  861POPE   C2B 9790  12.381  11.868   7.715  0.1480 -0.0069  0.0785
  861POPE   C3B 9791  12.500  11.724   8.066  0.0952  0.2461  0.1453
  861POPE   C4B 9792  12.682  11.531   8.430  0.0883 -0.1984  0.2735
  862POPE   NH3 9793  14.370   4.482   6.207 -0.1226  0.0922 -0.0442
  862POPE   PO4 9794  14.625   4.154   6.334 -0.0886 -0.1920  0.1654
  862POPE   GL1 9795  14.785   4.379   6.617  0.1426 -0.2592 -0.0540
  862POPE   GL2 9796  14.736   4.703   6.550 -0.0227  0.2455 -0.1929
  862POPE   C1A 9797  14.780   4.169   7.052  0.3408  0.0437  0.3286
  862POPE   D2A 9798  14.698   3.829   7.282  0.0576 -0.2308  0.1538
  862POPE   C3A 9799  14.892   3.757   7.643 -0.3590 -0.0450 -0.2208
  862POPE   C4A 9800  14.839   3.641   8.181 -0.1277 -0.2267  0.0659
  862POPE   C1B 9801  14.732   4.707   7.022  0.1889 -0.1103  0.3170
  862POPE   C2B 9802  14.828   4.520   7.410  0.1211  0.0614 -0.0714
  862POPE   C3B 9803  14.731   4.245   7.715  0.0763  0.0510 -0.1248
  862POPE   C4B 9804  14.486   4.036   8.034 -0.3253  0.0668 -0.0074
  863POPE   NH3 9805  11.862  16.996   5.553 -0.1212 -0.2175 -0.3294
  863POPE   PO4 9806  12.255  17.029   5.807 -0.3397  0.4167  0.1559
  863POPE   GL1 9807  12.440  17.114   6.222 -0.0364 -0.3463  0.0924
  863POPE   GL2 9808  12.637  16.982   6.453  0.0298  0.0666 -0.0797
  863POPE   C1A 9809  12.454  17.429   6.542 -0.0569 -0.0134 -0.0174
  863POPE   D2A 9810  12.496  17.536   7.008  0.2967  0.3677 -0.1209
  863POPE   C3A 9811  12.968  17.443   7.222 -0.1965 -0.1224 -0.1536
  863POPE   C4A 9812  13.303  17.294   7.403  0.3123  0.1351  0.1389
  863POPE   C1B 9813  12.642  16.932   6.929 -0.0200 -0.1226  0.3132
  863POPE   C2B 9814  12.708  16.954   7.379 -0.0992  0.2273 -0.3106
  863POPE   C3B 9815  12.878  16.710   7.761 -0.0893  0.1829  0.3955
  863POPE   C4B 9816  13.285  16.427   7.921  0.1323 -0.2689  0.0951
  864POPE   NH3 9817   7.812  15.761   5.839 -0.2675 -0.3745  0.0064
  864POPE   PO4 9818   7.792  16.205   5.714 -0.0179  0.3219  0.0134
  864POPE   GL1 9819   7.758  16.182   6.169  0.2077  0.3717  0.2062
  864POPE   GL2 9820   7.901  16.431   6.275 -0.1689 -0.2541 -0.1326
  864POPE   C1A 9821   7.629  15.986   6.619  0.0714 -0.3066 -0.2239
  864POPE   D2A 9822   7.591  15.879   6.989  0.0626 -0.1075  0.0197
  864POPE   C3A 9823   7.281  15.663   7.294  0.0043  0.2943  0.5008
  864POPE   C4A 9824   6.916  15.505   7.475 -0.0183  0.1837 -0.3159
  864POPE   C1B 9825   8.265  16.618   6.416  0.0948  0.3803  0.1599
  864POPE   C2B 9826   8.561  16.972   6.505  0.3290  0.0208 -0.2545
  864POPE   C3B 9827   8.642  17.471   6.489 -0.1174  0.2609 -0.2097
  864POPE   C4B 9828   8.751  17.861   6.718  0.1614  0.1885  0.0459
  865POPE   NH3 9829   6.334   4.843   6.206 -0.2134  0.1237  0.0080
  865POPE   PO4 9830   6.100   5.285   6.164 -0.0902  0.0643  0.2234
  865POPE   GL1 9831   6.175   5.222   6.583 -0.5075  0.2253  0.2208
  865POPE   GL2 9832   6.138   4.889   6.684  0.1315 -0.0224 -0.2588
  865POPE   C1A 9833   5.983   5.340   6.910  0.0623 -0.3456 -0.4183
  865POPE   D2A 9834   6.032   5.159   7.314 -0.2273 -0.0145 -0.3210
  865POPE   C3A 9835   5.879   5.319   7.749  0.1651 -0.2474 -0.1299
  865POPE   C4A 9836   5.675   5.022   8.069  0.0434 -0.1440 -0.2263
  865POPE   C1B 9837   5.727   4.737   6.936 -0.0998  0.0636  0.2303
  865POPE   C2B 9838   5.666   4.701   7.311  0.2438  0.0638  0.0809
  865POPE   C3B 9839   5.789   4.836   7.605 -0.1172 -0.2135  0.0190
  865POPE   C4B 9840   6.183   4.912   7.774 -0.1278  0.2383  0.1850
  866POPE   NH3 9841  16.798  16.613   5.665 -0.0912 -0.0290  0.4554
  866POPE   PO4 9842  16.329  16.528   5.721  0.0228  0.0836 -0.1671
  866POPE   GL1 9843  16.475  16.393   6.202  0.0429 -0.0155  0.1754
  866POPE   GL2 9844  16.697  16.122   6.209  0.0383  0.0193  0.2889
  866POPE   C1A 9845  16.437  16.403   6.641  0.2295  0.2614 -0.0574
  866POPE   D2A 9846  16.579  16.214   7.015  0.1626  0.0430  0.0375
  866POPE   C3A 9847  16.862  16.366   7.301  0.1625  0.2563  0.0024
  866POPE   C4A 9848  16.986  16.133   7.766 -0.0463 -0.2026 -0.2752
  866POPE   C1B 9849  16.857  16.194   6.584  0.0261  0.1968 -0.0197
  866POPE   C2B 9850  17.079  16.195   6.927  0.0478  0.2462  0.1472
  866POPE   C3B 9851  17.277  15.850   7.086  0.1474 -0.0545 -0.1858
  866POPE   C4B 9852  17.523  15.601   7.134 -0.0367  0.0741  0.0315
  867POPE   NH3 9853  18.497  18.176   5.567  0.1191  0.2319 -0.0441
  867POPE   PO4 9854  18.779  18.035   5.823 -0.2152  0.2512 -0.2162
  867POPE   GL1 9855  18.814  18.209   6.201  0.0621  0.0617 -0.0352
  867POPE   GL2 9856  18.723  17.939   6.420 -0.4384 -0.0425 -0.2386
  867POPE   C1A 9857  18.647  18.384   6.595 -0.1383  0.1019  0.1752
  867POPE   D2A 9858  18.662  18.619   6.929 -0.0848 -0.0883  0.0631
  867POPE   C3A 9859  18.715  18.461   7.374  0.2173 -0.0028  0.2724
  867POPE   C4A 9860  18.638  18.492   7.824  0.2017  0.3280 -0.3803
  867POPE   C1B 9861  18.727  17.898   6.829  0.1034 -0.1367 -0.2851
  867POPE   C2B 9862  18.844  18.068   7.089  0.0641 -0.2169 -0.1818
  867POPE   C3B 9863  18.868  18.056   7.557  0.0838 -0.1273  0.0655
  867POPE   C4B 9864  19.178  17.917   7.843 -0.0491 -0.0365  0.1732
  868POPE   NH3 9865   4.608  14.631   5.702  0.1429 -0.1785 -0.0006
  868POPE   PO4 9866   4.680  14.932   5.653 -0.0711 -0.1116  0.0643
  868POPE   GL1 9867   4.648  15.017   6.109 -0.3501 -0.0097  0.1765
  868POPE   GL2 9868   4.561  14.857   6.241  0.1036  0.2071  0.1871
  868POPE   C1A 9869   4.594  15.329   6.510 -0.1734 -0.2248  0.1650
  868POPE   D2A 9870   4.552  15.557   6.922 -0.2766 -0.0116  0.0775
  868POPE   C3A 9871   4.730  15.440   7.349 -0.0385  0.0126 -0.1493
  868POPE   C4A 9872   5.073  15.444   7.653  0.1408 -0.2194 -0.0463
  868POPE   C1B 9873   4.511  14.821   6.641  0.0385 -0.4087 -0.2837
  868POPE   C2B 9874   4.241  14.670   6.895 -0.1611  0.3394  0.2383
  868POPE   C3B 9875   4.038  14.553   7.290 -0.2374 -0.0627 -0.0981
  868POPE   C4B 9876   3.913  14.795   7.709  0.0622  0.0534  0.0461
  869YOPE   NH3 9877   5.959  18.262   5.754  0.1837 -0.0928  0.1562
  869YOPE   PO4 9878   6.307  18.449   5.695  0.2682 -0.0034  0.0148
  869YOPE   GL1 9879   6.146  18.695   6.030  0.2298 -0.3610  0.0288
  869YOPE   GL2 9880   5.967  18.579   6.247 -0.0116  0.1896 -0.0194
  869YOPE   C1A 9881   5.938  19.029   6.420  0.1294 -0.2233  0.1540
  869YOPE   D2A 9882   5.602  19.076   6.702 -0.0937 -0.1680  0.1577
  869YOPE   C3A 9883   5.557  19.146   7.200  0.0713 -0.4858  0.3774
  869YOPE   C4A 9884   5.812  19.056   7.485  0.0198 -0.3224  0.0873
  869YOPE   C1B 9885   5.871  18.614   6.664 -0.0027  0.3734  0.0384
  869YOPE   C2B 9886   5.958  18.578   7.187 -0.0875  0.0210 -0.2912
  869YOPE   D3B 9887   6.043  18.562   7.583 -0.0629  0.1626  0.2361
  869YOPE   C4B 9888   6.329  18.709   7.919  0.0213 -0.1921 -0.2428
  870YOPE   NH3 9889   5.334  15.623   5.869  0.2025  0.0030  0.1692
  870YOPE   PO4 9890   5.698  15.851   5.873  0.0952 -0.0269  0.2711
  870YOPE   GL1 9891   5.942  15.535   6.068  0.0512  0.2054 -0.0707
  870YOPE   GL2 9892   5.692  15.303   6.259 -0.0129  0.1434 -0.3078
  870YOPE   C1A 9893   6.291  15.371   6.260  0.0067 -0.0957 -0.0804
  870YOPE   D2A 9894   6.529  15.131   6.646 -0.2116 -0.2923  0.2166
  870YOPE   C3A 9895   6.581  15.054   7.064 -0.2839  0.0434  0.0852
  870YOPE   C4A 9896   6.480  15.226   7.439 -0.1367  0.0137 -0.0783
  870YOPE   C1B 9897   5.906  15.499   6.527  0.0297  0.1567  0.1294
  870YOPE   C2B 9898   6.140  15.483   6.815  0.1618 -0.0517 -0.2927
  870YOPE   D3B 9899   6.214  15.460   7.156 -0.0925  0.2566 -0.1605
  870YOPE   C4B 9900   5.986  15.501   7.586 -0.2726 -0.0604  0.0222
  871YOPE   NH3 9901  15.711  14.636   6.298 -0.0690 -0.1187 -0.2471
  871YOPE   PO4 9902  15.577  15.087   6.178  0.0494  0.0737  0.1918
  871YOPE   GL1 9903  15.672  15.117   6.648  0.0514 -0.3451  0.1925
  871YOPE   GL2 9904  15.903  14.974   6.763  0.2829 -0.0844 -0.3349
  871YOPE   C1A 9905  15.472  15.301   6.908  0.3565  0.0183  0.0720
  871YOPE   D2A 9906  15.294  15.725   6.966  0.0752 -0.1740  0.2271
  871YOPE   C3A 9907  15.170  16.074   7.262  0.0599  0.3035 -0.1454
  871YOPE   C4A 9908  15.012  16.286   7.631  0.1203 -0.0247 -0.2030
  871YOPE   C1B 9909  16.124  14.935   7.170  0.1151 -0.2765 -0.1184
  871YOPE   C2B 9910  16.123  14.901   7.530  0.2950  0.1733 -0.3887
  871YOPE   D3B 9911  16.148  14.876   7.952 -0.2490 -0.0129  0.0459
  871YOPE   C4B 9912  16.302  15.065   8.274 -0.1019 -0.0257  0.0659
  872YOPE   NH3 9913  13.971   1.601   6.221 -0.0982  0.0103  0.1577
  872YOPE   PO4 9914  14.157   1.206   6.090  0.2231  0.2534 -0.1767
  872YOPE   GL1 9915  14.272   1.335   6.551 -0.1426  0.0850 -0.0570
  872YOPE   GL2 9916  13.995   1.460   6.700 -0.0646 -0.1480  0.1856
  872YOPE   C1A 9917  14.460   1.455   7.057  0.1773 -0.0815  0.0898
  872YOPE   D2A 9918  14.295   1.729   7.427 -0.0116  0.0056 -0.0209
  872YOPE   C3A 9919  14.383   1.885   7.799  0.0754 -0.2465  0.0485
  872YOPE   C4A 9920  14.527   1.637   8.169 -0.2530  0.0734  0.0914
  872YOPE   C1B 9921  13.939   1.435   7.121  0.3404  0.2518 -0.0823
  872YOPE   C2B 9922  14.054   1.151   7.502  0.3425  0.0991 -0.1453
  872YOPE   D3B 9923  14.042   1.080   7.979  0.3584 -0.1345 -0.2038
  872YOPE   C4B 9924  13.706   1.054   8.369  0.0418  0.0004  0.2508
  873YOPE   NH3 9925  14.693  12.815   6.521 -0.1624  0.0537 -0.0283
  873YOPE   PO4 9926  14.671  12.332   6.724 -0.0413 -0.1272  0.2034
  873YOPE   GL1 9927  14.669  12.237   7.136  0.0099  0.2338  0.0190
  873YOPE   GL2 9928  14.791  12.023   7.097 -0.0749  0.0638  0.1008
  873YOPE   C1A 9929  14.594  12.334   7.531  0.4053 -0.0816 -0.0835
  873YOPE   D2A 9930  14.343  12.531   7.902 -0.0974 -0.0553  0.2206
  873YOPE   C3A 9931  14.415  12.393   8.177  0.0796  0.0628 -0.0437
  873YOPE   C4A 9932  14.558  12.543   8.573 -0.2930  0.1232 -0.1326
  873YOPE   C1B 9933  14.873  11.901   7.508  0.0153 -0.1945  0.1280
  873YOPE   C2B 9934  14.785  11.988   7.863  0.0766  0.2633 -0.2261
  873YOPE   D3B 9935  14.831  12.168   8.183 -0.1597 -0.0917  0.2994
  873YOPE   C4B 9936  14.875  12.007   8.528  0.1429 -0.0950  0.3627
  874YOPE   NH3 9937  15.935   6.459   6.297  0.2855  0.1093  0.0121
  874YOPE   PO4 9938  16.397   6.442   6.348  0.0109 -0.0011  0.1993
  874YOPE   GL1 9939  16.554   6.638   6.765  0.1068 -0.2650 -0.1167
  874YOPE   GL2 9940  16.580   6.379   6.880  0.0111 -0.0266 -0.1018
  874YOPE   C1A 9941  16.848   6.967   6.901  0.0378  0.1836  0.0820
  874YOPE   D2A 9942  16.865   7.033   7.310 -0.1554  0.2931 -0.2481
  874YOPE   C3A 9943  16.505   7.194   7.575 -0.0080 -0.2094  0.1745
  874YOPE   C4A 9944  16.558   7.295   7.955 -0.0854  0.1757  0.1437
  874YOPE   C1B 9945  16.915   6.494   7.168 -0.2277 -0.1007 -0.0050
  874YOPE   C2B 9946  17.012   6.588   7.523  0.1539 -0.1680 -0.3259
  874YOPE   D3B 9947  17.184   6.526   7.977 -0.1546 -0.0531  0.1470
  874YOPE   C4B 9948  17.032   6.316   8.306 -0.1112  0.0708  0.1686
  875YOPE   NH3 9949   6.939  11.726   5.735  0.2259 -0.0092  0.2312
  875YOPE   PO4 9950   6.944  11.270   5.845  0.0791  0.0966 -0.4264
  875YOPE   GL1 9951   6.916  11.588   6.197 -0.0958  0.1048 -0.1948
  875YOPE   GL2 9952   6.694  11.754   6.245 -0.2256  0.0406 -0.0273
  875YOPE   C1A 9953   6.975  11.623   6.700  0.2455 -0.1030  0.1226
  875YOPE   D2A 9954   6.932  11.591   7.164 -0.0553 -0.0168  0.0150
  875YOPE   C3A 9955   6.800  11.204   7.401 -0.1446  0.1325 -0.2587
  875YOPE   C4A 9956   6.640  11.064   7.785 -0.1331  0.0239 -0.1422
  875YOPE   C1B 9957   6.484  11.809   6.600  0.3162 -0.3585 -0.0177
  875YOPE   C2B 9958   6.646  11.944   7.041  0.2175 -0.1176  0.2068
  875YOPE   D3B 9959   6.590  12.100   7.471 -0.1994  0.1875  0.0719
  875YOPE   C4B 9960   6.455  12.450   7.778  0.0579 -0.0761  0.1740
  876YOPE   NH3 9961   9.659   3.048   6.362  0.1806  0.0312 -0.1027
  876YOPE   PO4 9962   9.367   3.332   6.323  0.3586 -0.0428  0.2542
  876YOPE   GL1 9963   9.328   3.223   6.756  0.1769 -0.2620  0.0419
  876YOPE   GL2 9964   9.329   3.458   6.933  0.2559 -0.0980 -0.4736
  876YOPE   C1A 9965   9.380   2.991   7.077 -0.0197 -0.0941  0.0699
  876YOPE   D2A 9966   9.416   2.973   7.588  0.0356 -0.1094  0.1689
  876YOPE   C3A 9967   9.398   2.934   8.008 -0.0776 -0.0400 -0.0550
  876YOPE   C4A 9968   9.538   2.605   8.249 -0.0863 -0.0164 -0.1111
  876YOPE   C1B 9969   9.520   3.495   7.396  0.0563  0.1832 -0.1929
  876YOPE   C2B 9970   9.555   3.419   7.827 -0.0204 -0.2649 -0.2306
  876YOPE   D3B 9971   9.450   3.307   8.280 -0.1153 -0.3063 -0.0954
  876YOPE   C4B 9972   9.517   3.420   8.685 -0.0321 -0.3307 -0.1017
  877YOPE   NH3 9973  14.435   0.360   5.819  0.0784 -0.0303 -0.0020
  877YOPE   PO4 9974  14.492   0.436   6.201  0.1575  0.4035 -0.0214
  877YOPE   GL1 9975  14.336   0.822   6.485  0.1297 -0.2647 -0.0996
  877YOPE   GL2 9976  14.619   0.890   6.726 -0.1985  0.0737  0.2345
  877YOPE   C1A 9977  14.157   0.983   6.891  0.1852 -0.2066 -0.0631
  877YOPE   D2A 9978  13.763   0.884   7.176 -0.0727 -0.0093 -0.1951
  877YOPE   C3A 9979  13.756   0.787   7.640 -0.1105  0.0265  0.0295
  877YOPE   C4A 9980  13.377   0.674   7.915  0.1072  0.2262 -0.0843
  877YOPE   C1B 9981  14.552   0.945   7.214 -0.1763 -0.1978 -0.0514
  877YOPE   C2B 9982  14.509   0.899   7.679 -0.2461  0.0322 -0.0618
  877YOPE   D3B 9983  14.670   0.701   8.124 -0.2188 -0.0942  0.0403
  877YOPE   C4B 9984  14.527   0.631   8.509  0.0745 -0.4375 -0.0922
  878YOPE   NH3 9985   8.168   7.208   6.218  0.2556  0.3067 -0.0655
  878YOPE   PO4 9986   8.423   7.043   6.333  0.4564  0.0318 -0.1134
  878YOPE   GL1 9987   8.286   7.128   6.829 -0.2052  0.0989 -0.2028
  878YOPE   GL2 9988   8.267   6.707   7.022 -0.1468  0.0811 -0.2262
  878YOPE   C1A 9989   8.184   7.151   7.320  0.0039 -0.0746  0.1326
  878YOPE   D2A 9990   8.145   7.215   7.698  0.2400  0.0345  0.2733
  878YOPE   C3A 9991   8.532   7.098   7.958 -0.2538  0.0734  0.0725
  878YOPE   C4A 9992   8.703   6.981   8.341  0.0669 -0.0882  0.1137
  878YOPE   C1B 9993   8.239   6.579   7.420  0.0366 -0.1665  0.0962
  878YOPE   C2B 9994   8.128   6.682   7.774  0.0709 -0.2507  0.0401
  878YOPE   D3B 9995   8.000   6.880   8.112  0.0889 -0.3520  0.1522
  878YOPE   C4B 9996   8.245   7.224   8.352  0.3359 -0.3846  0.0213
  879YOPE   NH3 9997  17.815  14.474   5.815  0.1006 -0.1938 -0.1535
  879YOPE   PO4 9998  17.879  14.348   6.206 -0.2732 -0.1343 -0.2638
  879YOPE   GL1 9999  17.918  14.323   6.654  0.0556  0.0615  0.2042
  879YOPE   GL210000  18.230  14.278   6.759  0.3190 -0.1085 -0.2901
  879YOPE   C1A10001  17.802  14.337   7.085 -0.0783 -0.0032 -0.0369
  879YOPE   D2A10002  17.784  14.282   7.531 -0.0158 -0.2261  0.0421
  879YOPE   C3A10003  18.112  14.471   7.872  0.2117  0.0033  0.3542
  879YOPE   C4A10004  18.383  14.754   7.745 -0.1880 -0.2396  0.1852
  879YOPE   C1B10005  18.104  13.950   7.092  0.1665  0.4377  0.0950
  879YOPE   C2B10006  18.099  13.866   7.509  0.1443 -0.2648 -0.3041
  879YOPE   D3B10007  17.904  13.810   7.856  0.0219 -0.0730  0.0558
  879YOPE   C4B10008  17.856  13.509   8.163  0.0021  0.0894 -0.1648
  880YOPE   NH310009   6.798   7.662   6.168 -0.3428 -0.0500 -0.0110
  880YOPE   PO410010   6.662   7.366   6.137 -0.1271  0.0594  0.1832
  880YOPE   GL110011   6.417   7.370   6.490 -0.1688  0.2374  0.2416
  880YOPE   GL210012   6.595   7.697   6.664 -0.5029 -0.0477  0.1123
  880YOPE   C1A10013   6.223   7.321   6.881  0.1164 -0.0929  0.0200
  880YOPE   D2A10014   6.438   7.302   7.315 -0.1199  0.2558  0.2992
  880YOPE   C3A10015   6.587   7.420   7.691 -0.1924 -0.1034  0.2209
  880YOPE   C4A10016   6.935   7.362   7.878  0.1945  0.0080 -0.0749
  880YOPE   C1B10017   6.435   7.808   7.041  0.2810 -0.1772  0.4072
  880YOPE   C2B10018   6.453   7.824   7.475  0.3244  0.1808 -0.2393
  880YOPE   D3B10019   6.339   7.793   7.926  0.0436  0.0258  0.0135
  880YOPE   C4B10020   5.989   7.572   8.192 -0.1902  0.3759  0.1667
  881YOPE   NH310021  14.773   2.192   6.155  0.4571 -0.1590  0.0358
  881YOPE   PO410022  15.071   2.478   6.228  0.0496  0.0727  0.1773
  881YOPE   GL110023  15.089   2.389   6.591  0.0163  0.0650  0.2412
  881YOPE   GL210024  14.755   2.288   6.635  0.1877  0.1349  0.1929
  881YOPE   C1A10025  15.114   2.507   7.048  0.0866  0.0510 -0.1169
  881YOPE   D2A10026  15.099   2.317   7.409  0.1949  0.0401  0.0380
  881YOPE   C3A10027  15.214   2.556   7.812 -0.3437 -0.0209 -0.1908
  881YOPE   C4A10028  15.110   2.872   8.175  0.0562  0.1819 -0.0261
  881YOPE   C1B10029  14.645   2.412   7.039  0.2207 -0.0092  0.0695
  881YOPE   C2B10030  14.348   2.564   7.297  0.0749 -0.0781 -0.1341
  881YOPE   D3B10031  14.356   2.840   7.565  0.2591 -0.0061 -0.2264
  881YOPE   C4B10032  14.246   2.918   7.936 -0.0282 -0.0331  0.1398
  882YOPE   NH310033  16.616  13.316   6.439 -0.2218  0.0268 -0.1106
  882YOPE   PO410034  16.671  13.731   6.480  0.0731 -0.1231  0.1458
  882YOPE   GL110035  16.536  13.976   6.828  0.0868  0.0684 -0.0397
  882YOPE   GL210036  16.413  14.256   6.791 -0.1943 -0.0987  0.0027
  882YOPE   C1A10037  16.501  14.021   7.293  0.0235  0.2907 -0.1866
  882YOPE   D2A10038  16.375  13.992   7.672  0.2207  0.1865 -0.0496
  882YOPE   C3A10039  16.617  14.345   7.865  0.0394 -0.1448 -0.2160
  882YOPE   C4A10040  16.592  14.667   8.164  0.4660 -0.0916 -0.0398
  882YOPE   C1B10041  16.241  14.462   7.174 -0.1577 -0.3761 -0.0577
  882YOPE   C2B10042  16.209  14.438   7.621  0.1811 -0.0739 -0.3691
  882YOPE   D3B10043  16.176  14.416   8.066 -0.0900  0.0497  0.3306
  882YOPE   C4B10044  16.385  14.114   8.328  0.1832 -0.0580 -0.0225
  883YOPE   NH310045  15.914   7.354   6.561  0.0005  0.1960  0.0216
  883YOPE   PO410046  16.250   7.555   6.351  0.0626  0.0718  0.0403
  883YOPE   GL110047  16.363   7.668   6.770 -0.1805 -0.0662 -0.2144
  883YOPE   GL210048  16.047   7.703   6.854  0.1454 -0.1261  0.0468
  883YOPE   C1A10049  16.749   7.539   7.121 -0.1969 -0.1601 -0.2235
  883YOPE   D2A10050  16.898   7.553   7.515  0.0313 -0.2054 -0.2812
  883YOPE   C3A10051  16.892   7.660   7.920  0.0614  0.0377 -0.1394
  883YOPE   C4A10052  17.249   7.749   8.233  0.1129  0.2373 -0.1574
  883YOPE   C1B10053  16.117   7.502   7.218  0.2672  0.0190  0.2420
  883YOPE   C2B10054  16.032   7.519   7.644 -0.0115  0.1057  0.0040
  883YOPE   D3B10055  16.072   7.359   8.105 -0.0889  0.0106  0.0660
  883YOPE   C4B10056  16.393   7.426   8.391 -0.0517 -0.1242 -0.3110
  884YOPE   NH310057  16.121   8.041   6.371  0.1751 -0.1187  0.0669
  884YOPE   PO410058  15.871   8.331   6.449 -0.5131  0.0246 -0.2929
  884YOPE   GL110059  15.890   8.349   6.858  0.2209  0.3700  0.2017
  884YOPE   GL210060  16.111   8.227   6.879  0.3123  0.2813  0.1882
  884YOPE   C1A10061  15.851   8.433   7.383 -0.0839  0.1153 -0.0113
  884YOPE   D2A10062  15.969   8.698   7.699  0.0067  0.0411 -0.0574
  884YOPE   C3A10063  15.646   8.759   7.994  0.3393  0.2058 -0.0968
  884YOPE   C4A10064  15.271   8.621   8.117 -0.0881 -0.1248  0.0818
  884YOPE   C1B10065  16.335   7.967   7.153  0.2948  0.1995 -0.4230
  884YOPE   C2B10066  16.422   7.720   7.515 -0.1268 -0.0867 -0.0099
  884YOPE   D3B10067  16.352   7.756   8.005 -0.2543 -0.3377 -0.0731
  884YOPE   C4B10068  15.876   7.777   8.074  0.1524  0.1269 -0.0444
  885YOPE   NH310069   1.409   7.042   6.261  0.1013 -0.1232  0.2867
  885YOPE   PO410070   1.008   6.717   6.390 -0.2710  0.1126 -0.0064
  885YOPE   GL110071   0.838   6.815   6.743 -0.1946 -0.1984 -0.3840
  885YOPE   GL210072   0.691   7.146   6.662  0.0787  0.0803  0.1156
  885YOPE   C1A10073   0.875   6.700   7.131 -0.1680 -0.1603 -0.1518
  885YOPE   D2A10074   0.722   6.265   7.415 -0.0940 -0.2706  0.0352
  885YOPE   C3A10075   0.298   6.182   7.638  0.3312 -0.1612  0.1151
  885YOPE   C4A10076   0.144   6.188   7.967 -0.1110 -0.0696 -0.1236
  885YOPE   C1B10077   0.886   7.213   7.120 -0.3183 -0.0377  0.1134
  885YOPE   C2B10078   1.102   7.228   7.455  0.2360 -0.2045  0.0302
  885YOPE   D3B10079   1.177   7.505   7.783 -0.1405  0.0820 -0.2135
  885YOPE   C4B10080   1.539   7.566   8.027 -0.2645 -0.2669  0.1981
  886YOPE   NH310081  17.054  10.681   6.412  0.1974 -0.3068 -0.4922
  886YOPE   PO410082  17.467  10.863   6.397 -0.0733  0.0404  0.0758
  886YOPE   GL110083  17.939  10.918   6.564  0.1285 -0.0670  0.0478
  886YOPE   GL210084  18.060  11.286   6.518 -0.2803  0.0885 -0.1708
  886YOPE   C1A10085  18.243  10.901   6.867 -0.5505  0.0699  0.1724
  886YOPE   D2A10086  18.550  11.112   7.111 -0.2262 -0.3841 -0.0754
  886YOPE   C3A10087  18.447  10.917   7.331  0.3393 -0.0808 -0.1185
  886YOPE   C4A10088  18.488  10.930   7.758  0.0993 -0.1321 -0.1813
  886YOPE   C1B10089  17.772  11.203   6.948 -0.0049 -0.0964 -0.5619
  886YOPE   C2B10090  17.800  11.406   7.309  0.3159  0.0189 -0.0971
  886YOPE   D3B10091  17.692  11.858   7.274  0.0142  0.0140 -0.0584
  886YOPE   C4B10092  17.885  12.203   7.270 -0.0258  0.2194 -0.3601
  887YOPE   NH310093  15.107   7.842   6.569  0.0278  0.0952 -0.0183
  887YOPE   PO410094  15.389   7.393   6.570 -0.2678  0.1588 -0.1829
  887YOPE   GL110095  15.646   7.426   6.976 -0.0788 -0.0816 -0.2554
  887YOPE   GL210096  15.738   7.102   7.030 -0.0628 -0.0015 -0.2348
  887YOPE   C1A10097  15.495   7.569   7.382 -0.3591 -0.2940 -0.0176
  887YOPE   D2A10098  15.540   7.514   7.827  0.0374 -0.2097  0.1801
  887YOPE   C3A10099  15.385   7.572   8.280  0.5378 -0.0172  0.0139
  887YOPE   C4A10100  15.055   7.409   8.465 -0.0151  0.0831 -0.2100
  887YOPE   C1B10101  15.853   7.134   7.440  0.3454  0.2551  0.0338
  887YOPE   C2B10102  16.100   6.983   7.817  0.2174 -0.3209 -0.3118
  887YOPE   D3B10103  16.366   6.958   8.256 -0.0912  0.3620 -0.1538
  887YOPE   C4B10104  16.851   6.793   8.333  0.0342 -0.3673 -0.0581
  888YOPE   NH310105   2.054  17.982   5.854 -0.0154 -0.3923  0.1658
  888YOPE   PO410106   1.897  18.306   6.110 -0.0895 -0.1060  0.0021
  888YOPE   GL110107   1.826  18.197   6.498 -0.1551  0.0066  0.0467
  888YOPE   GL210108   1.609  18.382   6.606  0.1319  0.2117 -0.3064
  888YOPE   C1A10109   1.929  17.980   6.798 -0.1515 -0.3449 -0.1671
  888YOPE   D2A10110   1.974  18.011   7.295  0.1782 -0.0147 -0.0250
  888YOPE   C3A10111   2.353  18.068   7.466  0.0179  0.1416  0.2931
  888YOPE   C4A10112   2.554  17.695   7.648 -0.1713  0.2409  0.1408
  888YOPE   C1B10113   1.670  18.391   7.002  0.1225  0.0121 -0.0851
  888YOPE   C2B10114   1.639  18.521   7.353 -0.2408 -0.1398  0.0220
  888YOPE   D3B10115   1.786  18.642   7.686  0.0583 -0.2941  0.0883
  888YOPE   C4B10116   1.762  18.411   8.164 -0.0386  0.3276 -0.1056
  889YOPE   NH310117   2.011   2.048   6.419 -0.1406 -0.0673  0.0582
  889YOPE   PO410118   1.575   2.095   6.276 -0.0260  0.2106 -0.1071
  889YOPE   GL110119   1.361   2.028   6.699  0.0014 -0.3566  0.3159
  889YOPE   GL210120   1.181   1.789   6.751 -0.3203 -0.0634 -0.0429
  889YOPE   C1A10121   1.284   2.349   6.984 -0.3279  0.0367  0.1402
  889YOPE   D2A10122   0.950   2.710   7.179 -0.1768 -0.1087 -0.0048
  889YOPE   C3A10123   0.969   2.905   7.514  0.0667  0.0263 -0.0886
  889YOPE   C4A10124   1.030   2.991   7.923  0.0688  0.0531 -0.0287
  889YOPE   C1B10125   1.139   1.736   7.142  0.0246 -0.1141  0.1502
  889YOPE   C2B10126   0.977   1.568   7.642 -0.1215 -0.0632 -0.1783
  889YOPE   D3B10127   0.688   1.240   7.884  0.0060  0.0547  0.1459
  889YOPE   C4B10128   0.644   0.833   7.853  0.0433 -0.1108  0.2507
  890YOPE   NH310129  18.489   7.469   6.322 -0.2512 -0.1295  0.4686
  890YOPE   PO410130  18.891   7.354   6.305  0.0711  0.0915  0.0387
  890YOPE   GL110131  18.868   7.703   6.588 -0.1316 -0.1372  0.4050
  890YOPE   GL210132  19.205   7.869   6.612  0.1748 -0.0685  0.3027
  890YOPE   C1A10133  18.739   7.864   6.941 -0.0344  0.2241 -0.2737
  890YOPE   D2A10134  18.968   7.988   7.335  0.0638  0.0806 -0.0264
  890YOPE   C3A10135  18.683   7.811   7.652  0.0987  0.0634 -0.1524
  890YOPE   C4A10136  18.447   7.524   7.492 -0.2626  0.1989  0.1924
  890YOPE   C1B10137  19.218   7.668   6.970  0.0814  0.0860 -0.0490
  890YOPE   C2B10138  19.349   7.666   7.388  0.0260  0.0314 -0.1877
  890YOPE   D3B10139  19.233   7.688   7.775 -0.3503 -0.2159  0.1512
  890YOPE   C4B10140  19.293   7.630   8.160 -0.2026 -0.1561  0.0893
  891YOPE   NH310141   2.456  11.146   5.987 -0.0264 -0.0475  0.0412
  891YOPE   PO410142   2.064  11.331   5.971 -0.0427  0.3911  0.4277
  891YOPE   GL110143   1.770  11.123   6.175  0.2473  0.1014 -0.1758
  891YOPE   GL210144   1.552  11.368   6.081 -0.5606  0.2009  0.4177
  891YOPE   C1A10145   1.550  10.769   6.228  0.1248  0.0704  0.0068
  891YOPE   D2A10146   1.408  10.431   6.490  0.2930  0.1847  0.1069
  891YOPE   C3A10147   1.580  10.029   6.752 -0.0558  0.0777  0.2501
  891YOPE   C4A10148   1.771   9.937   7.198 -0.2304 -0.3285  0.0322
  891YOPE   C1B10149   1.263  11.661   6.462  0.0075  0.2250  0.0464
  891YOPE   C2B10150   0.764  11.797   6.789  0.0379  0.4459  0.1551
  891YOPE   D3B10151   0.450  12.173   6.758 -0.0116  0.2528 -0.1932
  891YOPE   C4B10152   0.095  12.204   6.811 -0.2359 -0.1056 -0.2426
  892YOPE   NH310153  17.217   9.978   6.073 -0.3093  0.2810  0.0510
  892YOPE   PO410154  17.357  10.233   6.312 -0.0824 -0.2807 -0.0861
  892YOPE   GL110155  17.352  10.446   6.688 -0.0417 -0.0933  0.0382
  892YOPE   GL210156  17.738  10.487   6.703 -0.1253 -0.0478  0.4921
  892YOPE   C1A10157  17.577  10.314   7.106  0.3112  0.2184  0.2910
  892YOPE   D2A10158  17.722  10.257   7.411 -0.1262  0.2020 -0.0370
  892YOPE   C3A10159  17.525  10.180   7.832 -0.3463 -0.2175 -0.1481
  892YOPE   C4A10160  17.584  10.201   8.266  0.1247  0.2229  0.0647
  892YOPE   C1B10161  17.856  10.698   7.095 -0.1070 -0.1879  0.0568
  892YOPE   C2B10162  17.866  10.900   7.373 -0.1092 -0.4059  0.0046
  892YOPE   D3B10163  17.952  10.645   7.733  0.2305 -0.1377  0.0025
  892YOPE   C4B10164  18.034  10.317   7.993  0.2940  0.1343  0.3806
  893YOPE   NH310165  10.053  10.982   6.168  0.2398 -0.5884  0.0837
  893YOPE   PO410166  10.243  11.432   6.171 -0.2650  0.1003 -0.0000
  893YOPE   GL110167   9.896  11.403   6.498 -0.0507 -0.0871 -0.0955
  893YOPE   GL210168   9.656  11.232   6.444 -0.0231 -0.2380  0.2336
  893YOPE   C1A10169   9.571  11.775   6.712  0.1986  0.0345 -0.1112
  893YOPE   D2A10170   9.260  11.761   6.941 -0.4035 -0.2156  0.0721
  893YOPE   C3A10171   9.062  11.473   7.248 -0.2025 -0.0770 -0.0578
  893YOPE   C4A10172   8.682  11.392   7.582 -0.1560 -0.0563  0.0376
  893YOPE   C1B10173   9.450  11.232   6.887 -0.0394 -0.0359 -0.0273
  893YOPE   C2B10174   9.529  11.451   7.221  0.0611 -0.3321 -0.4677
  893YOPE   D3B10175   9.694  11.575   7.663  0.2419  0.0518 -0.0473
  893YOPE   C4B10176   9.901  11.519   8.114 -0.2538 -0.0167  0.0472
  894YOPE   NH310177  17.098   7.477   6.254  0.1395  0.2520  0.0197
  894YOPE   PO410178  17.021   7.070   6.318 -0.1590 -0.0160 -0.0391
  894YOPE   GL110179  17.291   6.881   6.603 -0.0245 -0.1623 -0.0623
  894YOPE   GL210180  17.450   7.161   6.573 -0.1186 -0.1349 -0.0987
  894YOPE   C1A10181  17.374   6.799   7.084 -0.0232 -0.1721 -0.2378
  894YOPE   D2A10182  17.510   6.744   7.483  0.1474  0.3185  0.1532
  894YOPE   C3A10183  17.674   6.726   7.962  0.0776 -0.1374 -0.1955
  894YOPE   C4A10184  17.619   6.278   8.159 -0.1685 -0.1024  0.1011
  894YOPE   C1B10185  17.292   7.252   6.971 -0.1604 -0.3785 -0.3036
  894YOPE   C2B10186  17.358   7.193   7.434  0.0956 -0.0953  0.0180
  894YOPE   D3B10187  17.054   7.046   7.771 -0.0037  0.2969 -0.1504
  894YOPE   C4B10188  16.686   6.783   7.854 -0.3926 -0.0411  0.0856
  895YOPE   NH310189  12.035   5.873   6.629  0.2103  0.2135  0.0372
  895YOPE   PO410190  11.758   5.547   6.783 -0.3498  0.3105 -0.2551
  895YOPE   GL110191  11.614   5.690   7.129  0.2394 -0.1279  0.3607
  895YOPE   GL210192  11.253   5.710   7.169  0.0553 -0.2595 -0.3893
  895YOPE   C1A10193  11.553   5.528   7.526 -0.2725 -0.1470 -0.1196
  895YOPE   D2A10194  11.694   5.311   7.901 -0.2664 -0.1983 -0.1269
  895YOPE   C3A10195  11.380   5.203   8.265  0.0110  0.1752  0.0961
  895YOPE   C4A10196  11.101   5.415   8.610 -0.0096 -0.1533 -0.1025
  895YOPE   C1B10197  10.939   5.707   7.481 -0.3057 -0.1782  0.2889
  895YOPE   C2B10198  10.732   5.661   7.878 -0.3578 -0.0367  0.4126
  895YOPE   D3B10199  10.726   5.608   8.368 -0.1198 -0.2977 -0.0460
  895YOPE   C4B10200  10.500   5.391   8.763 -0.0000 -0.2675 -0.3111
  896YOPE   NH310201   7.796   3.811   6.150  0.1865  0.2539 -0.0523
  896YOPE   PO410202   8.246   3.738   6.172 -0.1009  0.1952 -0.2616
  896YOPE   GL110203   8.340   3.551   6.547  0.1579  0.0250  0.1805
  896YOPE   GL210204   8.564   3.583   6.853  0.1389  0.0295 -0.0125
  896YOPE   C1A10205   8.103   3.433   7.024 -0.2452  0.0225  0.0004
  896YOPE   D2A10206   8.058   3.215   7.306  0.1409  0.0497 -0.5161
  896YOPE   C3A10207   8.297   3.336   7.563 -0.0974  0.0618 -0.2227
  896YOPE   C4A10208   8.408   3.175   7.914 -0.0839 -0.1266 -0.0846
  896YOPE   C1B10209   8.733   3.500   7.216 -0.1381  0.1121  0.0543
  896YOPE   C2B10210   8.729   3.649   7.605 -0.0590  0.1064 -0.2876
  896YOPE   D3B10211   8.549   3.631   8.084 -0.0010 -0.1995  0.0110
  896YOPE   C4B10212   8.354   3.585   8.452  0.0397  0.0973 -0.0296
  897YOPE   NH310213   2.012   1.145   6.370 -0.3607 -0.4057  0.0661
  897YOPE   PO410214   2.382   0.911   6.246  0.0673 -0.1903 -0.2549
  897YOPE   GL110215   2.296   0.689   6.666 -0.0315 -0.2024 -0.1814
  897YOPE   GL210216   2.030   0.685   6.575  0.2253 -0.0319  0.0427
  897YOPE   C1A10217   2.434   0.583   7.071  0.1687 -0.1774 -0.2877
  897YOPE   D2A10218   2.419   0.694   7.529  0.0361 -0.0062  0.1992
  897YOPE   C3A10219   2.171   0.472   7.844 -0.0400 -0.3150  0.0635
  897YOPE   C4A10220   2.022   0.423   8.257  0.2525 -0.1612 -0.0965
  897YOPE   C1B10221   1.943   0.464   6.994  0.0634  0.0678 -0.4427
  897YOPE   C2B10222   1.883   0.541   7.382  0.0857 -0.0615  0.2836
  897YOPE   D3B10223   1.982   0.982   7.609 -0.0379 -0.1610  0.2376
  897YOPE   C4B10224   1.942   1.387   7.518 -0.1315  0.0614 -0.2653
  898YOPE   NH310225  11.790  18.019   5.888 -0.0116  0.0252 -0.1528
  898YOPE   PO410226  11.881  17.583   5.876 -0.1177  0.0744 -0.2660
  898YOPE   GL110227  11.942  17.587   6.325 -0.0341  0.2646  0.1377
  898YOPE   GL210228  11.962  17.242   6.417 -0.3286  0.0123 -0.1692
  898YOPE   C1A10229  12.035  17.661   6.825  0.1369 -0.2494 -0.1141
  898YOPE   D2A10230  11.920  17.541   7.256  0.1282 -0.2769  0.1821
  898YOPE   C3A10231  12.144  17.801   7.471 -0.1047 -0.0036  0.3045
  898YOPE   C4A10232  12.317  18.050   7.803 -0.1780 -0.0698 -0.2937
  898YOPE   C1B10233  12.096  17.189   6.806 -0.0411  0.1066  0.1434
  898YOPE   C2B10234  12.216  17.128   7.227 -0.1920 -0.2025 -0.0654
  898YOPE   D3B10235  12.443  17.330   7.516  0.0746 -0.0965  0.0884
  898YOPE   C4B10236  12.774  17.284   7.763  0.2478 -0.0254  0.0355
  899YOPE   NH310237   2.615   5.762   5.949  0.1593  0.1812 -0.1647
  899YOPE   PO410238   2.248   6.035   6.042  0.1057  0.0868 -0.0451
  899YOPE   GL110239   2.032   6.128   6.344  0.0786  0.2366 -0.3323
  899YOPE   GL210240   1.912   6.319   6.334  0.2874 -0.2090  0.1653
  899YOPE   C1A10241   2.176   6.336   6.753  0.0012  0.3276 -0.0355
  899YOPE   D2A10242   2.463   6.660   6.694 -0.0381  0.0159 -0.0864
  899YOPE   C3A10243   2.731   6.592   7.110  0.2191  0.0899  0.1844
  899YOPE   C4A10244   2.883   6.475   7.555  0.2102  0.3791  0.2798
  899YOPE   C1B10245   1.747   6.330   6.810  0.0709  0.1478 -0.1938
  899YOPE   C2B10246   1.756   6.359   7.123 -0.4351  0.1294 -0.0453
  899YOPE   D3B10247   1.947   6.442   7.567 -0.0922 -0.2318 -0.4638
  899YOPE   C4B10248   1.806   6.674   7.944 -0.2077 -0.0194  0.3098
  900YOPE   NH310249   3.455  18.021   6.167 -0.1865 -0.2625 -0.2719
  900YOPE   PO410250   2.962  17.759   6.178  0.0448 -0.0812  0.1663
  900YOPE   GL110251   2.935  17.909   6.452  0.4006 -0.1267 -0.2431
  900YOPE   GL210252   2.894  18.270   6.365  0.0040 -0.1034  0.2325
  900YOPE   C1A10253   3.134  17.907   6.818 -0.3745 -0.2335  0.1311
  900YOPE   D2A10254   3.026  17.939   7.309 -0.0912  0.0156 -0.1146
  900YOPE   C3A10255   3.161  17.657   7.710  0.3474 -0.0043  0.1546
  900YOPE   C4A10256   3.076  17.622   8.057  0.1253 -0.1011 -0.1876
  900YOPE   C1B10257   2.756  18.270   6.723 -0.0622  0.0285  0.0794
  900YOPE   C2B10258   2.696  18.321   7.207  0.0802 -0.0023 -0.2501
  900YOPE   D3B10259   2.776  18.244   7.667  0.1568  0.0098 -0.1524
  900YOPE   C4B10260   2.749  18.019   8.029  0.0863 -0.2731  0.2546
  901YOPE   NH310261  12.860  10.990   6.464 -0.4859  0.1459 -0.2252
  901YOPE   PO410262  13.068  11.357   6.556  0.3484  0.0306  0.1874
  901YOPE   GL110263  13.017  11.629   6.950 -0.1119  0.1764 -0.1150
  901YOPE   GL210264  13.270  11.436   7.048 -0.2177 -0.1879  0.2379
  901YOPE   C1A10265  13.000  11.702   7.343  0.1377  0.2934  0.0833
  901YOPE   D2A10266  12.875  11.915   7.694  0.0152  0.0124 -0.1421
  901YOPE   C3A10267  13.014  11.730   8.049  0.0570 -0.2133 -0.0648
  901YOPE   C4A10268  13.123  11.328   8.248  0.0493  0.2052 -0.0758
  901YOPE   C1B10269  13.488  11.666   7.403  0.0456  0.2458  0.0101
  901YOPE   C2B10270  13.424  11.930   7.710  0.1714 -0.1795 -0.1966
  901YOPE   D3B10271  13.456  12.054   8.153 -0.0286  0.5117  0.1820
  901YOPE   C4B10272  13.524  12.403   8.378  0.0392  0.1171 -0.3506
  902YOPE   NH310273   1.588  17.609   5.515  0.0028 -0.1854 -0.3337
  902YOPE   PO410274   1.960  17.457   5.873 -0.0634 -0.2942  0.0460
  902YOPE   GL110275   1.974  17.464   6.354  0.0521 -0.0541 -0.0494
  902YOPE   GL210276   2.208  17.411   6.599  0.1242 -0.0475  0.2921
  902YOPE   C1A10277   1.699  17.586   6.651  0.2578 -0.2366 -0.2193
  902YOPE   D2A10278   1.648  17.675   7.157  0.2581  0.1197 -0.0253
  902YOPE   C3A10279   1.715  17.583   7.546  0.1142 -0.5782 -0.0775
  902YOPE   C4A10280   1.475  17.500   7.891  0.1351 -0.1706  0.1598
  902YOPE   C1B10281   2.105  17.566   6.965  0.1494 -0.0837 -0.1414
  902YOPE   C2B10282   2.176  17.518   7.350 -0.1545  0.1558  0.5158
  902YOPE   D3B10283   2.154  17.502   7.746 -0.0232 -0.3765  0.0681
  902YOPE   C4B10284   2.078  17.421   8.157 -0.0342 -0.1474  0.0784
  903YOPE   NH310285   9.919   5.274   6.548 -0.1941  0.0319  0.1178
  903YOPE   PO410286   9.883   5.749   6.470 -0.1855  0.2765 -0.1734
  903YOPE   GL110287  10.066   5.722   6.867  0.2036  0.0643  0.1956
  903YOPE   GL210288  10.301   6.029   6.818  0.1080 -0.3557  0.1445
  903YOPE   C1A10289  10.029   5.567   7.201 -0.2226  0.3872 -0.0856
  903YOPE   D2A10290  10.127   5.243   7.523 -0.0610  0.0607 -0.1596
  903YOPE   C3A10291   9.893   5.138   7.940 -0.0089  0.1685 -0.0920
  903YOPE   C4A10292   9.734   5.315   8.293  0.0389 -0.0984 -0.3417
  903YOPE   C1B10293  10.299   6.209   7.262 -0.4124  0.2260 -0.0152
  903YOPE   C2B10294  10.212   6.474   7.632  0.3192 -0.1232 -0.0450
  903YOPE   D3B10295  10.060   6.306   7.959 -0.0279  0.1869  0.3082
  903YOPE   C4B10296   9.732   6.186   8.184  0.1443 -0.1448 -0.3269
  904YOPE   NH310297  10.282  14.157   5.582 -0.1069  0.1997  0.0218
  904YOPE   PO410298   9.842  14.183   5.697  0.1427 -0.1131 -0.0632
  904YOPE   GL110299   9.941  14.544   6.068  0.1678 -0.0226  0.0960
  904YOPE   GL210300   9.674  14.381   6.250  0.0007 -0.2656  0.0791
  904YOPE   C1A10301  10.034  14.733   6.500  0.1565 -0.0798  0.3058
  904YOPE   D2A10302  10.353  14.748   6.890  0.2687  0.2450  0.0274
  904YOPE   C3A10303  10.246  14.421   7.264  0.0124  0.1099  0.0068
  904YOPE   C4A10304   9.976  14.101   7.567 -0.0936 -0.2534  0.0715
  904YOPE   C1B10305   9.906  14.279   6.588  0.0153  0.3040  0.0599
  904YOPE   C2B10306   9.857  14.561   6.930 -0.1170 -0.0091 -0.0880
  904YOPE   D3B10307   9.542  14.826   7.082  0.0264  0.0852 -0.2929
  904YOPE   C4B10308   9.513  15.186   7.457  0.4735 -0.0622  0.2981
  905YOPE   NH310309   2.162   8.477   6.297  0.0025 -0.1540  0.1405
  905YOPE   PO410310   2.281   8.211   6.589  0.2140 -0.1741 -0.1030
  905YOPE   GL110311   1.857   8.350   6.786  0.1639  0.0102  0.1440
  905YOPE   GL210312   1.647   8.255   6.607 -0.1417 -0.0981 -0.1319
  905YOPE   C1A10313   1.727   8.197   7.157 -0.2804 -0.0073 -0.2792
  905YOPE   D2A10314   1.845   8.169   7.500  0.2582  0.0071  0.0113
  905YOPE   C3A10315   1.833   7.849   7.625  0.1195 -0.2401 -0.0914
  905YOPE   C4A10316   2.117   7.612   7.699 -0.1290 -0.1022 -0.0011
  905YOPE   C1B10317   1.764   7.869   6.753  0.0116 -0.0356 -0.0360
  905YOPE   C2B10318   1.692   7.678   7.187  0.1928 -0.0907  0.0511
  905YOPE   D3B10319   1.693   7.346   7.533 -0.1982 -0.3369  0.0341
  905YOPE   C4B10320   2.004   7.136   7.814 -0.0603 -0.2575  0.4964
  906YOPE   NH310321  16.295  12.458   6.629  0.2338 -0.3292 -0.4536
  906YOPE   PO410322  16.700  12.692   6.444  0.0928  0.0176  0.0746
  906YOPE   GL110323  16.817  13.010   6.821  0.1380  0.3166 -0.0206
  906YOPE   GL210324  17.091  12.961   6.952 -0.2428  0.1654 -0.3677
  906YOPE   C1A10325  16.653  13.091   7.172  0.1521 -0.0203 -0.2369
  906YOPE   D2A10326  16.615  12.977   7.615  0.1796  0.0925 -0.2326
  906YOPE   C3A10327  16.647  12.808   8.061 -0.0086 -0.0404 -0.0487
  906YOPE   C4A10328  16.763  12.942   8.475  0.1208  0.3266  0.1958
  906YOPE   C1B10329  17.157  12.860   7.359  0.0640  0.3470  0.3371
  906YOPE   C2B10330  17.078  12.976   7.792  0.1764  0.0183 -0.1173
  906YOPE   D3B10331  17.133  13.097   8.218  0.2540  0.0677 -0.2776
  906YOPE   C4B10332  17.362  13.488   8.370 -0.0873  0.4961  0.0985
  907YOPE   NH310333  12.949   3.681   6.097 -0.2203 -0.2722  0.2191
  907YOPE   PO410334  12.828   3.430   6.497  0.1014  0.0725  0.3878
  907YOPE   GL110335  12.669   3.764   6.747 -0.1468 -0.2297 -0.3714
  907YOPE   GL210336  12.382   3.830   6.936  0.1970 -0.0922  0.1795
  907YOPE   C1A10337  12.775   4.129   6.918 -0.1483  0.0348 -0.3819
  907YOPE   D2A10338  12.833   4.279   7.322  0.5645  0.4526 -0.1682
  907YOPE   C3A10339  12.688   3.988   7.661 -0.2194 -0.0729  0.0735
  907YOPE   C4A10340  12.397   3.857   7.914 -0.4202 -0.3551  0.2840
  907YOPE   C1B10341  12.705   3.650   7.273 -0.3069  0.0075 -0.0637
  907YOPE   C2B10342  12.930   3.355   7.398  0.0220 -0.1874 -0.2954
  907YOPE   D3B10343  12.917   3.007   7.630  0.2164  0.2157 -0.2769
  907YOPE   C4B10344  12.620   2.824   8.033 -0.0473  0.1355 -0.1278
  908YOPE   NH310345  17.889  13.813   6.333 -0.0921 -0.0357 -0.0540
  908YOPE   PO410346  17.414  13.567   6.281  0.0710  0.2466  0.2599
  908YOPE   GL110347  17.187  13.670   6.713  0.1301 -0.0744  0.0464
  908YOPE   GL210348  16.893  13.522   6.856  0.0840 -0.1195 -0.0011
  908YOPE   C1A10349  16.948  13.873   7.157  0.0662 -0.0069  0.0874
  908YOPE   D2A10350  16.925  14.030   7.623  0.0636  0.0471 -0.1512
  908YOPE   C3A10351  17.219  14.224   7.795 -0.1352 -0.1100 -0.3452
  908YOPE   C4A10352  17.503  14.241   7.972  0.1495  0.0747  0.1554
  908YOPE   C1B10353  17.059  13.395   7.190  0.1358 -0.2365 -0.0616
  908YOPE   C2B10354  17.026  13.513   7.550 -0.3829  0.1425  0.3320
  908YOPE   D3B10355  16.814  13.367   7.981 -0.1616 -0.0444 -0.2383
  908YOPE   C4B10356  16.842  13.413   8.462 -0.4215 -0.0005  0.0419
  909YOPE   NH310357  12.561  14.570   6.199 -0.1380 -0.0867 -0.0352
  909YOPE   PO410358  12.427  14.971   6.183 -0.3060 -0.2880 -0.3570
  909YOPE   GL110359  12.048  14.906   6.482 -0.0950 -0.0619 -0.4291
  909YOPE   GL210360  11.729  14.914   6.344 -0.1899  0.0775  0.2626
  909YOPE   C1A10361  11.794  14.898   6.825  0.0811 -0.0397  0.1053
  909YOPE   D2A10362  11.762  14.825   7.287  0.0553  0.0585 -0.0509
  909YOPE   C3A10363  11.420  14.725   7.398  0.2989  0.1321  0.3978
  909YOPE   C4A10364  11.227  14.698   7.765  0.0885 -0.2100 -0.1369
  909YOPE   C1B10365  11.383  14.831   6.583  0.1864  0.0564  0.2753
  909YOPE   C2B10366  11.268  15.156   6.938 -0.0594 -0.1279 -0.0424
  909YOPE   D3B10367  11.463  15.279   7.442 -0.1061  0.2040  0.0449
  909YOPE   C4B10368  11.543  15.203   7.961  0.1293  0.1577  0.0003
  910YOPE   NH310369  14.570   3.670   6.315 -0.2158  0.3215  0.0123
  910YOPE   PO410370  14.775   3.333   6.182 -0.2747  0.1327 -0.0969
  910YOPE   GL110371  14.863   3.261   6.568 -0.3135 -0.1442  0.2299
  910YOPE   GL210372  15.186   3.211   6.656 -0.1756 -0.2811 -0.0257
  910YOPE   C1A10373  14.677   3.356   6.916  0.2436  0.1133  0.0873
  910YOPE   D2A10374  14.696   3.345   7.447  0.2423  0.2704 -0.0344
  910YOPE   C3A10375  14.533   3.294   7.882 -0.0568 -0.1039 -0.0260
  910YOPE   C4A10376  14.698   3.106   8.386 -0.0186 -0.1460  0.0447
  910YOPE   C1B10377  15.167   3.130   7.085  0.2478 -0.0644  0.1266
  910YOPE   C2B10378  15.237   3.011   7.462  0.0716  0.2382 -0.1449
  910YOPE   D3B10379  15.594   2.877   7.821  0.1571  0.0862 -0.0140
  910YOPE   C4B10380  15.585   2.662   8.246  0.0069  0.0081 -0.2568
  911YOPE   NH310381   4.546   5.692   6.042 -0.0101 -0.1790  0.0063
  911YOPE   PO410382   4.872   6.015   5.965 -0.1836  0.1544  0.1462
  911YOPE   GL110383   4.872   6.080   6.357 -0.2262 -0.2230  0.3717
  911YOPE   GL210384   4.879   5.656   6.392 -0.1550 -0.2229 -0.1712
  911YOPE   C1A10385   4.696   6.476   6.673 -0.1727  0.0381 -0.0806
  911YOPE   D2A10386   4.896   6.771   6.913 -0.3010 -0.1572  0.0440
  911YOPE   C3A10387   4.833   6.934   7.300 -0.0036 -0.0980 -0.0473
  911YOPE   C4A10388   4.487   7.013   7.615 -0.3092  0.2535 -0.1705
  911YOPE   C1B10389   4.726   5.914   6.795 -0.1244 -0.4141  0.3282
  911YOPE   C2B10390   4.811   6.129   7.114 -0.0843  0.0704  0.1495
  911YOPE   D3B10391   5.031   6.054   7.432  0.0482  0.0497 -0.0091
  911YOPE   C4B10392   5.459   6.116   7.372 -0.2134  0.0520  0.0760
  912YOPE   NH310393   9.060   5.885   6.181 -0.3657 -0.1612  0.0219
  912YOPE   PO410394   9.152   6.321   6.206 -0.2603 -0.0788  0.2915
  912YOPE   GL110395   9.144   6.148   6.659  0.1858  0.1258  0.1539
  912YOPE   GL210396   9.334   5.850   6.687  0.1260  0.1122 -0.1167
  912YOPE   C1A10397   9.246   6.011   7.147  0.0263  0.0302  0.2022
  912YOPE   D2A10398   9.283   5.845   7.508 -0.0508  0.1944 -0.0977
  912YOPE   C3A10399   9.334   6.026   7.788 -0.0259  0.2105  0.2611
  912YOPE   C4A10400   9.225   6.220   8.201 -0.0172  0.0961 -0.2300
  912YOPE   C1B10401   9.598   5.658   6.992  0.3062 -0.1508  0.1874
  912YOPE   C2B10402   9.613   5.459   7.487  0.4337  0.0956 -0.2818
  912YOPE   D3B10403   9.438   5.313   7.855 -0.1568 -0.0717 -0.0996
  912YOPE   C4B10404   9.260   5.298   8.257  0.2343 -0.0839  0.0082
  913YOPE   NH310405   9.133  12.464   6.054 -0.0002 -0.1808 -0.3242
  913YOPE   PO410406   9.200  12.873   5.856 -0.2594  0.0567  0.1857
  913YOPE   GL110407   9.042  13.001   6.257 -0.2062 -0.2361 -0.0352
  913YOPE   GL210408   8.687  13.019   6.318  0.2598 -0.0272  0.2162
  913YOPE   C1A10409   9.105  13.011   6.712  0.2259 -0.1030 -0.1892
  913YOPE   D2A10410   9.004  12.946   7.127  0.0176 -0.1094  0.2555
  913YOPE   C3A10411   9.298  13.087   7.265 -0.0576 -0.3098  0.2492
  913YOPE   C4A10412   9.569  13.227   7.628  0.2375  0.3321 -0.2337
  913YOPE   C1B10413   8.634  13.212   6.729 -0.0109 -0.0746 -0.1047
  913YOPE   C2B10414   8.773  13.377   7.041 -0.1432 -0.1138  0.3452
  913YOPE   D3B10415   8.745  13.835   7.198  0.0355  0.1492 -0.0490
  913YOPE   C4B10416   8.885  14.081   7.379  0.0607  0.0996  0.0627
  914YOPE   NH310417  10.818   7.416   6.483  0.2230 -0.1380  0.2266
  914YOPE   PO410418  10.430   7.376   6.605  0.0457  0.2446  0.1339
  914YOPE   GL110419  10.469   7.353   6.986 -0.1889 -0.3525 -0.2703
  914YOPE   GL210420  10.701   7.243   7.146  0.1556  0.0846 -0.0671
  914YOPE   C1A10421  10.207   7.174   7.421  0.3644  0.0535 -0.5017
  914YOPE   D2A10422  10.058   6.991   7.815 -0.0809 -0.1884 -0.1287
  914YOPE   C3A10423  10.049   7.203   8.125  0.3195 -0.0848  0.0563
  914YOPE   C4A10424  10.270   7.512   8.376 -0.1906 -0.1128  0.0226
  914YOPE   C1B10425  10.678   7.368   7.603  0.2672 -0.0595 -0.2186
  914YOPE   C2B10426  10.568   7.230   8.036 -0.4345  0.0955  0.1391
  914YOPE   D3B10427  10.765   7.375   8.341  0.1762  0.0219  0.1413
  914YOPE   C4B10428  10.694   7.624   8.645  0.2770  0.0443  0.1679
  915YOPE   NH310429   6.475  16.903   5.938 -0.1104 -0.0658 -0.0832
  915YOPE   PO410430   6.502  16.477   5.903 -0.2730  0.5300  0.1736
  915YOPE   GL110431   6.476  16.172   6.248  0.1869 -0.0164  0.3051
  915YOPE   GL210432   6.525  15.974   6.213 -0.0007 -0.0179 -0.3322
  915YOPE   C1A10433   6.395  16.256   6.735 -0.1627  0.0048 -0.1793
  915YOPE   D2A10434   6.213  15.981   7.062  0.0682  0.3601  0.3262
  915YOPE   C3A10435   6.378  15.989   7.431  0.0213 -0.1236 -0.2829
  915YOPE   C4A10436   6.648  16.206   7.805  0.1415 -0.0502  0.2233
  915YOPE   C1B10437   6.084  15.951   6.510  0.2105 -0.0511  0.0877
  915YOPE   C2B10438   5.774  15.882   6.831 -0.0273  0.1949 -0.0672
  915YOPE   D3B10439   5.650  15.780   7.227 -0.2445  0.0910  0.3539
  915YOPE   C4B10440   5.487  15.708   7.626  0.0917 -0.0299  0.3572
  916YOPE   NH310441  16.270  17.923   5.870  0.2551  0.1943 -0.0352
  916YOPE   PO410442  16.546  18.220   5.864 -0.1307 -0.0357  0.0163
  916YOPE   GL110443  16.744  17.997   6.160  0.2639 -0.0213  0.1791
  916YOPE   GL210444  16.411  17.908   6.384  0.2974 -0.1193 -0.0191
  916YOPE   C1A10445  16.849  17.987   6.669 -0.1408  0.0408 -0.2500
  916YOPE   D2A10446  16.911  17.731   6.998 -0.0193 -0.1765  0.1457
  916YOPE   C3A10447  16.870  17.814   7.517  0.2288  0.0264  0.1309
  916YOPE   C4A10448  16.621  18.090   7.888 -0.0600 -0.0552  0.2909
  916YOPE   C1B10449  16.348  17.902   6.792 -0.0231  0.0199  0.0171
  916YOPE   C2B10450  16.532  18.130   7.157  0.0091 -0.0459  0.2840
  916YOPE   D3B10451  16.611  18.268   7.466  0.1296 -0.0423  0.1547
  916YOPE   C4B10452  16.813  18.634   7.703 -0.2246 -0.2777  0.1980
  917YOPE   NH310453   2.866  15.378   6.114 -0.0714  0.1711 -0.0992
  917YOPE   PO410454   2.845  15.868   6.246  0.1522 -0.0227  0.0873
  917YOPE   GL110455   2.751  15.591   6.647  0.0401 -0.0111  0.0573
  917YOPE   GL210456   2.869  15.357   6.692 -0.0904  0.0165  0.1542
  917YOPE   C1A10457   2.724  15.763   7.050  0.1674  0.1162 -0.2001
  917YOPE   D2A10458   2.496  16.065   7.279 -0.1848  0.0486  0.2598
  917YOPE   C3A10459   2.302  15.989   7.699  0.3907  0.0795  0.1099
  917YOPE   C4A10460   2.168  15.918   8.134  0.2224  0.1591  0.1541
  917YOPE   C1B10461   2.655  15.237   7.033  0.0965  0.2586  0.1327
  917YOPE   C2B10462   2.494  15.072   7.489 -0.2840  0.0994  0.1160
  917YOPE   D3B10463   2.369  14.611   7.668 -0.0955 -0.1632  0.0152
  917YOPE   C4B10464   2.097  14.184   7.771 -0.2893  0.1318  0.1252
  918YOPE   NH310465   8.950   4.045   6.209 -0.1681 -0.0880  0.2386
  918YOPE   PO410466   9.362   4.144   6.379 -0.0326 -0.1599  0.0151
  918YOPE   GL110467   9.354   4.034   6.792  0.0750  0.2834  0.1199
  918YOPE   GL210468   9.747   3.965   6.948 -0.0953 -0.0040  0.2922
  918YOPE   C1A10469   9.321   4.238   7.114 -0.3652 -0.0120  0.0705
  918YOPE   D2A10470   9.226   4.381   7.473  0.2018  0.1166  0.0337
  918YOPE   C3A10471   9.242   4.296   7.972 -0.0884 -0.3199 -0.2634
  918YOPE   C4A10472   9.087   4.172   8.343 -0.0181  0.0386  0.4676
  918YOPE   C1B10473   9.880   3.825   7.331 -0.2079  0.2066  0.1047
  918YOPE   C2B10474   9.950   3.672   7.715  0.0807  0.0321  0.0162
  918YOPE   D3B10475  10.007   3.486   8.060 -0.0145  0.0106 -0.1320
  918YOPE   C4B10476  10.043   3.587   8.467  0.0806  0.1504  0.1268
  919YOPE   NH310477   9.384   9.895   6.179  0.2296  0.0333  0.0552
  919YOPE   PO410478   9.141  10.223   5.983  0.1700  0.3151  0.0129
  919YOPE   GL110479   9.122  10.293   6.424 -0.0990 -0.2833 -0.0209
  919YOPE   GL210480   9.341  10.214   6.641  0.0160 -0.1597  0.1349
  919YOPE   C1A10481   8.801  10.303   6.744  0.2526  0.0163 -0.2029
  919YOPE   D2A10482   8.323  10.382   6.854  0.0726  0.0652  0.0586
  919YOPE   C3A10483   8.040  10.674   6.907 -0.2685 -0.3221  0.1242
  919YOPE   C4A10484   7.806  10.994   7.205  0.1345  0.1812 -0.0806
  919YOPE   C1B10485   9.185  10.134   7.051 -0.1464 -0.0886  0.1456
  919YOPE   C2B10486   9.030  10.053   7.520  0.2145  0.0923  0.0184
  919YOPE   D3B10487   8.962   9.811   7.838  0.0319  0.4042  0.1365
  919YOPE   C4B10488   9.012   9.491   8.238  0.1061 -0.0199  0.2183
  920YOPE   NH310489  17.885  15.839   5.380  0.5553  0.0658 -0.0493
  920YOPE   PO410490  18.021  15.928   5.861 -0.0579 -0.4161  0.1868
  920YOPE   GL110491  18.348  15.807   6.143 -0.2951  0.0603 -0.1720
  920YOPE   GL210492  18.134  16.025   6.430  0.1917 -0.0525  0.1458
  920YOPE   C1A10493  18.255  15.530   6.374 -0.1069 -0.2483 -0.0253
  920YOPE   D2A10494  18.456  15.184   6.636  0.2266  0.3829 -0.2066
  920YOPE   C3A10495  18.307  15.178   7.043  0.4373  0.2236 -0.0772
  920YOPE   C4A10496  18.235  15.119   7.466  0.0791 -0.2436  0.0771
  920YOPE   C1B10497  18.294  16.117   6.743  0.0096 -0.2455 -0.0823
  920YOPE   C2B10498  18.490  16.430   6.946  0.0187 -0.0407 -0.0183
  920YOPE   D3B10499  18.830  16.539   7.196 -0.0651  0.1079 -0.0124
  920YOPE   C4B10500  19.147  16.850   7.171 -0.0763 -0.2169  0.1914
  921YOPE   NH310501  11.102  16.298   6.027 -0.1546 -0.1643 -0.0432
  921YOPE   PO410502  10.960  15.951   5.896  0.0233  0.0881  0.1292
  921YOPE   GL110503  10.872  15.920   6.346  0.3032  0.3380  0.0656
  921YOPE   GL210504  11.211  15.880   6.381 -0.0821  0.1020 -0.1468
  921YOPE   C1A10505  10.697  15.754   6.678 -0.0306 -0.0069  0.0914
  921YOPE   D2A10506  10.456  15.791   6.964  0.1171  0.0089  0.0527
  921YOPE   C3A10507  10.521  15.595   7.298 -0.0139 -0.2517  0.0860
  921YOPE   C4A10508  10.453  15.392   7.692 -0.0146  0.0274 -0.0224
  921YOPE   C1B10509  11.077  16.098   6.752  0.3316  0.2399 -0.1380
  921YOPE   C2B10510  11.083  16.467   6.981 -0.2965  0.1071 -0.2136
  921YOPE   D3B10511  10.760  16.842   7.115  0.2164 -0.2847 -0.1602
  921YOPE   C4B10512  10.511  16.770   7.479  0.2120  0.0694 -0.0015
  922YOPE   NH310513  11.124   6.578   6.604  0.1633  0.2177 -0.0774
  922YOPE   PO410514  11.182   6.214   6.413  0.1468 -0.0028  0.0191
  922YOPE   GL110515  11.277   6.177   6.940  0.1780  0.2832  0.0448
  922YOPE   GL210516  11.415   6.509   7.031  0.0177  0.0689  0.0689
  922YOPE   C1A10517  11.114   6.162   7.315 -0.0773  0.0465 -0.3941
  922YOPE   D2A10518  11.054   6.162   7.739  0.2776  0.3059 -0.2423
  922YOPE   C3A10519  10.934   6.466   7.968  0.1204  0.0326  0.1026
  922YOPE   C4A10520  11.044   6.825   7.994 -0.0010 -0.1440  0.0462
  922YOPE   C1B10521  11.346   6.553   7.571  0.3999 -0.2293  0.0922
  922YOPE   C2B10522  11.429   6.456   8.002  0.0988 -0.4381  0.0217
  922YOPE   D3B10523  11.514   6.434   8.520 -0.0544  0.1851  0.1949
  922YOPE   C4B10524  11.822   6.649   8.756 -0.1206  0.3783  0.3491
  923YOPE   NH310525  16.820  11.647   6.479  0.0519  0.4181  0.0407
  923YOPE   PO410526  17.268  11.889   6.489 -0.0066  0.1998  0.3337
  923YOPE   GL110527  17.044  12.100   6.716 -0.0277 -0.1032  0.0353
  923YOPE   GL210528  16.683  12.012   6.732  0.0699 -0.3350 -0.1883
  923YOPE   C1A10529  17.217  12.111   7.152  0.1110 -0.2075  0.1455
  923YOPE   D2A10530  17.253  11.995   7.603 -0.2746  0.0363 -0.0986
  923YOPE   C3A10531  17.628  11.953   7.876 -0.1166 -0.1253 -0.1206
  923YOPE   C4A10532  17.730  12.316   7.967 -0.0660 -0.1552  0.1044
  923YOPE   C1B10533  16.692  12.038   7.138 -0.0658 -0.0475 -0.1025
  923YOPE   C2B10534  16.710  11.988   7.655  0.3592 -0.1056  0.3220
  923YOPE   D3B10535  16.641  11.897   8.206 -0.2722 -0.0249 -0.1656
  923YOPE   C4B10536  16.916  11.966   8.525  0.0827  0.0942 -0.3382
  924YOPE   NH310537   2.930  10.640   6.154 -0.2025  0.0875 -0.1738
  924YOPE   PO410538   2.479  10.664   6.007  0.0143 -0.3091 -0.0760
  924YOPE   GL110539   2.240  10.597   6.389  0.0663  0.2921  0.2075
  924YOPE   GL210540   1.902  10.686   6.497 -0.2263 -0.0568 -0.0401
  924YOPE   C1A10541   2.360  10.600   6.789  0.2794  0.1080  0.1797
  924YOPE   D2A10542   2.424  10.218   7.070  0.3096 -0.0772 -0.0312
  924YOPE   C3A10543   2.470  10.258   7.429  0.0620 -0.1447  0.1725
  924YOPE   C4A10544   2.652  10.189   7.757  0.0433 -0.0027 -0.5445
  924YOPE   C1B10545   1.576  10.732   6.874 -0.1550 -0.0408 -0.0922
  924YOPE   C2B10546   1.449  10.812   7.301  0.0853  0.1464  0.0527
  924YOPE   D3B10547   1.415  10.695   7.835  0.1552  0.0107 -0.0020
  924YOPE   C4B10548   1.738  10.687   8.141 -0.0428  0.0255  0.2350
  925YOPE   NH310549  12.051   7.460   6.307  0.1802 -0.3497  0.0758
  925YOPE   PO410550  12.224   7.788   6.240  0.3722  0.1774 -0.1959
  925YOPE   GL110551  11.836   7.991   6.426  0.3688  0.1891 -0.3796
  925YOPE   GL210552  11.880   7.876   6.666  0.0709  0.1479 -0.0492
  925YOPE   C1A10553  11.866   8.366   6.758 -0.0341  0.2899  0.2758
  925YOPE   D2A10554  11.703   8.120   7.108  0.1421 -0.0289  0.0796
  925YOPE   C3A10555  11.355   8.093   7.320 -0.2533 -0.0524 -0.1169
  925YOPE   C4A10556  11.145   8.184   7.648  0.1670  0.1954 -0.0668
  925YOPE   C1B10557  12.182   8.111   7.049 -0.1167  0.0577 -0.0983
  925YOPE   C2B10558  12.197   8.420   7.316 -0.0186 -0.1984 -0.0055
  925YOPE   D3B10559  12.143   8.799   7.639 -0.1247  0.1675  0.1658
  925YOPE   C4B10560  12.161   9.138   7.940 -0.2893  0.1436 -0.1522
  926YOPE   NH310561   2.231  13.083   5.661  0.0462 -0.3458 -0.4008
  926YOPE   PO410562   2.027  13.172   5.986 -0.2250  0.0586  0.2802
  926YOPE   GL110563   2.145  13.367   6.147 -0.0262 -0.1436 -0.0178
  926YOPE   GL210564   2.089  13.688   5.965  0.0413  0.0573  0.0558
  926YOPE   C1A10565   2.191  13.431   6.643  0.2711  0.4156  0.0204
  926YOPE   D2A10566   2.325  13.550   7.111 -0.3589  0.1496 -0.1550
  926YOPE   C3A10567   2.107  13.269   7.377  0.1337  0.1062 -0.1285
  926YOPE   C4A10568   1.938  13.157   7.763 -0.1190 -0.0928  0.1044
  926YOPE   C1B10569   2.086  13.839   6.376  0.0822  0.2258  0.0835
  926YOPE   C2B10570   2.036  14.006   6.950 -0.1139  0.2536  0.2810
  926YOPE   D3B10571   2.020  13.895   7.333  0.1584  0.0410 -0.1805
  926YOPE   C4B10572   1.948  13.690   7.723 -0.0964 -0.1078  0.1240
  927YOPE   NH310573   3.324   3.078   6.438  0.1147 -0.1257 -0.1659
  927YOPE   PO410574   3.725   3.235   6.417 -0.1298  0.1761  0.0545
  927YOPE   GL110575   3.623   2.969   6.817  0.0717 -0.3359  0.0565
  927YOPE   GL210576   3.366   2.898   6.951 -0.1601 -0.0173 -0.0413
  927YOPE   C1A10577   3.713   3.140   7.216  0.3244  0.0957  0.0571
  927YOPE   D2A10578   3.686   3.172   7.651  0.1615  0.1833  0.2047
  927YOPE   C3A10579   3.697   3.467   7.859  0.1154  0.0676  0.0896
  927YOPE   C4A10580   3.529   3.836   7.848  0.3341  0.0187 -0.5755
  927YOPE   C1B10581   3.345   2.611   7.314 -0.2879  0.0308  0.0223
  927YOPE   C2B10582   3.437   2.449   7.582  0.3513 -0.1130 -0.1679
  927YOPE   D3B10583   3.501   2.531   7.923  0.1463 -0.4242 -0.2388
  927YOPE   C4B10584   3.554   2.723   8.352 -0.1205 -0.3644  0.0394
  928YOPE   NH310585  12.324  15.761   6.257  0.0976 -0.2140 -0.0184
  928YOPE   PO410586  12.613  15.489   6.046 -0.0466  0.1046 -0.1547
  928YOPE   GL110587  12.699  15.432   6.531 -0.0678 -0.1100  0.2939
  928YOPE   GL210588  12.365  15.290   6.635  0.0473 -0.1756  0.0102
  928YOPE   C1A10589  12.707  15.554   7.075 -0.1166 -0.1778  0.0426
  928YOPE   D2A10590  12.903  15.552   7.470 -0.0003 -0.3052 -0.0415
  928YOPE   C3A10591  13.349  15.640   7.523  0.1757  0.0112 -0.2194
  928YOPE   C4A10592  13.803  15.657   7.563 -0.0823 -0.0983 -0.2737
  928YOPE   C1B10593  12.304  15.277   7.044 -0.2488 -0.0179 -0.1558
  928YOPE   C2B10594  12.449  15.278   7.477  0.0809 -0.0237  0.1236
  928YOPE   D3B10595  12.763  15.280   7.821 -0.2484  0.0882 -0.2964
  928YOPE   C4B10596  12.906  15.210   8.130 -0.2290 -0.3811 -0.0695
  929YOPE   NH310597  10.005   8.007   6.583 -0.2193 -0.2029 -0.0144
  929YOPE   PO410598   9.887   8.476   6.478 -0.1513 -0.0364 -0.1305
  929YOPE   GL110599  10.022   8.693   6.785  0.2329 -0.1439 -0.1887
  929YOPE   GL210600   9.785   8.832   6.907 -0.1974  0.2366 -0.3218
  929YOPE   C1A10601  10.420   8.590   7.096 -0.0634  0.0687  0.2413
  929YOPE   D2A10602  10.613   8.729   7.492 -0.2079 -0.2305  0.1576
  929YOPE   C3A10603  10.639   8.399   7.818  0.0290 -0.3604 -0.0763
  929YOPE   C4A10604  10.900   8.229   8.158  0.2239 -0.2238  0.3203
  929YOPE   C1B10605   9.886   8.713   7.278  0.0003 -0.2137 -0.2386
  929YOPE   C2B10606  10.083   8.801   7.528 -0.4802 -0.0228 -0.2651
  929YOPE   D3B10607  10.365   8.977   7.814  0.2981  0.0163 -0.1655
  929YOPE   C4B10608  10.374   8.743   8.147 -0.0863 -0.0132 -0.1732
  930YOPE   NH310609   9.754  17.017   5.769  0.0757 -0.4394  0.0459
  930YOPE   PO410610  10.032  16.649   5.729  0.1295 -0.0590  0.1253
  930YOPE   GL110611   9.951  16.770   6.213 -0.0676  0.0817 -0.1645
  930YOPE   GL210612  10.299  16.730   6.357  0.0822  0.1794  0.1359
  930YOPE   C1A10613   9.678  16.599   6.550 -0.0868  0.0318  0.2670
  930YOPE   D2A10614   9.694  16.645   6.971  0.0269 -0.2566  0.3087
  930YOPE   C3A10615   9.377  16.507   7.291  0.1150 -0.0085  0.2591
  930YOPE   C4A10616   9.107  16.269   7.562  0.0246 -0.1159  0.1351
  930YOPE   C1B10617  10.103  16.357   6.558  0.0002 -0.2382  0.2763
  930YOPE   C2B10618  10.025  16.049   6.853  0.1905  0.3491 -0.0030
  930YOPE   D3B10619  10.048  15.865   7.269 -0.3710 -0.1618 -0.3161
  930YOPE   C4B10620  10.225  15.888   7.675  0.1757 -0.1085  0.2647
  931YOPE   NH310621   6.718   2.566   5.869  0.1696 -0.4035  0.0019
  931YOPE   PO410622   6.354   2.745   5.873 -0.0132 -0.0459  0.4015
  931YOPE   GL110623   6.269   2.542   6.287  0.1912 -0.1283 -0.3049
  931YOPE   GL210624   5.906   2.477   6.404  0.1671  0.0628 -0.1799
  931YOPE   C1A10625   6.403   2.400   6.698  0.0118 -0.1611  0.2565
  931YOPE   D2A10626   6.494   2.558   7.069  0.1220  0.2013 -0.0083
  931YOPE   C3A10627   6.331   2.361   7.499  0.1409  0.1502 -0.1886
  931YOPE   C4A10628   6.267   1.932   7.709  0.3084 -0.0303  0.1145
  931YOPE   C1B10629   5.617   2.360   6.720  0.1571 -0.0183  0.1167
  931YOPE   C2B10630   5.558   2.317   7.126  0.2686 -0.1926 -0.0861
  931YOPE   D3B10631   5.409   2.511   7.470 -0.0773  0.2431  0.1467
  931YOPE   C4B10632   5.508   2.562   7.856 -0.1243 -0.1930  0.0110
  932YOPE   NH310633   2.519  12.128   5.727  0.1203 -0.0354 -0.1049
  932YOPE   PO410634   2.242  12.000   6.061 -0.0879  0.1243  0.0968
  932YOPE   GL110635   2.235  12.100   6.535 -0.0889  0.0987  0.3205
  932YOPE   GL210636   1.976  12.118   6.750  0.2317  0.0247 -0.1777
  932YOPE   C1A10637   2.346  11.992   7.030 -0.3324  0.0727 -0.0791
  932YOPE   D2A10638   2.638  11.993   7.371 -0.0870  0.0448  0.2607
  932YOPE   C3A10639   2.545  11.725   7.718 -0.3178 -0.0694 -0.0921
  932YOPE   C4A10640   2.183  11.787   8.077 -0.0775  0.3608  0.3117
  932YOPE   C1B10641   1.897  11.741   7.108  0.0114  0.3220  0.1221
  932YOPE   C2B10642   1.614  11.712   7.315  0.1398  0.0323 -0.0381
  932YOPE   D3B10643   1.481  11.793   7.766 -0.1002 -0.2222  0.3353
  932YOPE   C4B10644   1.701  11.895   8.151 -0.0085  0.1896 -0.0517
  933YOPE   NH310645   1.913  12.344   6.233  0.1364  0.0012  0.1302
  933YOPE   PO410646   1.541  12.098   5.961 -0.0438 -0.4235 -0.0060
  933YOPE   GL110647   1.527  12.097   6.405  0.2291 -0.2188 -0.0200
  933YOPE   GL210648   1.505  12.351   6.648  0.5523 -0.1609 -0.0292
  933YOPE   C1A10649   1.508  11.890   6.825 -0.1363  0.0009 -0.1012
  933YOPE   D2A10650   1.134  11.775   7.149 -0.0174  0.0084  0.1196
  933YOPE   C3A10651   0.984  11.862   7.640  0.0201  0.0286 -0.3086
  933YOPE   C4A10652   0.506  11.865   7.743  0.3870 -0.0165  0.0155
  933YOPE   C1B10653   1.570  12.256   7.135  0.0646 -0.2893  0.0754
  933YOPE   C2B10654   1.385  12.246   7.492  0.1810 -0.0729  0.1418
  933YOPE   D3B10655   1.101  12.330   7.720  0.2851 -0.1640 -0.0132
  933YOPE   C4B10656   0.887  12.095   8.106 -0.0333  0.0802 -0.2197
  934YOPE   NH310657   9.935   1.804   5.660  0.0375 -0.2543  0.1994
  934YOPE   PO410658  10.128   1.729   6.047  0.0728  0.1994 -0.0749
  934YOPE   GL110659  10.242   1.583   6.444  0.1351 -0.0109  0.0061
  934YOPE   GL210660  10.050   1.844   6.546 -0.1743  0.1508 -0.3182
  934YOPE   C1A10661  10.413   1.675   6.833 -0.1150  0.1514  0.2235
  934YOPE   D2A10662  10.596   1.417   7.210 -0.4091 -0.1209  0.0661
  934YOPE   C3A10663  10.569   1.556   7.659 -0.1488 -0.2020 -0.3448
  934YOPE   C4A10664  10.393   1.868   7.961 -0.0939 -0.0923  0.2070
  934YOPE   C1B10665   9.980   1.788   7.008 -0.2853 -0.0882 -0.5026
  934YOPE   C2B10666  10.186   1.647   7.378 -0.0587  0.1322 -0.3873
  934YOPE   D3B10667  10.070   1.413   7.735  0.3520 -0.2974  0.0430
  934YOPE   C4B10668  10.172   1.057   7.941 -0.0723  0.0771  0.0669
  935YOPE   NH310669  15.502   1.408   6.319  0.3518  0.0095 -0.2432
  935YOPE   PO410670  15.422   1.161   6.033  0.0457 -0.1274 -0.2284
  935YOPE   GL110671  15.220   0.912   6.295  0.1377 -0.0575  0.0969
  935YOPE   GL210672  15.171   1.022   6.565  0.1821 -0.1717  0.0115
  935YOPE   C1A10673  15.364   0.588   6.418 -0.4175 -0.2104 -0.0809
  935YOPE   D2A10674  15.741   0.532   6.734  0.1043 -0.2316 -0.0406
  935YOPE   C3A10675  15.707   0.777   7.104  0.0138 -0.1134 -0.1492
  935YOPE   C4A10676  15.659   0.700   7.541  0.1299  0.0405  0.0006
  935YOPE   C1B10677  15.259   0.872   6.911 -0.2812  0.0352  0.0418
  935YOPE   C2B10678  15.074   0.850   7.337 -0.1489 -0.1313 -0.0624
  935YOPE   D3B10679  15.133   1.021   7.798  0.2764 -0.3968 -0.2360
  935YOPE   C4B10680  14.782   1.116   7.994  0.0375 -0.1833 -0.0329
  936YOPE   NH310681   0.380   8.189   6.434  0.1881 -0.2148  0.1170
  936YOPE   PO410682   0.268   8.556   6.319 -0.0394  0.0872  0.0880
  936YOPE   GL110683   0.359   8.565   6.827 -0.0550 -0.1657 -0.0535
  936YOPE   GL210684   0.590   8.295   6.936 -0.0813  0.4056  0.1896
  936YOPE   C1A10685   0.359   8.467   7.306 -0.4219  0.3796 -0.0891
  936YOPE   D2A10686   0.300   8.256   7.759 -0.0565  0.1266 -0.1118
  936YOPE   C3A10687  -0.011   8.271   8.163  0.1440 -0.0221  0.0017
  936YOPE   C4A10688  -0.012   7.939   8.569  0.2446 -0.2885  0.2453
  936YOPE   C1B10689   0.836   8.279   7.366  0.2180  0.0871  0.2771
  936YOPE   C2B10690   0.850   8.136   7.733  0.1362  0.1811  0.0102
  936YOPE   D3B10691   0.720   8.149   8.206 -0.1154  0.2099  0.3703
  936YOPE   C4B10692   0.504   8.018   8.550 -0.1570  0.0209  0.0335
  937YOPE   NH310693   6.538   9.008   6.157 -0.3233  0.0045  0.1491
  937YOPE   PO410694   6.334   9.387   6.125  0.4074 -0.0627 -0.1763
  937YOPE   GL110695   6.131   9.362   6.494  0.1472  0.0431 -0.3053
  937YOPE   GL210696   5.931   9.539   6.494 -0.0093 -0.2519 -0.1260
  937YOPE   C1A10697   6.213   9.360   6.911 -0.1029 -0.1033  0.1640
  937YOPE   D2A10698   5.878   9.416   7.177  0.0619 -0.0802 -0.0599
  937YOPE   C3A10699   5.900   9.414   7.623  0.1597  0.0595 -0.0315
  937YOPE   C4A10700   5.869   9.532   7.998 -0.0632 -0.0766 -0.3091
  937YOPE   C1B10701   5.664   9.698   6.790 -0.0004 -0.1932  0.0038
  937YOPE   C2B10702   5.517   9.817   7.221 -0.2700  0.3606  0.2093
  937YOPE   D3B10703   5.887   9.915   7.567  0.3547  0.0382 -0.1364
  937YOPE   C4B10704   5.798  10.027   8.003 -0.0982  0.2032  0.3048
  938YOPE   NH310705   2.709  12.980   5.741  0.0002 -0.0731 -0.0308
  938YOPE   PO410706   2.553  13.438   5.824 -0.0901  0.2554 -0.1272
  938YOPE   GL110707   2.591  13.140   6.198  0.0558 -0.1787  0.0093
  938YOPE   GL210708   2.793  12.946   6.182 -0.2412  0.1812  0.1592
  938YOPE   C1A10709   2.692  13.245   6.575  0.2754  0.1220  0.0100
  938YOPE   D2A10710   2.900  13.319   7.009 -0.0644 -0.1578  0.0372
  938YOPE   C3A10711   2.768  13.467   7.339 -0.0950  0.1929  0.1091
  938YOPE   C4A10712   2.428  13.496   7.635  0.0330  0.2952 -0.1614
  938YOPE   C1B10713   2.911  12.796   6.546  0.0822  0.0289 -0.5999
  938YOPE   C2B10714   2.891  12.806   6.904  0.0140  0.2247  0.3414
  938YOPE   D3B10715   3.034  12.798   7.230 -0.1126  0.0145 -0.2268
  938YOPE   C4B10716   3.063  12.927   7.646 -0.0748  0.0543  0.1599
  939POPC   NC310717   7.303   4.570   6.067  0.0462  0.0634  0.0010
  939POPC   PO410718   7.580   4.251   6.346  0.4374 -0.3944  0.0378
  939POPC   GL110719   7.419   4.026   6.702  0.3746  0.0304  0.0537
  939POPC   GL210720   7.161   3.798   6.738 -0.1969  0.0115 -0.1781
  939POPC   C1A10721   7.664   4.157   7.167  0.1307  0.1306 -0.2137
  939POPC   D2A10722   7.802   4.090   7.594  0.1655 -0.3885 -0.1541
  939POPC   C3A10723   7.601   3.843   7.900 -0.0176 -0.0904  0.0604
  939POPC   C4A10724   7.333   3.482   7.800  0.0123  0.1369  0.0337
  939POPC   C1B10725   7.181   3.916   7.167  0.0102  0.3622  0.2568
  939POPC   C2B10726   7.307   3.930   7.479  0.0252  0.2173 -0.3444
  939POPC   C3B10727   6.940   3.710   7.767 -0.1450  0.0447 -0.1163
  939POPC   C4B10728   6.487   3.954   7.862 -0.3568  0.2344  0.3396
  940POPC   NC310729  18.298  11.176   6.116 -0.0819  0.0446  0.0259
  940POPC   PO410730  18.216  11.629   6.181  0.2154 -0.2408 -0.0341
  940POPC   GL110731  18.410  11.648   6.575  0.1348 -0.1638 -0.2020
  940POPC   GL210732  18.818  11.658   6.581 -0.1681 -0.2812  0.0084
  940POPC   C1A10733  18.635  11.734   7.059  0.0075  0.1777  0.1452
  940POPC   D2A10734  18.749  11.422   7.403  0.0565 -0.2784  0.0786
  940POPC   C3A10735  18.735  11.366   7.818 -0.3658 -0.0361  0.0213
  940POPC   C4A10736  18.876  11.051   8.162  0.0592 -0.1005  0.0427
  940POPC   C1B10737  19.025  11.369   6.817  0.2050  0.1494 -0.1566
  940POPC   C2B10738  19.331  11.411   7.242  0.1350  0.2848 -0.1518
  940POPC   C3B10739  19.250  11.382   7.649  0.1357 -0.3568 -0.2086
  940POPC   C4B10740  19.322  11.302   7.973  0.1868 -0.3305  0.8610
  941POPC   NC310741   4.515   0.924   5.924 -0.0565 -0.2801  0.1149
  941POPC   PO410742   4.552   1.220   6.383 -0.5098  0.0410  0.2374
  941POPC   GL110743   4.539   1.220   6.811 -0.0713 -0.1107 -0.1562
  941POPC   GL210744   4.328   1.336   6.952  0.1959 -0.0895 -0.0511
  941POPC   C1A10745   4.885   1.030   7.036 -0.2539  0.0609  0.1189
  941POPC   D2A10746   5.247   1.046   7.339 -0.1421  0.1347  0.0035
  941POPC   C3A10747   5.309   1.292   7.708 -0.0964  0.0728 -0.2586
  941POPC   C4A10748   5.505   1.562   8.057 -0.0330  0.0462 -0.2993
  941POPC   C1B10749   4.484   1.391   7.342 -0.1733  0.0167  0.3242
  941POPC   C2B10750   4.620   1.563   7.670 -0.4375 -0.1500 -0.1016
  941POPC   C3B10751   4.625   1.853   7.986 -0.0977  0.0198  0.0230
  941POPC   C4B10752   4.359   2.122   8.206 -0.1393  0.0322  0.2381
  942POPC   NC310753   6.592   1.394   5.550  0.0531 -0.0924 -0.1974
  942POPC   PO410754   7.040   1.295   5.663 -0.1622  0.2162 -0.5069
  942POPC   GL110755   6.939   1.333   6.078  0.1006  0.1311 -0.0145
  942POPC   GL210756   7.115   1.080   6.260  0.3201 -0.0083  0.0169
  942POPC   C1A10757   6.815   1.581   6.375 -0.0254  0.4233  0.1553
  942POPC   D2A10758   6.367   1.927   6.512 -0.1340 -0.0647  0.3904
  942POPC   C3A10759   6.138   1.551   6.649 -0.0614  0.1888  0.0893
  942POPC   C4A10760   5.649   1.596   6.751 -0.0509  0.1136  0.1405
  942POPC   C1B10761   7.034   1.195   6.652 -0.2316 -0.1857 -0.0016
  942POPC   C2B10762   7.123   1.178   7.098  0.0413 -0.0867 -0.1901
  942POPC   C3B10763   7.161   0.891   7.422 -0.1542 -0.2259 -0.2990
  942POPC   C4B10764   7.227   0.624   7.808 -0.3074 -0.0249 -0.1522
  943POPC   NC310765  17.709   6.824   6.296 -0.1369 -0.2105  0.1620
  943POPC   PO410766  17.974   6.447   6.156  0.1628  0.0276 -0.2619
  943POPC   GL110767  18.124   6.486   6.566  0.3963 -0.0835  0.1280
  943POPC   GL210768  18.134   6.199   6.708 -0.1196 -0.0034 -0.4541
  943POPC   C1A10769  18.237   6.655   6.924 -0.0193  0.3295  0.0280
  943POPC   D2A10770  18.525   6.529   7.247  0.0820  0.2414 -0.0969
  943POPC   C3A10771  18.523   6.562   7.683 -0.1170 -0.0695  0.0993
  943POPC   C4A10772  18.505   6.606   8.117 -0.0168  0.0578 -0.0554
  943POPC   C1B10773  18.172   6.168   7.170  0.0964  0.1383 -0.0434
  943POPC   C2B10774  18.209   6.087   7.670 -0.6039 -0.0623 -0.0601
  943POPC   C3B10775  18.138   6.184   8.117  0.0020  0.2203 -0.0074
  943POPC   C4B10776  17.993   6.562   8.388 -0.0919 -0.3641 -0.0634
  944POPC   NC310777  11.186   7.587   5.672 -0.0590 -0.3018 -0.0482
  944POPC   PO410778  10.996   7.812   6.056 -0.1075 -0.1695  0.5512
  944POPC   GL110779  11.121   7.835   6.512 -0.2222  0.2918  0.1372
  944POPC   GL210780  11.372   8.101   6.541 -0.1909 -0.2171  0.1052
  944POPC   C1A10781  11.263   7.790   6.933 -0.1360 -0.0931  0.0598
  944POPC   D2A10782  11.548   7.551   7.132  0.0649  0.1516 -0.2711
  944POPC   C3A10783  11.666   7.720   7.453  0.1409  0.0853 -0.2027
  944POPC   C4A10784  11.734   7.910   7.736  0.2332 -0.0370  0.1791
  944POPC   C1B10785  11.367   8.445   6.913 -0.1748 -0.1801 -0.0357
  944POPC   C2B10786  11.131   8.544   7.334 -0.0292  0.0594 -0.1316
  944POPC   C3B10787  11.175   8.722   7.742 -0.2305  0.2046 -0.3049
  944POPC   C4B10788  10.876   8.815   8.114 -0.2953 -0.1193  0.1508
  945POPC   NC310789  15.244   3.196   6.166  0.0617 -0.1295 -0.0168
  945POPC   PO410790  15.501   3.514   5.916  0.0181  0.2853  0.1864
  945POPC   GL110791  15.512   3.586   6.382  0.1263  0.0159  0.0722
  945POPC   GL210792  15.642   3.404   6.555  0.1647  0.0137  0.2645
  945POPC   C1A10793  15.383   3.903   6.574  0.1286 -0.0595  0.2442
  945POPC   D2A10794  15.173   4.175   6.760  0.2363 -0.2774  0.0603
  945POPC   C3A10795  15.300   4.392   7.095 -0.0900 -0.2691  0.0530
  945POPC   C4A10796  15.255   4.178   7.438  0.1136  0.3027 -0.2127
  945POPC   C1B10797  15.633   3.232   6.893  0.2111  0.1721  0.0624
  945POPC   C2B10798  15.680   3.252   7.285  0.0004 -0.0984 -0.1040
  945POPC   C3B10799  15.733   3.410   7.647  0.3603  0.0498  0.0734
  945POPC   C4B10800  15.685   3.262   8.119 -0.0364 -0.2691  0.2578
  946POPC   NC310801  12.279  17.905   6.008 -0.2461 -0.2884  0.1020
  946POPC   PO410802  12.598  18.196   6.018  0.0158  0.0001 -0.0950
  946POPC   GL110803  12.850  18.395   6.276 -0.0895  0.0895 -0.0115
  946POPC   GL210804  12.760  18.634   6.526 -0.0301 -0.0920  0.2594
  946POPC   C1A10805  13.215  18.420   6.520 -0.0397 -0.4523 -0.1027
  946POPC   D2A10806  13.593  18.522   6.581  0.1645  0.0767  0.0125
  946POPC   C3A10807  13.666  18.753   7.025 -0.4181  0.0063 -0.3712
  946POPC   C4A10808  13.528  18.981   7.384 -0.0276  0.3503 -0.1322
  946POPC   C1B10809  12.779  18.333   6.796  0.1979  0.4836  0.4280
  946POPC   C2B10810  12.623  18.068   6.912  0.3090 -0.1710 -0.1636
  946POPC   C3B10811  12.531  17.970   7.293 -0.0137  0.2281 -0.1186
  946POPC   C4B10812  12.763  17.769   7.713 -0.1477  0.1956  0.0093
  947POPC   NC310813  15.411  16.884   6.028  0.1634 -0.2622 -0.0428
  947POPC   PO410814  15.787  17.120   6.163  0.0032  0.1225  0.1253
  947POPC   GL110815  15.602  17.003   6.518  0.3461  0.0062 -0.1471
  947POPC   GL210816  15.666  16.809   6.586  0.1700  0.0842  0.1532
  947POPC   C1A10817  15.662  16.936   7.020 -0.2770  0.1782  0.0984
  947POPC   D2A10818  15.837  16.731   7.504 -0.0292 -0.0216 -0.2122
  947POPC   C3A10819  16.029  16.406   7.598  0.3854  0.2783 -0.0109
  947POPC   C4A10820  16.336  16.151   7.536  0.2027  0.2951  0.1895
  947POPC   C1B10821  15.909  16.493   6.784  0.1456 -0.0666 -0.0260
  947POPC   C2B10822  16.236  16.519   7.142  0.4190 -0.3215 -0.1850
  947POPC   C3B10823  16.444  16.657   7.506 -0.1061  0.0565 -0.2785
  947POPC   C4B10824  16.714  16.589   7.706 -0.1264 -0.2417 -0.0924
  948POPC   NC310825   3.281   0.545   5.908 -0.4607 -0.2456 -0.3172
  948POPC   PO410826   3.610   0.759   6.171 -0.2802  0.1829 -0.1301
  948POPC   GL110827   3.809   0.642   6.579 -0.1785 -0.3902  0.3126
  948POPC   GL210828   3.893   0.322   6.586  0.4515 -0.1542  0.0316
  948POPC   C1A10829   3.879   0.878   6.950  0.0182 -0.1474 -0.4017
  948POPC   D2A10830   3.833   0.706   7.419  0.2866  0.1876 -0.1196
  948POPC   C3A10831   3.619   0.729   7.782 -0.0118 -0.0017  0.1537
  948POPC   C4A10832   3.642   0.751   8.199 -0.0471 -0.2502 -0.0829
  948POPC   C1B10833   3.985   0.398   7.038 -0.3218 -0.1602 -0.0070
  948POPC   C2B10834   4.038   0.292   7.492 -0.0620 -0.1967  0.3084
  948POPC   C3B10835   4.044   0.490   7.911  0.0729  0.4304 -0.2311
  948POPC   C4B10836   3.764   0.306   8.159 -0.1958  0.1075  0.1744
  949POPC   NC310837   7.668  18.170   5.563  0.1926  0.1165  0.1607
  949POPC   PO410838   7.166  18.157   5.715  0.0899  0.3419 -0.0649
  949POPC   GL110839   7.096  17.944   6.157  0.2800  0.1120 -0.0191
  949POPC   GL210840   6.908  18.090   6.162  0.2542 -0.2334  0.2365
  949POPC   C1A10841   7.208  17.772   6.494  0.0584 -0.0692 -0.1094
  949POPC   D2A10842   7.184  17.683   6.917 -0.0349  0.0041  0.0124
  949POPC   C3A10843   7.358  17.363   7.094  0.1424  0.0827 -0.2208
  949POPC   C4A10844   7.493  17.150   7.506  0.1303  0.3975 -0.0737
  949POPC   C1B10845   6.883  18.119   6.652  0.1037 -0.4586 -0.1881
  949POPC   C2B10846   6.841  18.119   7.092 -0.1067 -0.1076 -0.1489
  949POPC   C3B10847   6.685  18.036   7.461  0.1913  0.2315  0.0055
  949POPC   C4B10848   6.557  17.738   7.653  0.0317  0.0518 -0.1143
  950POPC   NC310849   2.875  11.493   5.682 -0.3279 -0.0133 -0.0171
  950POPC   PO410850   2.461  11.601   5.818  0.1380 -0.3093 -0.1220
  950POPC   GL110851   2.763  11.862   6.087  0.0136  0.0591 -0.0757
  950POPC   GL210852   2.973  11.905   5.877 -0.2204 -0.0748 -0.1226
  950POPC   C1A10853   2.692  11.914   6.486 -0.3231  0.0150 -0.1888
  950POPC   D2A10854   2.810  11.938   6.918  0.4049  0.3375  0.1527
  950POPC   C3A10855   2.775  11.547   7.130  0.1542  0.1233  0.1481
  950POPC   C4A10856   2.397  11.312   7.304 -0.0211 -0.1737  0.0281
  950POPC   C1B10857   3.307  11.779   6.186 -0.4502  0.0506 -0.2323
  950POPC   C2B10858   3.588  11.548   6.456  0.2339 -0.2834 -0.1019
  950POPC   C3B10859   3.614  11.573   6.828 -0.0863 -0.0979  0.1464
  950POPC   C4B10860   3.865  11.705   7.174  0.0922  0.4804 -0.0167
  951POPC   NC310861  17.103   3.017   6.005 -0.2082  0.2622 -0.2781
  951POPC   PO410862  17.522   3.370   6.175  0.0898 -0.0542  0.1463
  951POPC   GL110863  17.576   3.523   6.491 -0.0495  0.1413 -0.2370
  951POPC   GL210864  17.882   3.461   6.548 -0.1920  0.0600  0.0002
  951POPC   C1A10865  17.489   3.512   6.935 -0.0456  0.1810  0.2229
  951POPC   D2A10866  17.451   3.440   7.385  0.0604 -0.1728  0.0117
  951POPC   C3A10867  17.053   3.482   7.604 -0.0346  0.1829 -0.0476
  951POPC   C4A10868  16.946   3.519   8.017  0.0149  0.0471  0.1922
  951POPC   C1B10869  17.969   3.268   6.944 -0.1404  0.0977 -0.1511
  951POPC   C2B10870  17.956   3.275   7.416 -0.0923 -0.0448  0.3284
  951POPC   C3B10871  17.939   3.282   7.812  0.1685  0.2408 -0.3573
  951POPC   C4B10872  18.197   3.576   8.075  0.4510 -0.1383  0.1487
  952POPC   NC310873  17.300  14.448   5.992  0.1559 -0.0115 -0.0119
  952POPC   PO410874  16.899  14.549   6.099 -0.1053 -0.2934 -0.0654
  952POPC   GL110875  16.850  14.504   6.539 -0.2852  0.1996 -0.0639
  952POPC   GL210876  17.005  14.258   6.589  0.2535  0.2732 -0.2478
  952POPC   C1A10877  16.762  14.425   7.038 -0.0697  0.1702  0.0658
  952POPC   D2A10878  16.687  14.481   7.426  0.1722  0.0311  0.1466
  952POPC   C3A10879  16.601  14.860   7.682  0.1350 -0.3875  0.2244
  952POPC   C4A10880  16.751  15.308   7.719  0.0821  0.2144  0.0484
  952POPC   C1B10881  17.318  14.352   6.878  0.2321  0.1761  0.2061
  952POPC   C2B10882  17.324  14.388   7.350  0.0029 -0.1467  0.0628
  952POPC   C3B10883  17.170  14.666   7.667  0.1704 -0.2134  0.3357
  952POPC   C4B10884  17.128  15.003   8.045 -0.1283  0.0167 -0.1244
  953POPC   NC310885  13.227   9.138   5.807  0.0380 -0.0258 -0.2169
  953POPC   PO410886  13.337   8.680   5.906 -0.1723 -0.1645  0.2791
  953POPC   GL110887  13.290   8.547   6.372  0.0591 -0.0658 -0.1161
  953POPC   GL210888  13.205   8.724   6.668  0.1963 -0.0095 -0.1135
  953POPC   C1A10889  13.468   8.322   6.681 -0.0037 -0.2195  0.1822
  953POPC   D2A10890  13.906   8.276   6.841  0.1838  0.2668  0.1008
  953POPC   C3A10891  14.142   7.997   7.099  0.1346  0.4209 -0.0821
  953POPC   C4A10892  14.032   7.742   7.409  0.0540  0.0370  0.1705
  953POPC   C1B10893  12.984   8.454   6.909  0.4027 -0.1760  0.2337
  953POPC   C2B10894  12.830   8.514   7.358 -0.1058 -0.0141 -0.2121
  953POPC   C3B10895  12.563   8.306   7.681  0.1061  0.1144 -0.1205
  953POPC   C4B10896  12.116   8.229   7.801  0.1778  0.0781  0.0023
  954POPC   NC310897  10.476   4.981   6.167  0.2344 -0.1567  0.2186
  954POPC   PO410898  10.071   4.773   6.403  0.1222  0.2028  0.0025
  954POPC   GL110899   9.870   4.764   6.848 -0.0937  0.1945 -0.1138
  954POPC   GL210900   9.765   4.459   7.028  0.1470 -0.2389 -0.2328
  954POPC   C1A10901  10.005   4.804   7.339 -0.2126  0.1202 -0.0445
  954POPC   D2A10902  10.022   4.697   7.774  0.1912  0.2760  0.1587
  954POPC   C3A10903   9.846   4.436   8.109  0.0486 -0.1082  0.0930
  954POPC   C4A10904   9.564   4.358   8.399  0.1333 -0.2180 -0.0986
  954POPC   C1B10905   9.768   4.388   7.480  0.0331 -0.0224  0.0758
  954POPC   C2B10906   9.644   4.100   7.695  0.0801  0.0651  0.1255
  954POPC   C3B10907   9.550   3.891   8.057  0.0101  0.1425  0.0558
  954POPC   C4B10908   9.440   3.775   8.331 -0.1679 -0.4504 -0.2116
  955POPC   NC310909   1.531  14.295   5.473  0.2132 -0.1807 -0.2184
  955POPC   PO410910   1.652  14.007   5.868 -0.2464 -0.1849  0.3092
  955POPC   GL110911   1.702  14.072   6.171  0.1038  0.1275 -0.0616
  955POPC   GL210912   1.505  14.086   6.379  0.1419  0.1463  0.0340
  955POPC   C1A10913   1.922  14.361   6.452  0.2055  0.1688  0.1464
  955POPC   D2A10914   1.851  14.459   6.926 -0.0390 -0.1449 -0.0299
  955POPC   C3A10915   1.558  14.568   7.269 -0.1014 -0.0028  0.0973
  955POPC   C4A10916   1.407  14.710   7.615 -0.1821  0.1955  0.0617
  955POPC   C1B10917   1.487  14.191   6.748  0.2441 -0.0668  0.1267
  955POPC   C2B10918   1.568  14.096   7.146  0.2448 -0.1280 -0.1793
  955POPC   C3B10919   1.548  14.153   7.621 -0.0413 -0.2365  0.1445
  955POPC   C4B10920   1.587  13.932   8.086 -0.2428  0.0287  0.3152
  956POPC   NC310921  12.581  13.192   6.251  0.2445  0.1377  0.2104
  956POPC   PO410922  13.002  13.084   6.306  0.1010 -0.0459  0.0932
  956POPC   GL110923  12.942  12.878   6.728  0.1345 -0.1420 -0.0725
  956POPC   GL210924  12.567  12.705   6.733  0.1326  0.1794  0.0714
  956POPC   C1A10925  12.808  12.653   7.135  0.0277  0.0446 -0.0017
  956POPC   D2A10926  12.781  12.759   7.603 -0.1240  0.0211  0.1314
  956POPC   C3A10927  13.017  13.028   8.003 -0.1816  0.0824 -0.0002
  956POPC   C4A10928  13.312  13.078   8.172  0.0524 -0.0240  0.1449
  956POPC   C1B10929  12.310  12.419   6.878 -0.1029 -0.0169 -0.3688
  956POPC   C2B10930  11.909  12.420   7.056  0.1853 -0.1258  0.4203
  956POPC   C3B10931  11.683  12.697   7.430 -0.4384 -0.1929  0.2340
  956POPC   C4B10932  11.373  12.659   7.782  0.1561 -0.3400 -0.1806
  957POPC   NC310933  12.477  16.579   5.966  0.0636 -0.0260  0.4421
  957POPC   PO410934  12.902  16.612   5.989 -0.2362  0.0138 -0.1523
  957POPC   GL110935  12.758  16.474   6.374 -0.2394 -0.1866  0.1597
  957POPC   GL210936  12.498  16.349   6.452  0.0517 -0.0256  0.1174
  957POPC   C1A10937  13.033  16.565   6.705  0.0785 -0.0886  0.2704
  957POPC   D2A10938  13.330  16.724   6.765 -0.0759 -0.0304  0.3491
  957POPC   C3A10939  13.141  17.096   6.793 -0.1561 -0.1785 -0.0962
  957POPC   C4A10940  12.949  17.451   6.735  0.0962 -0.1641  0.2729
  957POPC   C1B10941  12.539  16.433   6.839  0.1757  0.1942  0.0186
  957POPC   C2B10942  12.458  16.578   7.177 -0.1364 -0.1128 -0.0971
  957POPC   C3B10943  12.327  16.806   7.593 -0.1315 -0.1167 -0.0438
  957POPC   C4B10944  12.380  16.986   7.894 -0.1134  0.0867 -0.1355
  958POPC   NC310945  15.633   1.090   5.598 -0.0149 -0.2175 -0.1407
  958POPC   PO410946  15.901   1.272   5.946  0.1279  0.1381 -0.1457
  958POPC   GL110947  16.048   1.359   6.439 -0.3854 -0.0962 -0.0441
  958POPC   GL210948  16.423   1.344   6.481  0.3441 -0.0301 -0.0700
  958POPC   C1A10949  16.054   1.402   6.883  0.1150  0.3004  0.1204
  958POPC   D2A10950  16.063   1.244   7.266 -0.3224 -0.1152  0.1527
  958POPC   C3A10951  16.043   1.516   7.612 -0.3132 -0.0334  0.1168
  958POPC   C4A10952  15.902   1.534   7.902  0.0405  0.0479 -0.4860
  958POPC   C1B10953  16.581   1.230   6.902 -0.0900 -0.1382  0.1561
  958POPC   C2B10954  16.573   1.068   7.223 -0.4302  0.1598 -0.0505
  958POPC   C3B10955  16.457   1.126   7.562 -0.0171  0.2309 -0.1226
  958POPC   C4B10956  16.097   1.029   7.742 -0.1319  0.0308  0.2064
  959POPC   NC310957   2.803  14.534   5.264  0.0465 -0.0177 -0.1842
  959POPC   PO410958   2.527  14.824   5.470  0.2099  0.1669  0.0893
  959POPC   GL110959   2.313  14.708   5.840  0.0550  0.0899  0.0346
  959POPC   GL210960   2.589  14.473   6.002 -0.2048  0.0387  0.0921
  959POPC   C1A10961   2.214  14.805   6.309  0.2484 -0.0380 -0.1276
  959POPC   D2A10962   2.015  14.867   6.674  0.0590  0.1936 -0.0125
  959POPC   C3A10963   2.236  14.812   7.065 -0.0661 -0.2465  0.2281
  959POPC   C4A10964   2.014  14.553   7.380 -0.1372 -0.0163  0.0907
  959POPC   C1B10965   2.365  14.237   6.286  0.1578  0.3103  0.0456
  959POPC   C2B10966   2.389  14.305   6.797 -0.1254 -0.2846 -0.0610
  959POPC   C3B10967   2.429  14.385   7.226  0.0156  0.1788 -0.1492
  959POPC   C4B10968   2.535  13.969   7.454  0.2283  0.0529  0.3312
  960POPC   NC310969   7.782   4.847   5.946 -0.0765  0.2623  0.0136
  960POPC   PO410970   7.504   5.153   5.978  0.1133 -0.0021 -0.1085
  960POPC   GL110971   7.581   5.086   6.411 -0.2381  0.0602  0.1317
  960POPC   GL210972   7.426   4.968   6.500  0.1851 -0.2958  0.0102
  960POPC   C1A10973   7.877   5.120   6.723 -0.1641 -0.1059 -0.0978
  960POPC   D2A10974   8.270   4.856   6.843 -0.0939 -0.2347  0.0950
  960POPC   C3A10975   8.451   4.829   7.224 -0.0589  0.0293 -0.0740
  960POPC   C4A10976   8.308   4.848   7.654 -0.1244  0.2242 -0.0914
  960POPC   C1B10977   7.095   5.204   6.739 -0.0166  0.4096  0.0284
  960POPC   C2B10978   6.943   5.276   7.102  0.2111 -0.2422  0.1442
  960POPC   C3B10979   6.806   5.055   7.397  0.1998  0.0240 -0.2361
  960POPC   C4B10980   6.621   4.616   7.489 -0.0884  0.0069 -0.2325
  961POPC   NC310981   8.888   9.049   6.321 -0.2337  0.0114  0.0858
  961POPC   PO410982   8.615   9.449   6.314 -0.0982 -0.2111 -0.1869
  961POPC   GL110983   8.733   9.458   6.730 -0.2206  0.0537  0.0816
  961POPC   GL210984   8.868   9.257   6.871  0.1106 -0.1536  0.0320
  961POPC   C1A10985   8.637   9.782   6.990  0.0917 -0.1754  0.1468
  961POPC   D2A10986   8.451  10.024   7.366 -0.0448 -0.0411  0.0561
  961POPC   C3A10987   8.530  10.185   7.793 -0.0622 -0.1428  0.1637
  961POPC   C4A10988   8.246  10.356   8.107 -0.0835 -0.1453 -0.0376
  961POPC   C1B10989   8.842   9.364   7.314 -0.3060  0.0930  0.3954
  961POPC   C2B10990   8.600   9.562   7.552  0.1535 -0.6507 -0.0848
  961POPC   C3B10991   8.351   9.514   7.953  0.0396 -0.0866  0.2604
  961POPC   C4B10992   8.267   9.371   8.325  0.1291 -0.1169 -0.0784
  962POPC   NC310993  14.952  15.937   6.651 -0.0252  0.0814  0.0869
  962POPC   PO410994  14.871  16.232   6.243 -0.3090  0.2067 -0.3029
  962POPC   GL110995  14.605  16.340   6.610  0.0072  0.4119  0.1564
  962POPC   GL210996  14.766  16.481   6.777  0.3431 -0.3010  0.0784
  962POPC   C1A10997  14.351  16.351   7.012 -0.1503 -0.0081  0.1124
  962POPC   D2A10998  14.316  16.423   7.358 -0.0762  0.3750 -0.2602
  962POPC   C3A10999  14.543  16.144   7.646  0.0721 -0.1810 -0.3803
  962POPC   C4A11000  14.805  15.770   7.659  0.5658  0.2922 -0.1749
  962POPC   C1B11001  14.803  16.468   7.136 -0.3375  0.1809 -0.0386
  962POPC   C2B11002  14.708  16.635   7.550  0.1995  0.0673  0.0490
  962POPC   C3B11003  14.418  16.533   7.942 -0.4723  0.1568  0.1693
  962POPC   C4B11004  13.994  16.444   7.948 -0.2972 -0.2721  0.0302
  963POPC   NC311005   4.215  12.061   5.326 -0.0361 -0.1115 -0.1367
  963POPC   PO411006   3.705  12.036   5.457  0.0482 -0.3040  0.0293
  963POPC   GL111007   3.603  12.098   5.813  0.1753  0.0332 -0.1582
  963POPC   GL211008   3.351  12.331   5.946  0.1565 -0.1369 -0.0254
  963POPC   C1A11009   3.611  12.294   6.384 -0.0457  0.1099 -0.0010
  963POPC   D2A11010   3.489  12.164   6.659  0.3117  0.2740 -0.1524
  963POPC   C3A11011   3.723  12.130   7.026 -0.0122 -0.0002 -0.1888
  963POPC   C4A11012   3.601  12.235   7.376  0.1470  0.2808 -0.0400
  963POPC   C1B11013   3.452  12.718   6.145  0.0375  0.1636  0.4062
  963POPC   C2B11014   3.418  12.746   6.613 -0.2445 -0.0898 -0.0399
  963POPC   C3B11015   3.498  12.637   6.976 -0.3239  0.1284 -0.1618
  963POPC   C4B11016   3.623  12.682   7.281 -0.0426  0.0854 -0.0314
  964POPC   NC311017   5.482   6.287   5.452 -0.1405 -0.2447  0.0863
  964POPC   PO411018   5.482   5.997   5.848 -0.1115  0.0569 -0.2273
  964POPC   GL111019   5.462   5.870   6.266 -0.0283  0.1871 -0.1134
  964POPC   GL211020   5.861   5.676   6.396  0.0145  0.2674  0.2695
  964POPC   C1A11021   5.248   5.950   6.684 -0.0509  0.0878  0.0888
  964POPC   D2A11022   5.177   5.762   7.076  0.2233 -0.0770 -0.1636
  964POPC   C3A11023   5.089   5.383   7.162  0.0856 -0.1137  0.1966
  964POPC   C4A11024   4.717   4.998   7.177  0.0721  0.2344 -0.0991
  964POPC   C1B11025   5.770   6.082   6.639  0.1772 -0.2328  0.1599
  964POPC   C2B11026   5.827   6.118   7.050 -0.0425  0.0228  0.0175
  964POPC   C3B11027   5.937   6.218   7.424 -0.3570 -0.1101 -0.1820
  964POPC   C4B11028   5.947   5.862   7.768  0.0875  0.2055 -0.0088
  965POPC   NC311029   3.815  10.371   5.894  0.1107  0.0760  0.0174
  965POPC   PO411030   3.738  10.286   6.240  0.1906  0.2342 -0.2983
  965POPC   GL111031   3.883  10.458   6.652  0.2611 -0.3902 -0.0422
  965POPC   GL211032   4.114  10.198   6.604 -0.2403 -0.0914 -0.2593
  965POPC   C1A11033   3.914  10.598   7.154  0.2279 -0.0617  0.1389
  965POPC   D2A11034   4.040  10.597   7.594  0.0805 -0.2291 -0.1138
  965POPC   C3A11035   4.479  10.642   7.808 -0.0858  0.1321  0.2768
  965POPC   C4A11036   4.616  10.495   8.161 -0.1305 -0.2996  0.2118
  965POPC   C1B11037   4.185  10.148   7.093  0.0080 -0.1741 -0.2612
  965POPC   C2B11038   4.426  10.161   7.538  0.1474  0.0483 -0.0173
  965POPC   C3B11039   4.619  10.054   7.930 -0.0165  0.0752 -0.0737
  965POPC   C4B11040   4.985   9.810   8.006  0.0618  0.1108  0.1531
  966POPC   NC311041   9.016  18.381   5.972 -0.0706 -0.2872 -0.5174
  966POPC   PO411042   8.930  18.094   6.142 -0.1776  0.0110  0.2873
  966POPC   GL111043   8.869  18.336   6.450 -0.0540 -0.5257 -0.0997
  966POPC   GL211044   8.526  18.319   6.523  0.1415  0.3383  0.2657
  966POPC   C1A11045   8.998  18.356   6.916 -0.2143 -0.0171  0.2160
  966POPC   D2A11046   8.793  18.136   7.338 -0.0427  0.0455 -0.3996
  966POPC   C3A11047   8.754  17.729   7.254 -0.0161  0.2373  0.3470
  966POPC   C4A11048   9.051  17.433   7.443  0.4985 -0.1755  0.1301
  966POPC   C1B11049   8.487  18.479   7.047 -0.1781  0.1019 -0.1297
  966POPC   C2B11050   8.259  18.415   7.363  0.0579 -0.1804  0.0192
  966POPC   C3B11051   8.213  18.464   7.879 -0.1602  0.2361  0.0809
  966POPC   C4B11052   7.862  18.508   8.135 -0.0505 -0.0801  0.1150
  967POPC   NC311053   5.796   1.858   5.397  0.0772  0.1351  0.2248
  967POPC   PO411054   5.535   1.909   5.770 -0.0397  0.0715  0.1369
  967POPC   GL111055   5.564   1.892   6.229  0.2018  0.1341  0.1221
  967POPC   GL211056   5.336   2.004   6.533  0.0132  0.0438 -0.4349
  967POPC   C1A11057   5.849   2.005   6.519 -0.2302 -0.0366 -0.2095
  967POPC   D2A11058   6.006   2.213   6.909 -0.1409  0.2136  0.1794
  967POPC   C3A11059   6.389   2.069   7.110  0.1034 -0.2468  0.0002
  967POPC   C4A11060   6.544   1.796   6.920  0.5128 -0.0969  0.4312
  967POPC   C1B11061   5.337   1.844   7.022  0.0712 -0.2251 -0.0397
  967POPC   C2B11062   5.562   1.512   7.239  0.0903 -0.0069 -0.4570
  967POPC   C3B11063   5.801   1.477   7.579  0.1056  0.0172 -0.2246
  967POPC   C4B11064   5.894   1.704   7.880  0.3609  0.0398  0.1080
  968POPC   NC311065   0.097  16.790   6.093 -0.4988  0.0789 -0.1863
  968POPC   PO411066  -0.196  17.168   6.011  0.0134  0.0231  0.1153
  968POPC   GL111067  -0.219  17.028   6.378 -0.1708 -0.1982  0.2531
  968POPC   GL211068  -0.578  17.088   6.406 -0.2206 -0.0583  0.0466
  968POPC   C1A11069  -0.229  17.060   6.807  0.5103  0.0827  0.3303
  968POPC   D2A11070  -0.432  16.778   7.063 -0.3117  0.0375 -0.0691
  968POPC   C3A11071  -0.528  16.477   7.371  0.1297 -0.1056 -0.2545
  968POPC   C4A11072  -0.684  16.254   7.698  0.1715  0.0111  0.1461
  968POPC   C1B11073  -0.744  17.102   6.803 -0.2992 -0.0138  0.2055
  968POPC   C2B11074  -0.852  17.001   7.143  0.0553 -0.1081 -0.0667
  968POPC   C3B11075  -0.966  16.807   7.460 -0.2747 -0.2925  0.0514
  968POPC   C4B11076  -1.176  16.489   7.761 -0.2475  0.0565  0.1485
  969POPC   NC311077   7.333  15.409   5.582  0.0571  0.3159 -0.0513
  969POPC   PO411078   7.674  15.314   5.766  0.3797 -0.1532  0.1953
  969POPC   GL111079   7.903  15.365   6.170 -0.2869  0.0695 -0.0033
  969POPC   GL211080   8.298  15.505   6.216  0.2357  0.1132  0.1948
  969POPC   C1A11081   8.008  15.563   6.599  0.0831  0.1654  0.1933
  969POPC   D2A11082   7.975  15.572   7.073  0.3502 -0.1966 -0.0341
  969POPC   C3A11083   7.848  15.873   7.450 -0.2494  0.0592 -0.0212
  969POPC   C4A11084   8.009  16.268   7.649  0.1213 -0.1133  0.1543
  969POPC   C1B11085   8.613  15.716   6.493  0.0038  0.2842 -0.2757
  969POPC   C2B11086   8.763  15.910   6.826 -0.3074 -0.3165  0.1260
  969POPC   C3B11087   8.757  15.963   7.287  0.0637  0.2896 -0.2100
  969POPC   C4B11088   8.885  15.872   7.723 -0.0110 -0.0824  0.1272
  970POPC   NC311089   1.515   1.177   5.756  0.2551  0.1715  0.2765
  970POPC   PO411090   1.407   1.060   6.202 -0.0751 -0.0491  0.0735
  970POPC   GL111091   1.479   1.235   6.589 -0.1464  0.0917 -0.0204
  970POPC   GL211092   1.719   1.053   6.791 -0.1720 -0.0904  0.1556
  970POPC   C1A11093   1.238   1.170   6.939  0.2301  0.0184 -0.1871
  970POPC   D2A11094   1.005   1.110   7.310  0.0092  0.0247 -0.1411
  970POPC   C3A11095   1.119   0.949   7.686 -0.1134 -0.1113 -0.2045
  970POPC   C4A11096   1.268   0.811   8.106  0.1528 -0.0459 -0.5442
  970POPC   C1B11097   1.523   0.745   6.866  0.1204  0.0564 -0.2687
  970POPC   C2B11098   1.424   0.418   6.948 -0.1098  0.3825  0.2637
  970POPC   C3B11099   1.371   0.463   7.363  0.0029  0.2377 -0.3926
  970POPC   C4B11100   1.514   0.633   7.706  0.2068 -0.2077 -0.0170
  971POPC   NC311101   9.957   0.272   5.819 -0.0377 -0.1773  0.3415
  971POPC   PO411102   9.531   0.360   6.037 -0.2206  0.1473  0.1142
  971POPC   GL111103   9.890   0.201   6.333  0.2056  0.0706  0.1202
  971POPC   GL211104   9.765   0.376   6.561 -0.0782  0.1268  0.0167
  971POPC   C1A11105  10.323   0.095   6.541 -0.0093  0.1144  0.1259
  971POPC   D2A11106  10.395  -0.221   6.708 -0.0220 -0.2770 -0.2083
  971POPC   C3A11107  10.233  -0.196   7.190 -0.0607  0.1421 -0.2732
  971POPC   C4A11108   9.898  -0.181   7.302 -0.0696 -0.3062 -0.4211
  971POPC   C1B11109   9.463   0.616   6.912 -0.1827  0.0491  0.2888
  971POPC   C2B11110   9.299   0.772   7.197  0.0924  0.3127 -0.1404
  971POPC   C3B11111   9.238   0.990   7.702 -0.0175 -0.0768 -0.0029
  971POPC   C4B11112   9.060   1.296   7.844 -0.1590  0.0163  0.1379
  972POPC   NC311113  17.350  15.414   5.673 -0.0915  0.1403  0.0410
  972POPC   PO411114  17.647  15.645   5.821 -0.1306  0.0651 -0.0775
  972POPC   GL111115  17.649  15.855   6.259  0.1280  0.0994 -0.1370
  972POPC   GL211116  17.757  15.604   6.389 -0.2689 -0.1753  0.0586
  972POPC   C1A11117  17.589  15.926   6.722  0.1108 -0.1305  0.0457
  972POPC   D2A11118  17.832  15.990   7.115 -0.0673  0.1109 -0.0174
  972POPC   C3A11119  17.718  15.796   7.587  0.2234  0.1648 -0.0322
  972POPC   C4A11120  17.377  15.971   7.903  0.0622  0.2129 -0.0995
  972POPC   C1B11121  17.999  15.654   6.829  0.2950  0.0259 -0.3249
  972POPC   C2B11122  18.117  15.600   7.345  0.2104 -0.1078  0.1944
  972POPC   C3B11123  18.536  15.609   7.576 -0.2184 -0.0295  0.1034
  972POPC   C4B11124  18.498  15.289   7.861 -0.3433 -0.4236  0.0381
  973POPC   NC311125  18.498  10.300   6.067  0.0223  0.0624  0.0323
  973POPC   PO411126  18.243   9.929   5.997  0.1260  0.1709  0.0598
  973POPC   GL111127  18.190   9.811   6.419  0.1050 -0.0165  0.0984
  973POPC   GL211128  17.962   9.927   6.650 -0.1097  0.0342  0.0623
  973POPC   C1A11129  18.212   9.417   6.702 -0.0406  0.0853 -0.1994
  973POPC   D2A11130  18.426   9.225   7.100 -0.0371  0.1758 -0.1056
  973POPC   C3A11131  18.245   9.280   7.475  0.1382  0.0813 -0.1190
  973POPC   C4A11132  18.161   9.167   7.884  0.2859  0.1916 -0.2510
  973POPC   C1B11133  18.382   9.878   6.861 -0.0153 -0.3809  0.2084
  973POPC   C2B11134  18.470   9.862   7.326 -0.1086 -0.4518 -0.2897
  973POPC   C3B11135  18.655  10.002   7.646  0.3492  0.2542 -0.0063
  973POPC   C4B11136  18.843   9.750   7.976 -0.2110 -0.0194  0.3071
  974POPC   NC311137  13.863   2.524   6.048 -0.0953  0.0777 -0.2213
  974POPC   PO411138  13.670   2.477   6.519  0.0797 -0.1568 -0.0078
  974POPC   GL111139  13.731   2.414   6.960 -0.0135  0.0561  0.1761
  974POPC   GL211140  13.979   2.599   6.996 -0.1685 -0.4537 -0.1397
  974POPC   C1A11141  13.600   2.257   7.299 -0.2041 -0.2821 -0.1851
  974POPC   D2A11142  13.618   2.097   7.746  0.5512  0.0682  0.0094
  974POPC   C3A11143  13.440   1.699   7.784  0.3985  0.0878 -0.1629
  974POPC   C4A11144  13.129   1.502   7.403  0.0244 -0.0073  0.0360
  974POPC   C1B11145  13.879   2.785   7.491 -0.1656 -0.0726  0.1231
  974POPC   C2B11146  13.761   2.554   7.794  0.2065 -0.4839  0.0783
  974POPC   C3B11147  13.503   2.346   8.208 -0.2903 -0.3277 -0.5095
  974POPC   C4B11148  13.542   1.976   8.566  0.0577  0.1768  0.1840
  975POPC   NC311149  17.353  16.622   5.840 -0.0295 -0.2217 -0.2470
  975POPC   PO411150  17.489  16.779   6.252 -0.2678 -0.1159 -0.0878
  975POPC   GL111151  17.267  16.683   6.549  0.0965  0.2337 -0.0751
  975POPC   GL211152  17.332  16.874   6.712 -0.1684 -0.1583 -0.0204
  975POPC   C1A11153  16.819  16.674   6.791  0.1780 -0.0369 -0.2184
  975POPC   D2A11154  16.677  16.840   7.150  0.1830  0.2280 -0.2470
  975POPC   C3A11155  16.774  17.206   7.479 -0.1534 -0.1546 -0.1470
  975POPC   C4A11156  16.767  17.261   7.965  0.0961  0.0170 -0.0609
  975POPC   C1B11157  17.172  16.732   7.129 -0.1550  0.0300  0.2809
  975POPC   C2B11158  17.072  16.866   7.560 -0.0898  0.0315  0.0125
  975POPC   C3B11159  17.052  16.825   8.039 -0.0294  0.0354 -0.1542
  975POPC   C4B11160  16.893  16.751   8.438 -0.1498  0.0268  0.0138
  976POPC   NC311161  10.645   9.153   6.189 -0.0584  0.3098  0.0625
  976POPC   PO411162  10.745   8.762   6.020  0.1199  0.3337 -0.0584
  976POPC   GL111163  10.786   8.625   6.409  0.0856 -0.0835  0.2058
  976POPC   GL211164  10.915   8.337   6.567  0.3691 -0.2459 -0.1210
  976POPC   C1A11165  10.892   8.718   6.883  0.0597 -0.1503  0.0249
  976POPC   D2A11166  11.230   8.983   7.008  0.0316  0.4237  0.1017
  976POPC   C3A11167  11.503   9.052   7.353 -0.0417  0.2205  0.0403
  976POPC   C4A11168  11.664   8.968   7.773 -0.0957 -0.1434  0.0628
  976POPC   C1B11169  10.932   8.156   6.982 -0.1059 -0.1789 -0.2913
  976POPC   C2B11170  10.652   8.180   7.318  0.0722  0.2349  0.2027
  976POPC   C3B11171  10.655   7.950   7.765 -0.3213 -0.3439 -0.1048
  976POPC   C4B11172  10.495   7.894   8.200  0.0729 -0.0847  0.0654
  977POPC   NC311173   8.018   8.773   6.283 -0.0943  0.1177 -0.0724
  977POPC   PO411174   8.162   8.427   6.512 -0.0676  0.0105  0.2330
  977POPC   GL111175   7.907   8.343   6.780  0.0089  0.1302  0.1676
  977POPC   GL211176   7.584   8.205   6.771 -0.0381 -0.0745 -0.1273
  977POPC   C1A11177   7.890   8.314   7.195 -0.0399  0.0471 -0.1598
  977POPC   D2A11178   7.767   8.243   7.575  0.0948  0.0528  0.0816
  977POPC   C3A11179   7.669   8.374   7.930  0.0832  0.2049  0.1012
  977POPC   C4A11180   7.546   8.430   8.395  0.2001  0.0013  0.1382
  977POPC   C1B11181   7.251   8.125   6.877 -0.1127  0.0431  0.1227
  977POPC   C2B11182   6.935   7.993   7.044  0.3582  0.0459  0.0709
  977POPC   C3B11183   6.792   8.192   7.359  0.0836  0.3300  0.1243
  977POPC   C4B11184   6.655   8.222   7.708  0.0672  0.0350 -0.0951
  978POPC   NC311185  14.522   8.766   6.174  0.0802  0.1839 -0.0934
  978POPC   PO411186  14.294   9.120   6.178  0.1164 -0.0965 -0.2005
  978POPC   GL111187  14.183   9.228   6.640 -0.0090 -0.1704 -0.0342
  978POPC   GL211188  13.922   9.398   6.632 -0.0611  0.1097 -0.0602
  978POPC   C1A11189  13.976   9.167   7.079  0.0185  0.0793 -0.1254
  978POPC   D2A11190  13.954   8.896   7.361 -0.0877  0.1084  0.0034
  978POPC   C3A11191  13.856   9.096   7.863  0.0235 -0.0836 -0.4400
  978POPC   C4A11192  13.532   9.409   7.846 -0.0371 -0.0573  0.1616
  978POPC   C1B11193  13.530   9.161   6.864  0.1807  0.0391 -0.0211
  978POPC   C2B11194  13.394   9.316   7.188  0.1650  0.0153 -0.0028
  978POPC   C3B11195  13.493   9.061   7.442 -0.1268 -0.1931 -0.0050
  978POPC   C4B11196  13.387   8.761   7.839 -0.2919 -0.3987  0.2468
  979YOPC   NC311197   2.684   2.572   6.582 -0.3213  0.0536  0.1295
  979YOPC   PO411198   2.848   2.982   6.469  0.1193  0.0972  0.2970
  979YOPC   GL111199   2.890   3.098   6.900 -0.1015  0.0171  0.1792
  979YOPC   GL211200   2.582   3.059   7.083 -0.3270 -0.1370 -0.0100
  979YOPC   C1A11201   3.002   3.080   7.386 -0.2175  0.0170 -0.1948
  979YOPC   D2A11202   3.280   2.958   7.648  0.0521 -0.1464 -0.2284
  979YOPC   C3A11203   3.385   3.066   8.072  0.2697  0.1735 -0.0272
  979YOPC   C4A11204   3.656   3.224   8.395  0.2366 -0.0189 -0.1264
  979YOPC   C1B11205   2.486   2.999   7.477 -0.0122  0.1562 -0.0974
  979YOPC   C2B11206   2.547   3.006   7.845  0.3062 -0.0578 -0.0497
  979YOPC   D3B11207   2.880   3.011   7.988 -0.0789 -0.1281 -0.0515
  979YOPC   C4B11208   3.061   3.121   8.430 -0.1212  0.0460 -0.0920
  980YOPC   NC311209  13.979  13.831   5.981 -0.1878  0.2407  0.1983
  980YOPC   PO411210  13.931  14.155   6.154  0.0519  0.2528 -0.0636
  980YOPC   GL111211  13.904  14.072   6.642 -0.2372  0.0486  0.1784
  980YOPC   GL211212  13.639  14.039   6.828 -0.0400 -0.0156  0.1805
  980YOPC   C1A11213  14.154  14.028   6.985  0.3708  0.0454  0.1641
  980YOPC   D2A11214  14.221  13.774   7.348  0.0783 -0.1366 -0.2274
  980YOPC   C3A11215  14.199  13.810   7.848 -0.0027 -0.2335  0.1988
  980YOPC   C4A11216  14.067  13.494   8.094  0.2317  0.1471 -0.1578
  980YOPC   C1B11217  13.502  13.773   7.239  0.0296  0.1505 -0.0271
  980YOPC   C2B11218  13.684  13.633   7.644  0.2768 -0.0196  0.4463
  980YOPC   D3B11219  13.593  14.005   7.879 -0.2710 -0.1325 -0.1007
  980YOPC   C4B11220  13.773  14.497   7.951 -0.2034  0.0234  0.2363
  981YOPC   NC311221  15.479   8.564   6.285  0.1972 -0.1791  0.1634
  981YOPC   PO411222  15.278   8.158   6.276 -0.0842  0.2965  0.0181
  981YOPC   GL111223  15.327   8.289   6.687  0.1498 -0.2340 -0.2135
  981YOPC   GL211224  14.901   8.171   6.912 -0.1581 -0.0755 -0.1142
  981YOPC   C1A11225  15.325   8.290   7.244 -0.0174 -0.0452  0.1321
  981YOPC   D2A11226  15.509   7.999   7.650  0.1966 -0.0129  0.0856
  981YOPC   C3A11227  15.625   8.237   7.947  0.1095  0.0804  0.0464
  981YOPC   C4A11228  15.788   8.279   8.331  0.2631  0.1061  0.1230
  981YOPC   C1B11229  14.573   8.153   7.214 -0.1105 -0.1467  0.3163
  981YOPC   C2B11230  14.443   8.063   7.590  0.0267  0.1851 -0.0297
  981YOPC   D3B11231  14.641   8.035   7.957 -0.1476  0.0087 -0.2433
  981YOPC   C4B11232  14.898   7.806   8.241  0.0772  0.1780  0.4441
  982YOPC   NC311233  16.246  10.104   6.396 -0.2081 -0.3338 -0.0604
  982YOPC   PO411234  16.120   9.706   6.348  0.0440 -0.3438 -0.2038
  982YOPC   GL111235  16.062   9.843   6.803 -0.2491  0.1468  0.0232
  982YOPC   GL211236  16.080  10.117   6.815  0.0447 -0.3896 -0.0826
  982YOPC   C1A11237  15.810   9.836   7.132 -0.0566  0.1265 -0.1148
  982YOPC   D2A11238  15.816   9.615   7.499 -0.0138 -0.2498 -0.0939
  982YOPC   C3A11239  15.944   9.614   7.827  0.2572 -0.0825 -0.0009
  982YOPC   C4A11240  16.116   9.821   8.151 -0.3160  0.0525 -0.0165
  982YOPC   C1B11241  16.299  10.045   7.239  0.0578 -0.1320 -0.0353
  982YOPC   C2B11242  16.728  10.314   7.374  0.0177  0.0015 -0.1727
  982YOPC   D3B11243  16.792  10.406   7.806  0.7115 -0.2534  0.0148
  982YOPC   C4B11244  16.533  10.206   8.175  0.2093 -0.0519 -0.0697
  983YOPC   NC311245  11.201  12.378   5.844 -0.2192 -0.0486  0.4040
  983YOPC   PO411246  11.457  12.045   6.050 -0.1232  0.3204 -0.4474
  983YOPC   GL111247  11.377  11.995   6.554 -0.1240 -0.1826 -0.2325
  983YOPC   GL211248  11.054  11.774   6.616  0.1137  0.1889  0.0998
  983YOPC   C1A11249  11.487  12.139   6.948  0.0703 -0.0099 -0.2462
  983YOPC   D2A11250  11.631  11.981   7.253 -0.1413  0.0390 -0.2430
  983YOPC   C3A11251  11.487  12.014   7.737  0.0973 -0.1063 -0.2830
  983YOPC   C4A11252  11.093  11.817   7.971  0.1809  0.2485  0.2761
  983YOPC   C1B11253  11.105  11.860   7.030  0.0116 -0.1660  0.1807
  983YOPC   C2B11254  11.224  11.740   7.410 -0.0893 -0.4537  0.1611
  983YOPC   D3B11255  11.422  11.409   7.618  0.2981 -0.0281 -0.2104
  983YOPC   C4B11256  11.717  11.198   7.758 -0.4792 -0.3288 -0.0571
  984YOPC   NC311257  13.558   0.656   5.761 -0.3265 -0.1263 -0.0290
  984YOPC   PO411258  13.887   0.365   5.747 -0.1069 -0.1101  0.0323
  984YOPC   GL111259  13.952   0.248   6.175 -0.1853  0.4471  0.2294
  984YOPC   GL211260  14.215   0.023   6.338  0.1342 -0.0704 -0.2024
  984YOPC   C1A11261  13.912   0.490   6.567  0.1547 -0.0835 -0.2398
  984YOPC   D2A11262  13.615   0.669   6.762 -0.1347 -0.0819 -0.0269
  984YOPC   C3A11263  13.300   0.420   6.750 -0.0843 -0.3773 -0.1530
  984YOPC   C4A11264  13.153   0.145   7.051  0.3606  0.0903 -0.3788
  984YOPC   C1B11265  14.050   0.010   6.773  0.0367  0.0786 -0.0099
  984YOPC   C2B11266  14.101  -0.159   7.238  0.3308 -0.2649  0.3652
  984YOPC   D3B11267  14.088  -0.110   7.669 -0.1865 -0.3289 -0.1446
  984YOPC   C4B11268  14.009   0.107   8.181 -0.1743 -0.1885 -0.0077
  985YOPC   NC311269  15.733   1.916   5.912  0.3848 -0.0030  0.4110
  985YOPC   PO411270  15.821   1.811   6.407 -0.1080 -0.0457  0.0226
  985YOPC   GL111271  15.597   1.795   6.741  0.0976  0.0907 -0.0253
  985YOPC   GL211272  15.550   2.141   6.760 -0.0128  0.0303 -0.2076
  985YOPC   C1A11273  15.794   1.743   7.242  0.0066 -0.1167  0.1387
  985YOPC   D2A11274  15.649   1.854   7.628 -0.0561 -0.0662  0.2166
  985YOPC   C3A11275  15.336   2.053   7.879 -0.2169 -0.1607 -0.2555
  985YOPC   C4A11276  14.892   2.031   7.902 -0.0340 -0.2171  0.6449
  985YOPC   C1B11277  15.555   2.175   7.209 -0.0236  0.4437  0.0606
  985YOPC   C2B11278  15.609   2.419   7.587 -0.0252  0.1576 -0.0381
  985YOPC   D3B11279  15.773   2.294   7.952 -0.3946  0.1582  0.1085
  985YOPC   C4B11280  15.617   2.076   8.291  0.0028  0.0902  0.1169
  986YOPC   NC311281  18.094   5.177   6.506  0.0951  0.0732 -0.1472
  986YOPC   PO411282  18.057   5.631   6.572 -0.1753 -0.2912  0.1325
  986YOPC   GL111283  18.033   5.710   7.076 -0.0127 -0.0156 -0.0397
  986YOPC   GL211284  17.712   5.862   7.232  0.2508 -0.1383  0.1051
  986YOPC   C1A11285  18.142   5.609   7.423 -0.2595 -0.1951 -0.1561
  986YOPC   D2A11286  18.206   5.550   7.850  0.3204 -0.0804  0.0091
  986YOPC   C3A11287  18.536   5.700   8.003 -0.0265 -0.0325  0.1499
  986YOPC   C4A11288  18.561   5.975   8.377  0.1224 -0.1899 -0.1265
  986YOPC   C1B11289  17.629   5.483   7.553  0.1549 -0.3987 -0.0061
  986YOPC   C2B11290  17.762   5.096   7.810 -0.4836  0.0123  0.0767
  986YOPC   D3B11291  17.516   5.018   8.169  0.2062  0.2381 -0.3317
  986YOPC   C4B11292  17.487   4.802   8.446  0.4279 -0.2905  0.1513
  987YOPC   NC311293   3.286   1.547   6.035  0.0310  0.2598 -0.2447
  987YOPC   PO411294   3.654   1.653   6.289  0.3825  0.3374 -0.2207
  987YOPC   GL111295   3.700   1.705   6.627 -0.1083  0.2699  0.2575
  987YOPC   GL211296   3.844   1.373   6.801 -0.1449  0.1473 -0.1373
  987YOPC   C1A11297   3.745   1.818   7.022 -0.0513  0.3674 -0.1228
  987YOPC   D2A11298   3.656   2.068   7.263 -0.1155  0.1390 -0.2463
  987YOPC   C3A11299   3.826   2.109   7.659  0.4600  0.3101 -0.2179
  987YOPC   C4A11300   3.962   1.970   8.027  0.2201 -0.2256  0.0390
  987YOPC   C1B11301   3.967   1.247   7.255  0.2663 -0.1430 -0.1553
  987YOPC   C2B11302   3.763   1.219   7.610 -0.0839  0.1786  0.0410
  987YOPC   D3B11303   3.966   1.131   8.038  0.2651 -0.4145  0.1497
  987YOPC   C4B11304   3.956   1.159   8.404 -0.0185  0.0912 -0.2829
  988YOPC   NC311305   2.971   6.489   5.538 -0.1041 -0.3703 -0.0645
  988YOPC   PO411306   2.729   6.238   5.770  0.0777  0.0902  0.3517
  988YOPC   GL111307   2.627   6.388   6.228 -0.0651 -0.0848 -0.0697
  988YOPC   GL211308   2.503   6.118   6.418 -0.2435 -0.0200 -0.0400
  988YOPC   C1A11309   2.857   6.368   6.644 -0.0319 -0.2539 -0.1153
  988YOPC   D2A11310   3.166   6.691   6.839  0.2712 -0.0384  0.0101
  988YOPC   C3A11311   3.271   6.633   7.278 -0.1695  0.1827  0.1207
  988YOPC   C4A11312   3.384   6.477   7.720 -0.0611 -0.0960 -0.0194
  988YOPC   C1B11313   2.546   6.043   6.889 -0.3765 -0.1145 -0.0312
  988YOPC   C2B11314   2.718   6.094   7.149 -0.0099 -0.4515  0.1067
  988YOPC   D3B11315   2.703   5.954   7.548  0.1378  0.1577 -0.0278
  988YOPC   C4B11316   2.595   5.700   7.939  0.1619  0.0519 -0.0136
  989YOPC   NC311317   3.671   6.629   6.131  0.0813  0.0885 -0.1726
  989YOPC   PO411318   3.377   6.857   6.362 -0.2151  0.2427 -0.1816
  989YOPC   GL111319   3.490   7.021   6.729  0.0393 -0.3743 -0.2770
  989YOPC   GL211320   3.807   7.064   6.686  0.0815 -0.0587  0.1071
  989YOPC   C1A11321   3.487   7.067   7.147 -0.0527  0.0822 -0.3830
  989YOPC   D2A11322   3.493   7.229   7.486  0.2394  0.2243 -0.0964
  989YOPC   C3A11323   3.607   6.873   7.872 -0.0641 -0.0623  0.3679
  989YOPC   C4A11324   3.709   6.986   8.341  0.2344  0.0040  0.1029
  989YOPC   C1B11325   3.902   6.891   7.012 -0.0057 -0.1925 -0.2776
  989YOPC   C2B11326   3.921   6.934   7.386 -0.2033  0.6460 -0.0667
  989YOPC   D3B11327   4.173   6.637   7.496  0.1519  0.0934  0.2919
  989YOPC   C4B11328   4.360   6.475   7.900  0.0011 -0.3700  0.0819
  990YOPC   NC311329  11.817  12.901   6.234 -0.0192  0.1771  0.2712
  990YOPC   PO411330  12.175  12.899   6.365  0.2057 -0.1137  0.3350
  990YOPC   GL111331  11.997  12.793   6.696 -0.0501 -0.0267  0.1699
  990YOPC   GL211332  11.746  12.512   6.611 -0.0668  0.0042  0.2285
  990YOPC   C1A11333  11.722  13.098   7.029  0.2671  0.1033  0.0269
  990YOPC   D2A11334  11.531  13.246   7.372  0.2034  0.0194 -0.1542
  990YOPC   C3A11335  11.161  13.171   7.569 -0.1161  0.2997  0.3104
  990YOPC   C4A11336  10.784  13.265   7.710  0.3083  0.1494 -0.2633
  990YOPC   C1B11337  11.478  12.654   6.958 -0.1670 -0.0989  0.1969
  990YOPC   C2B11338  11.229  12.784   7.211 -0.0557  0.1272  0.0658
  990YOPC   D3B11339  11.218  12.320   7.383  0.0238 -0.2335 -0.4795
  990YOPC   C4B11340  10.840  12.082   7.593 -0.0830 -0.3841  0.0619
  991YOPC   NC311341  14.141  11.460   6.548 -0.1110 -0.1482 -0.2606
  991YOPC   PO411342  13.839  11.124   6.363  0.1387  0.1382 -0.1473
  991YOPC   GL111343  13.905  10.959   6.703  0.2324 -0.1124  0.0139
  991YOPC   GL211344  14.122  10.670   6.732 -0.2989 -0.1272 -0.1273
  991YOPC   C1A11345  13.682  10.813   7.084 -0.0651  0.0222 -0.0511
  991YOPC   D2A11346  13.440  10.895   7.436  0.3165  0.0708 -0.0993
  991YOPC   C3A11347  13.177  10.750   7.735  0.1233  0.3026  0.2437
  991YOPC   C4A11348  12.902  10.752   8.121  0.0123 -0.0582 -0.0315
  991YOPC   C1B11349  14.104  10.638   7.058 -0.0784  0.2090  0.1513
  991YOPC   C2B11350  14.150  10.896   7.435  0.5782  0.1845 -0.1579
  991YOPC   D3B11351  14.136  10.799   7.845 -0.1657 -0.2532  0.3347
  991YOPC   C4B11352  14.035  10.759   8.278  0.1955  0.1666 -0.0266
  992YOPC   NC311353   5.279   1.437   6.077 -0.0991  0.2392 -0.1075
  992YOPC   PO411354   5.432   1.009   6.028  0.0218  0.0963  0.0478
  992YOPC   GL111355   5.548   1.035   6.518  0.1740 -0.0539 -0.1503
  992YOPC   GL211356   5.145   1.153   6.560  0.0989 -0.0187  0.0108
  992YOPC   C1A11357   5.575   1.115   6.916  0.0112 -0.0676  0.0340
  992YOPC   D2A11358   5.726   1.022   7.429  0.0737 -0.1578 -0.0291
  992YOPC   C3A11359   6.174   0.904   7.515  0.4840 -0.2536  0.1490
  992YOPC   C4A11360   6.325   1.266   7.591  0.0858 -0.0690  0.1427
  992YOPC   C1B11361   5.139   1.417   6.937  0.0421 -0.2669  0.0698
  992YOPC   C2B11362   4.964   1.497   7.285 -0.2277  0.1324  0.2182
  992YOPC   D3B11363   5.153   1.795   7.564 -0.1732 -0.1340 -0.2825
  992YOPC   C4B11364   5.486   2.006   7.579  0.3378  0.1705 -0.2469
  993YOPC   NC311365   2.895  17.124   6.217 -0.2671 -0.0789  0.0624
  993YOPC   PO411366   3.336  16.977   6.403  0.2652 -0.2564  0.3285
  993YOPC   GL111367   3.185  16.982   6.732  0.1362  0.0478 -0.2482
  993YOPC   GL211368   2.922  16.777   6.676 -0.0297 -0.3367  0.2504
  993YOPC   C1A11369   3.233  16.993   7.070  0.1343  0.2848  0.1603
  993YOPC   D2A11370   3.243  16.861   7.540  0.2773  0.1924  0.1853
  993YOPC   C3A11371   3.015  17.014   7.979  0.0132  0.1493 -0.1897
  993YOPC   C4A11372   2.717  17.313   8.078 -0.0645  0.2476 -0.0984
  993YOPC   C1B11373   2.760  16.812   6.975 -0.1058  0.1718 -0.2445
  993YOPC   C2B11374   2.790  16.841   7.385  0.2019 -0.1061 -0.1913
  993YOPC   D3B11375   2.785  16.411   7.514  0.1741 -0.4413 -0.2010
  993YOPC   C4B11376   2.852  16.047   7.616  0.0018  0.2357  0.4291
  994YOPC   NC311377   8.410   4.383   5.677  0.1152  0.0380  0.0529
  994YOPC   PO411378   8.662   4.426   5.993 -0.3382  0.0969  0.1159
  994YOPC   GL111379   8.478   4.202   6.339  0.4187 -0.1607  0.1125
  994YOPC   GL211380   8.593   3.997   6.539 -0.0309  0.1741  0.2738
  994YOPC   C1A11381   8.374   4.388   6.765  0.3103  0.4156  0.1445
  994YOPC   D2A11382   8.076   4.495   7.110  0.0486  0.2411 -0.0613
  994YOPC   C3A11383   8.186   4.329   7.543  0.2660 -0.3850  0.0704
  994YOPC   C4A11384   8.198   4.429   7.969  0.3654  0.1353 -0.0501
  994YOPC   C1B11385   8.848   3.960   6.959  0.2047 -0.1318 -0.4279
  994YOPC   C2B11386   9.153   3.817   7.288 -0.3308 -0.1865 -0.1545
  994YOPC   D3B11387   9.192   3.759   7.708 -0.1419  0.2109 -0.0715
  994YOPC   C4B11388   9.069   3.676   8.030  0.0332 -0.0332  0.2234
  995YOPC   NC311389   0.851   5.828   6.084  0.0771  0.0275  0.1330
  995YOPC   PO411390   0.474   5.838   6.273 -0.3314 -0.0706  0.1746
  995YOPC   GL111391   0.552   5.865   6.689  0.1966  0.0946 -0.0676
  995YOPC   GL211392   0.519   5.624   6.793 -0.2635  0.1182 -0.1509
  995YOPC   C1A11393   0.938   5.928   6.937 -0.0981  0.1911  0.1170
  995YOPC   D2A11394   1.141   5.820   7.366  0.1542 -0.0551  0.4167
  995YOPC   C3A11395   1.064   6.101   7.748 -0.1074 -0.0245 -0.0717
  995YOPC   C4A11396   0.749   6.386   8.017 -0.0203  0.0961 -0.0607
  995YOPC   C1B11397   0.470   5.498   7.200  0.0633  0.3596 -0.0986
  995YOPC   C2B11398   0.675   5.770   7.504  0.0257 -0.0271  0.2508
  995YOPC   D3B11399   0.560   5.840   7.855  0.2443 -0.1853 -0.1554
  995YOPC   C4B11400   0.899   5.865   8.137  0.1579 -0.0244 -0.4116
  996YOPC   NC311401   0.175   1.770   6.034 -0.0822  0.2130 -0.0936
  996YOPC   PO411402  -0.064   1.527   6.449  0.3189  0.0837 -0.1104
  996YOPC   GL111403  -0.046   1.440   6.821 -0.0739 -0.1312  0.0364
  996YOPC   GL211404   0.350   1.366   6.764 -0.1883  0.1354  0.3433
  996YOPC   C1A11405   0.149   1.541   7.243 -0.0519 -0.0231  0.4303
  996YOPC   D2A11406   0.223   1.581   7.647 -0.3381  0.0209  0.1910
  996YOPC   C3A11407   0.470   1.669   8.049  0.1029  0.1847  0.1465
  996YOPC   C4A11408   0.908   1.858   8.041 -0.0325  0.0111 -0.3045
  996YOPC   C1B11409   0.539   1.076   6.994 -0.1375  0.2390 -0.0100
  996YOPC   C2B11410   0.520   1.152   7.432 -0.2322 -0.3281  0.2945
  996YOPC   D3B11411   0.223   1.023   7.660 -0.0955 -0.1497 -0.1463
  996YOPC   C4B11412   0.182   0.822   8.035 -0.0285  0.0622  0.0052
  997YOPC   NC311413  15.776   7.667   6.228 -0.3003  0.0211 -0.4106
  997YOPC   PO411414  15.660   7.867   6.573  0.0699  0.0507  0.2042
  997YOPC   GL111415  15.414   7.869   6.940  0.1024  0.0846 -0.2777
  997YOPC   GL211416  15.109   7.603   7.019  0.2646 -0.1290  0.0404
  997YOPC   C1A11417  15.786   7.920   7.244  0.0100  0.0093 -0.1543
  997YOPC   D2A11418  16.018   7.972   7.587  0.0753  0.0266  0.1118
  997YOPC   C3A11419  16.106   8.247   7.931 -0.0919  0.0517 -0.0393
  997YOPC   C4A11420  16.316   8.201   8.324 -0.0007 -0.2746  0.0346
  997YOPC   C1B11421  15.099   7.850   7.339  0.2461  0.4067  0.2444
  997YOPC   C2B11422  15.049   7.727   7.727  0.1183 -0.1588 -0.0350
  997YOPC   D3B11423  15.023   7.394   7.902  0.1467 -0.0294  0.1684
  997YOPC   C4B11424  15.027   7.013   8.199  0.2006 -0.3718 -0.5752
  998YOPC   NC311425  13.792   3.855   5.997  0.1362  0.1931 -0.0390
  998YOPC   PO411426  13.661   3.437   5.969 -0.0930  0.1474 -0.0044
  998YOPC   GL111427  13.388   3.500   6.315 -0.3141  0.3272 -0.0686
  998YOPC   GL211428  13.445   3.276   6.406  0.1861  0.1169 -0.1016
  998YOPC   C1A11429  13.419   3.399   6.846 -0.1243  0.1178  0.1411
  998YOPC   D2A11430  13.154   3.071   6.800 -0.2360  0.0587  0.2681
  998YOPC   C3A11431  13.000   2.852   7.179  0.0773 -0.0904 -0.1630
  998YOPC   C4A11432  12.501   2.815   7.350 -0.2370 -0.2028 -0.2003
  998YOPC   C1B11433  13.886   3.197   6.830  0.1488 -0.4237  0.2163
  998YOPC   C2B11434  14.203   3.546   6.955 -0.1862 -0.0017 -0.0255
  998YOPC   D3B11435  14.211   3.721   7.321  0.3616 -0.1323  0.2830
  998YOPC   C4B11436  14.386   3.682   7.687 -0.0908 -0.1136  0.2031
  999YOPC   NC311437  13.944  16.117   6.090 -0.1461  0.1764  0.0420
  999YOPC   PO411438  13.588  15.930   6.157 -0.2520  0.0818  0.2364
  999YOPC   GL111439  13.550  15.801   6.516 -0.3013 -0.0234 -0.2614
  999YOPC   GL211440  13.473  16.107   6.716 -0.1541 -0.0851 -0.2646
  999YOPC   C1A11441  13.831  15.553   6.693  0.1155 -0.0044 -0.1134
  999YOPC   D2A11442  14.069  15.410   7.053  0.1347  0.1934 -0.0236
  999YOPC   C3A11443  14.078  15.262   7.390  0.1686 -0.1120  0.1100
  999YOPC   C4A11444  14.196  15.164   7.733 -0.1127 -0.0595  0.1998
  999YOPC   C1B11445  13.386  16.343   7.041  0.0914 -0.3350  0.0962
  999YOPC   C2B11446  13.361  16.374   7.434  0.1203  0.0464 -0.2735
  999YOPC   D3B11447  13.618  16.156   7.605 -0.1339 -0.0711 -0.3473
  999YOPC   C4B11448  14.019  16.050   7.611  0.2301  0.0896 -0.3068
 1000YOPC   NC311449   4.539   8.529   5.848 -0.2031  0.2448  0.0343
 1000YOPC   PO411450   4.115   8.504   5.847 -0.2596  0.3569  0.0426
 1000YOPC   GL111451   3.970   8.533   6.271 -0.3230 -0.1584 -0.0424
 1000YOPC   GL211452   3.971   8.170   6.309  0.1804  0.0895  0.0236
 1000YOPC   C1A11453   4.025   8.489   6.720  0.0844 -0.0779  0.1755
 1000YOPC   D2A11454   3.998   8.474   7.203  0.0130 -0.2444  0.0915
 1000YOPC   C3A11455   4.336   8.183   7.312  0.2810 -0.0071 -0.0538
 1000YOPC   C4A11456   4.524   7.829   7.482 -0.1724 -0.2815 -0.2134
 1000YOPC   C1B11457   4.295   7.993   6.420  0.1046  0.2424 -0.0161
 1000YOPC   C2B11458   4.393   7.814   6.816 -0.1555  0.3282  0.2273
 1000YOPC   D3B11459   4.027   7.788   7.185 -0.1269  0.0857 -0.0853
 1000YOPC   C4B11460   3.742   7.453   7.121  0.2068  0.3322 -0.1247
 1001YOPC   NC311461   6.379  15.208   5.429 -0.1667  0.1457 -0.0864
 1001YOPC   PO411462   6.862  15.242   5.597  0.0172  0.4106 -0.0785
 1001YOPC   GL111463   6.936  15.527   5.907 -0.1949 -0.4474  0.0443
 1001YOPC   GL211464   7.252  15.401   6.078 -0.0679 -0.1894 -0.0926
 1001YOPC   C1A11465   6.861  15.493   6.410  0.1522 -0.2659 -0.3243
 1001YOPC   D2A11466   6.489  15.711   6.606 -0.1546  0.0076 -0.1525
 1001YOPC   C3A11467   6.620  15.747   7.006 -0.1343 -0.0381 -0.0725
 1001YOPC   C4A11468   6.740  16.149   7.079 -0.0733  0.1687  0.0515
 1001YOPC   C1B11469   7.506  15.483   6.448  0.2091  0.2024 -0.2154
 1001YOPC   C2B11470   7.555  15.398   6.892 -0.0407  0.1340 -0.3258
 1001YOPC   D3B11471   7.268  15.187   7.186 -0.0763  0.0972 -0.1377
 1001YOPC   C4B11472   6.942  15.048   7.492  0.0200  0.3983  0.3073
 1002YOPC   NC311473   7.686  13.022   6.057  0.0910 -0.0595  0.0079
 1002YOPC   PO411474   7.532  13.450   5.947  0.1381  0.1524 -0.3066
 1002YOPC   GL111475   7.511  13.611   6.270 -0.0171  0.2607 -0.1065
 1002YOPC   GL211476   7.597  13.936   6.378 -0.0292 -0.1324  0.3974
 1002YOPC   C1A11477   7.242  13.683   6.690 -0.3401 -0.1899 -0.0718
 1002YOPC   D2A11478   7.061  14.007   6.961  0.0009 -0.0789 -0.0873
 1002YOPC   C3A11479   6.673  14.093   7.297 -0.0452 -0.2956 -0.1412
 1002YOPC   C4A11480   6.346  14.296   7.621  0.0786 -0.0106  0.1298
 1002YOPC   C1B11481   7.413  14.155   6.642 -0.3301  0.1494 -0.0733
 1002YOPC   C2B11482   7.072  14.493   6.805 -0.0140 -0.2983 -0.1523
 1002YOPC   D3B11483   7.188  14.588   7.248 -0.0096  0.0921 -0.2129
 1002YOPC   C4B11484   7.291  14.713   7.594  0.5080  0.1563 -0.0172
 1003YOPC   NC311485  15.615   9.534   6.184 -0.0786 -0.3214 -0.2694
 1003YOPC   PO411486  15.330   9.784   6.292  0.0852 -0.1169  0.1272
 1003YOPC   GL111487  15.487   9.658   6.714 -0.2150  0.2276 -0.0326
 1003YOPC   GL211488  15.827   9.468   6.657  0.2249 -0.2313  0.2352
 1003YOPC   C1A11489  15.557   9.414   7.051 -0.0021  0.2831  0.0467
 1003YOPC   D2A11490  15.498   9.326   7.334 -0.0464  0.2123  0.0646
 1003YOPC   C3A11491  15.567   8.936   7.475 -0.1826  0.0923 -0.3150
 1003YOPC   C4A11492  15.397   8.552   7.645  0.0585  0.1665  0.0934
 1003YOPC   C1B11493  16.162   9.390   7.041  0.2443 -0.0549  0.0167
 1003YOPC   C2B11494  16.345   9.560   7.259 -0.0843  0.2084 -0.2578
 1003YOPC   D3B11495  16.344   9.442   7.591  0.1169  0.1427  0.1454
 1003YOPC   C4B11496  16.361   9.382   8.079  0.3746 -0.2055  0.2798
 1004YOPC   NC311497   5.738  13.857   5.352 -0.0211 -0.0108 -0.2345
 1004YOPC   PO411498   5.456  14.209   5.432  0.1094  0.0891 -0.0283
 1004YOPC   GL111499   5.660  14.130   5.789  0.3720 -0.0414  0.2565
 1004YOPC   GL211500   5.450  14.291   6.022 -0.2612 -0.0333  0.1754
 1004YOPC   C1A11501   5.912  14.049   6.172 -0.1459 -0.0244  0.2465
 1004YOPC   D2A11502   6.375  14.077   6.253  0.3401  0.2156  0.1445
 1004YOPC   C3A11503   6.632  14.486   6.123 -0.2430 -0.0979  0.2076
 1004YOPC   C4A11504   6.554  14.968   6.090  0.2297  0.0149 -0.0893
 1004YOPC   C1B11505   5.485  14.372   6.471  0.0926 -0.2720 -0.1232
 1004YOPC   C2B11506   5.668  14.585   6.815 -0.1677 -0.4746 -0.2907
 1004YOPC   D3B11507   5.562  14.791   7.207 -0.0590 -0.0859  0.2002
 1004YOPC   C4B11508   5.262  15.066   7.298 -0.0575 -0.0176  0.1525
 1005YOPC   NC311509  15.524  11.846   6.657  0.0697 -0.1062 -0.0477
 1005YOPC   PO411510  15.449  11.392   6.742 -0.2011  0.0410  0.3170
 1005YOPC   GL111511  15.424  11.481   7.088 -0.3767 -0.0852 -0.1922
 1005YOPC   GL211512  15.172  11.681   7.118  0.1375 -0.0624  0.1410
 1005YOPC   C1A11513  15.413  11.307   7.471  0.2379  0.1774 -0.4665
 1005YOPC   D2A11514  15.436  11.211   7.959 -0.3205  0.0072  0.3042
 1005YOPC   C3A11515  15.510  11.401   8.292 -0.2007  0.2396 -0.0907
 1005YOPC   C4A11516  15.251  11.604   8.608 -0.2409  0.0322  0.0469
 1005YOPC   C1B11517  15.397  11.868   7.441 -0.2620 -0.2126  0.2872
 1005YOPC   C2B11518  15.611  11.983   7.798 -0.0310  0.1802 -0.2179
 1005YOPC   D3B11519  15.739  11.827   8.126  0.0255 -0.0176 -0.0488
 1005YOPC   C4B11520  15.678  11.830   8.594  0.0221 -0.1907  0.0730
 1006YOPC   NC311521  13.837  15.166   6.101 -0.1847  0.2654  0.1685
 1006YOPC   PO411522  13.559  15.378   6.113 -0.1395  0.0782 -0.1431
 1006YOPC   GL111523  13.434  15.278   6.457 -0.0279 -0.0052  0.5043
 1006YOPC   GL211524  13.279  14.977   6.591  0.0432 -0.1243 -0.1200
 1006YOPC   C1A11525  13.164  15.503   6.854  0.0616 -0.2503  0.2443
 1006YOPC   D2A11526  13.077  15.933   7.008 -0.1589 -0.1301  0.0039
 1006YOPC   C3A11527  13.092  15.965   7.332  0.5686  0.2477  0.0927
 1006YOPC   C4A11528  13.095  15.956   7.794 -0.0815  0.0367  0.1692
 1006YOPC   C1B11529  13.320  14.848   6.991  0.1244  0.0284  0.1788
 1006YOPC   C2B11530  13.149  14.697   7.389 -0.4350  0.1236 -0.0663
 1006YOPC   D3B11531  13.344  14.727   7.790 -0.1297 -0.1362  0.2010
 1006YOPC   C4B11532  13.345  14.919   8.162 -0.1219  0.1448 -0.0139
 1007YOPC   NC311533   8.276   6.566   6.460  0.0760  0.1137 -0.0283
 1007YOPC   PO411534   8.031   6.263   6.616 -0.2578 -0.0280  0.1137
 1007YOPC   GL111535   7.927   6.336   7.105 -0.2035 -0.1437  0.2066
 1007YOPC   GL211536   7.784   6.043   7.233 -0.0293  0.0897  0.1256
 1007YOPC   C1A11537   7.774   6.450   7.526  0.1966  0.1713 -0.2455
 1007YOPC   D2A11538   7.590   6.149   7.837 -0.0217  0.1135  0.0569
 1007YOPC   C3A11539   7.259   6.304   8.098 -0.3474 -0.1339 -0.0052
 1007YOPC   C4A11540   7.075   6.527   8.443 -0.0106  0.0063  0.1718
 1007YOPC   C1B11541   7.893   5.770   7.578  0.0052  0.3481  0.1746
 1007YOPC   C2B11542   8.125   5.533   7.664 -0.1214 -0.0691 -0.2620
 1007YOPC   D3B11543   8.188   5.276   8.017 -0.2473  0.1522  0.2536
 1007YOPC   C4B11544   7.915   4.902   8.228 -0.2683  0.0924  0.2144
 1008YOPC   NC311545  13.492  14.416   6.172  0.0770 -0.0075  0.3477
 1008YOPC   PO411546  13.313  14.108   6.364  0.0034 -0.2019 -0.2989
 1008YOPC   GL111547  13.155  14.300   6.733  0.0143  0.1382  0.2597
 1008YOPC   GL211548  12.967  14.082   6.918  0.0070 -0.2514 -0.1421
 1008YOPC   C1A11549  12.888  14.581   6.974  0.0034 -0.1652 -0.2503
 1008YOPC   D2A11550  12.629  14.682   7.312  0.1841 -0.0506 -0.0358
 1008YOPC   C3A11551  12.701  14.773   7.686  0.0300 -0.2454  0.2160
 1008YOPC   C4A11552  12.932  14.691   8.145  0.2141  0.0431  0.1028
 1008YOPC   C1B11553  12.913  14.244   7.382  0.1901  0.0592 -0.0280
 1008YOPC   C2B11554  12.972  14.388   7.792 -0.3258  0.2161  0.1714
 1008YOPC   D3B11555  13.333  14.334   8.149  0.3871 -0.1768 -0.1370
 1008YOPC   C4B11556  13.648  14.416   8.438  0.1023 -0.0345 -0.1102
 1009YOPC   NC311557   6.954  13.916   5.852  0.0769 -0.1129  0.4932
 1009YOPC   PO411558   7.014  13.443   5.661 -0.2830 -0.0185  0.1631
 1009YOPC   GL111559   7.036  13.404   6.097  0.1650 -0.3200  0.3182
 1009YOPC   GL211560   7.209  13.119   6.225 -0.1049  0.1780  0.3197
 1009YOPC   C1A11561   6.887  13.212   6.563  0.2406 -0.0760 -0.0626
 1009YOPC   D2A11562   7.004  13.275   7.074  0.0878  0.4792  0.0741
 1009YOPC   C3A11563   7.185  13.620   7.274  0.1086 -0.0017  0.0260
 1009YOPC   C4A11564   7.405  13.633   7.653 -0.4890  0.0290 -0.2325
 1009YOPC   C1B11565   7.392  12.955   6.619 -0.0695  0.0305  0.0742
 1009YOPC   C2B11566   7.669  12.850   6.836  0.0964  0.2429  0.2918
 1009YOPC   D3B11567   7.598  12.795   7.152 -0.1417  0.0731 -0.2479
 1009YOPC   C4B11568   7.646  12.645   7.640  0.0115  0.2871  0.6825
 1010YOPC   NC311569   9.140  17.649   5.834  0.2629 -0.1520 -0.2877
 1010YOPC   PO411570   9.366  18.096   5.784  0.0922 -0.1877  0.1743
 1010YOPC   GL111571   9.444  17.875   6.180  0.5065  0.1143 -0.0959
 1010YOPC   GL211572   9.451  18.106   6.368  0.1709 -0.3171 -0.1793
 1010YOPC   C1A11573   9.551  17.742   6.652 -0.2155 -0.3422  0.0538
 1010YOPC   D2A11574   9.177  17.822   6.952 -0.2428  0.0527  0.2125
 1010YOPC   C3A11575   9.235  17.882   7.408 -0.1028 -0.0721  0.0291
 1010YOPC   C4A11576   9.016  18.034   7.800 -0.0285  0.1933 -0.2881
 1010YOPC   C1B11577   9.499  18.208   6.871 -0.4075 -0.2882  0.0650
 1010YOPC   C2B11578   9.541  18.633   6.974  0.3633  0.0957  0.2191
 1010YOPC   D3B11579   9.501  18.847   7.323  0.1609 -0.0812 -0.2018
 1010YOPC   C4B11580   9.570  19.072   7.707 -0.1128  0.1147 -0.0788
 1011YOPC   NC311581   5.369   2.287   6.063 -0.3448  0.0765 -0.0403
 1011YOPC   PO411582   5.076   1.966   6.061  0.1175  0.0782  0.1235
 1011YOPC   GL111583   4.776   2.259   6.299  0.0196 -0.1644  0.0014
 1011YOPC   GL211584   4.703   2.594   6.358  0.1515 -0.2228 -0.2024
 1011YOPC   C1A11585   4.415   2.186   6.696  0.1436 -0.1014 -0.0140
 1011YOPC   D2A11586   4.144   2.114   7.035 -0.0320  0.3173 -0.1837
 1011YOPC   C3A11587   4.070   1.753   7.369  0.0653  0.3036  0.2783
 1011YOPC   C4A11588   4.196   1.542   7.828  0.1528 -0.0301  0.0466
 1011YOPC   C1B11589   4.679   2.731   6.848 -0.0058 -0.3335 -0.0204
 1011YOPC   C2B11590   4.450   2.520   7.186  0.0602 -0.2650  0.0097
 1011YOPC   D3B11591   4.579   2.580   7.620  0.0632 -0.0214 -0.0422
 1011YOPC   C4B11592   4.598   2.508   7.986  0.1061 -0.2563 -0.2922
 1012YOPC   NC311593  15.967  11.361   6.487  0.3224  0.3012  0.2506
 1012YOPC   PO411594  16.304  11.740   6.572  0.0561  0.0857  0.0063
 1012YOPC   GL111595  16.273  11.948   6.937  0.1948 -0.0436 -0.2546
 1012YOPC   GL211596  16.300  12.269   7.120  0.5527 -0.0722  0.2053
 1012YOPC   C1A11597  16.277  11.826   7.395 -0.1431 -0.3445 -0.1961
 1012YOPC   D2A11598  16.107  11.917   7.857  0.3477  0.2539  0.3680
 1012YOPC   C3A11599  16.208  11.683   8.171 -0.0450 -0.1882  0.1682
 1012YOPC   C4A11600  16.437  11.619   8.559 -0.1298  0.1295 -0.1403
 1012YOPC   C1B11601  16.333  12.329   7.571 -0.5056 -0.1122 -0.3036
 1012YOPC   C2B11602  16.364  12.423   7.998  0.1904  0.0709  0.0877
 1012YOPC   D3B11603  16.709  12.430   8.324 -0.0311  0.0851 -0.0741
 1012YOPC   C4B11604  17.038  12.550   8.518  0.0633 -0.0177  0.2351
 1013YOPC   NC311605  12.601   5.562   6.728  0.1304 -0.0382  0.0442
 1013YOPC   PO411606  12.284   5.377   6.686  0.3086  0.1196  0.1423
 1013YOPC   GL111607  12.511   5.085   7.002 -0.1167  0.1332 -0.1320
 1013YOPC   GL211608  12.794   5.185   6.942 -0.2432  0.1184 -0.2327
 1013YOPC   C1A11609  12.386   4.948   7.394  0.2014  0.0085 -0.0048
 1013YOPC   D2A11610  12.459   4.541   7.715 -0.1292 -0.2251 -0.1054
 1013YOPC   C3A11611  12.560   4.679   8.120 -0.2639  0.0066 -0.2410
 1013YOPC   C4A11612  12.842   4.849   8.442  0.0401 -0.0313  0.2896
 1013YOPC   C1B11613  12.868   4.760   7.291  0.1159 -0.2825  0.0126
 1013YOPC   C2B11614  13.232   4.546   7.448 -0.1322 -0.1221  0.0511
 1013YOPC   D3B11615  13.075   4.246   7.824  0.0871  0.1734  0.3587
 1013YOPC   C4B11616  12.712   4.209   8.086  0.0330  0.2991 -0.0873
 1014YOPC   NC311617   2.503  16.206   5.956 -0.1286  0.3426 -0.2479
 1014YOPC   PO411618   2.258  15.824   6.165 -0.0861 -0.0094  0.0439
 1014YOPC   GL111619   2.190  15.488   6.410 -0.0733 -0.0980 -0.0954
 1014YOPC   GL211620   1.907  15.408   6.340  0.3291 -0.1525 -0.1515
 1014YOPC   C1A11621   2.332  15.209   6.643 -0.2237 -0.3238  0.0405
 1014YOPC   D2A11622   2.630  15.074   6.425 -0.0697  0.0222  0.0049
 1014YOPC   C3A11623   2.629  14.676   6.493  0.0107 -0.0048 -0.2786
 1014YOPC   C4A11624   2.828  14.277   6.550  0.2744  0.0599 -0.0374
 1014YOPC   C1B11625   1.856  15.411   6.760  0.3294 -0.3656  0.3232
 1014YOPC   C2B11626   1.815  15.143   7.117  0.0332 -0.0859 -0.1983
 1014YOPC   D3B11627   1.917  15.093   7.507 -0.0924 -0.0055 -0.1673
 1014YOPC   C4B11628   1.936  14.868   7.846  0.0847 -0.1603 -0.3500
 1015YOPC   NC311629  10.064  12.726   5.594  0.1914 -0.0143  0.1485
 1015YOPC   PO411630  10.185  13.131   5.626  0.0704  0.1154 -0.0900
 1015YOPC   GL111631  10.378  13.203   6.094 -0.0993 -0.0717  0.0803
 1015YOPC   GL211632  10.715  13.146   6.222 -0.1133 -0.1912 -0.2890
 1015YOPC   C1A11633  10.422  13.087   6.588 -0.2677  0.1698  0.1002
 1015YOPC   D2A11634  10.587  12.952   7.046 -0.0068 -0.2390  0.0466
 1015YOPC   C3A11635  10.495  12.972   7.416  0.1686 -0.1718  0.0792
 1015YOPC   C4A11636  10.850  12.749   7.704  0.1434 -0.1902  0.0968
 1015YOPC   C1B11637  10.901  13.040   6.592 -0.3010  0.2257 -0.4380
 1015YOPC   C2B11638  11.069  12.798   6.728  0.2730 -0.2248  0.0744
 1015YOPC   D3B11639  11.000  12.309   6.734  0.0386 -0.3405  0.2149
 1015YOPC   C4B11640  10.632  11.905   6.706  0.0381  0.1004  0.2604
 1016YOPC   NC311641   1.160   4.392   6.211 -0.0839 -0.1288 -0.2450
 1016YOPC   PO411642   0.745   4.022   6.316 -0.1143  0.0689 -0.1042
 1016YOPC   GL111643   0.965   4.080   6.744  0.0107  0.1730 -0.1337
 1016YOPC   GL211644   1.190   3.769   6.838  0.3920 -0.0899  0.4334
 1016YOPC   C1A11645   1.084   4.380   6.995  0.1535 -0.0240  0.2399
 1016YOPC   D2A11646   1.424   4.663   7.171  0.1167  0.1331 -0.1210
 1016YOPC   C3A11647   1.855   4.651   7.318  0.2449  0.0851 -0.1002
 1016YOPC   C4A11648   2.090   4.370   7.366 -0.0593  0.1557  0.0947
 1016YOPC   C1B11649   1.076   3.862   7.198 -0.2542 -0.0456  0.0180
 1016YOPC   C2B11650   1.050   3.970   7.599  0.0386 -0.0556 -0.2595
 1016YOPC   D3B11651   0.743   4.207   7.991 -0.0123  0.2954  0.2022
 1016YOPC   C4B11652   0.620   4.648   8.149  0.0311 -0.2486  0.0543
 1017YOPC   NC311653   6.401   1.037   5.846  0.3325  0.1424 -0.1470
 1017YOPC   PO411654   6.777   0.895   5.940 -0.0981 -0.0093  0.0361
 1017YOPC   GL111655   6.547   1.008   6.297  0.3158  0.0764 -0.3428
 1017YOPC   GL211656   6.109   0.919   6.223  0.0989 -0.3157 -0.2194
 1017YOPC   C1A11657   6.517   1.255   6.647  0.0287  0.1776  0.0743
 1017YOPC   D2A11658   6.521   1.313   7.078 -0.0836 -0.0901  0.1734
 1017YOPC   C3A11659   6.784   1.284   7.393 -0.2168  0.1723  0.0809
 1017YOPC   C4A11660   6.758   1.529   7.681 -0.1769 -0.0842 -0.1176
 1017YOPC   C1B11661   5.999   1.010   6.649 -0.1809 -0.2301 -0.1039
 1017YOPC   C2B11662   6.051   1.064   7.005 -0.1391  0.0581 -0.0769
 1017YOPC   D3B11663   6.020   1.409   7.175  0.2112 -0.2539  0.0351
 1017YOPC   C4B11664   5.881   1.898   7.213 -0.1489  0.0462 -0.1511
 1018YOPC   NC311665   8.942   1.761   5.749 -0.1811 -0.1029 -0.1405
 1018YOPC   PO411666   8.520   1.620   5.897  0.0837 -0.0955  0.1088
 1018YOPC   GL111667   8.558   1.771   6.309 -0.1542 -0.0909  0.1473
 1018YOPC   GL211668   8.454   1.539   6.426  0.1291  0.0244 -0.1052
 1018YOPC   C1A11669   8.784   1.961   6.649  0.0769  0.1584  0.0106
 1018YOPC   D2A11670   9.074   1.937   6.960 -0.1117  0.2753 -0.3482
 1018YOPC   C3A11671   9.124   1.493   7.053 -0.0856  0.0705  0.1069
 1018YOPC   C4A11672   8.970   1.216   7.311  0.1180 -0.0091 -0.0519
 1018YOPC   C1B11673   8.388   1.680   6.834 -0.3205 -0.2093 -0.1748
 1018YOPC   C2B11674   8.620   1.556   7.168 -0.2096 -0.0468  0.0307
 1018YOPC   D3B11675   8.498   1.406   7.619  0.1105 -0.4935  0.0613
 1018YOPC   C4B11676   8.422   1.198   7.953  0.1637  0.0353 -0.0035
 1019YOPC   NC311677  16.329   8.514   6.413 -0.4176  0.2123  0.1602
 1019YOPC   PO411678  16.530   8.928   6.500  0.0279 -0.0423  0.0115
 1019YOPC   GL111679  16.552   9.154   6.839 -0.0006 -0.0176 -0.0192
 1019YOPC   GL211680  16.794   9.353   6.898 -0.2771 -0.1439 -0.2758
 1019YOPC   C1A11681  16.469   8.961   7.223  0.0630 -0.2027  0.0464
 1019YOPC   D2A11682  16.533   8.983   7.664 -0.1634 -0.2148  0.3082
 1019YOPC   C3A11683  16.953   9.043   7.936  0.2092  0.0413 -0.1535
 1019YOPC   C4A11684  17.442   9.244   7.989  0.0851  0.0702 -0.0933
 1019YOPC   C1B11685  16.896   9.208   7.334 -0.1139 -0.1088  0.0760
 1019YOPC   C2B11686  17.306   8.954   7.557  0.0935 -0.3068  0.2255
 1019YOPC   D3B11687  17.704   9.120   7.539 -0.0280 -0.0585 -0.0493
 1019YOPC   C4B11688  17.816   9.453   7.772 -0.1171  0.2282 -0.1569
 1020YOPC   NC311689  18.453  12.781   6.154 -0.0553 -0.2949  0.1669
 1020YOPC   PO411690  18.870  12.427   6.162  0.0558  0.0432  0.0174
 1020YOPC   GL111691  18.837  12.593   6.592  0.2270  0.0123 -0.1722
 1020YOPC   GL211692  18.505  12.809   6.634  0.2048  0.2411 -0.0990
 1020YOPC   C1A11693  19.227  12.639   6.759  0.0203 -0.1493 -0.1751
 1020YOPC   D2A11694  19.346  12.877   7.107 -0.3869 -0.0507 -0.4090
 1020YOPC   C3A11695  19.231  12.814   7.486 -0.1905 -0.1832  0.0106
 1020YOPC   C4A11696  19.467  12.774   7.757 -0.1168  0.3332 -0.1901
 1020YOPC   C1B11697  18.302  12.488   7.025 -0.2685 -0.0935 -0.0017
 1020YOPC   C2B11698  18.378  12.441   7.431 -0.1393  0.0057  0.0570
 1020YOPC   D3B11699  18.148  12.112   7.770  0.0681  0.2275 -0.1097
 1020YOPC   C4B11700  17.977  11.725   7.635  0.1332 -0.3178 -0.1122
 1021YOPC   NC311701  16.696   6.066   6.327 -0.2001 -0.1504 -0.0454
 1021YOPC   PO411702  16.537   5.702   6.340 -0.1156  0.0011  0.2320
 1021YOPC   GL111703  16.500   5.641   6.768  0.2180  0.3048 -0.4619
 1021YOPC   GL211704  16.363   5.804   6.970 -0.0164  0.2152  0.1058
 1021YOPC   C1A11705  16.781   5.434   7.089  0.2743 -0.0645 -0.4539
 1021YOPC   D2A11706  16.889   5.506   7.538  0.3862  0.1746  0.1383
 1021YOPC   C3A11707  16.592   5.739   7.724 -0.2732  0.3122  0.0174
 1021YOPC   C4A11708  16.497   6.016   8.037  0.1519 -0.1964 -0.1135
 1021YOPC   C1B11709  16.380   5.518   7.313 -0.2320 -0.3284 -0.1981
 1021YOPC   C2B11710  16.327   5.250   7.786  0.1747  0.2984  0.1340
 1021YOPC   D3B11711  16.193   5.575   8.116  0.3358  0.2104 -0.0365
 1021YOPC   C4B11712  16.326   5.780   8.458 -0.1063 -0.2173 -0.0652
 1022YOPC   NC311713   7.949   8.003   6.404  0.2144  0.2516 -0.2577
 1022YOPC   PO411714   8.243   7.588   6.601 -0.0464 -0.4012 -0.0758
 1022YOPC   GL111715   8.013   7.816   6.894  0.0867 -0.0204 -0.1542
 1022YOPC   GL211716   7.635   7.808   7.010  0.1465 -0.0738  0.1235
 1022YOPC   C1A11717   8.043   7.648   7.236  0.0597 -0.0298  0.0581
 1022YOPC   D2A11718   7.871   7.602   7.616  0.0122  0.2318 -0.1647
 1022YOPC   C3A11719   7.921   7.558   8.058  0.1499  0.1768  0.4922
 1022YOPC   C4A11720   7.653   7.444   8.466  0.3275  0.0863 -0.1518
 1022YOPC   C1B11721   7.449   7.877   7.382 -0.0374  0.0103  0.2211
 1022YOPC   C2B11722   7.557   7.916   7.823  0.1129 -0.0100 -0.0263
 1022YOPC   D3B11723   7.344   7.663   8.092  0.0572  0.2924  0.0584
 1022YOPC   C4B11724   7.177   7.614   8.541 -0.1359 -0.0867 -0.0775
 1023YOPC   NC311725  12.183   2.316   6.520  0.1657  0.4987 -0.3439
 1023YOPC   PO411726  12.409   1.995   6.276 -0.2759  0.3051 -0.0596
 1023YOPC   GL111727  12.423   1.909   6.651 -0.1646 -0.2882  0.1106
 1023YOPC   GL211728  12.077   1.802   6.742 -0.1918  0.0643 -0.2931
 1023YOPC   C1A11729  12.443   1.932   7.183  0.0560 -0.2477  0.2991
 1023YOPC   D2A11730  12.699   1.865   7.502  0.3857 -0.0352  0.0347
 1023YOPC   C3A11731  12.867   1.576   7.838  0.2075 -0.4232 -0.0860
 1023YOPC   C4A11732  12.891   1.313   8.216 -0.1647  0.3663 -0.1311
 1023YOPC   C1B11733  12.080   1.516   7.089  0.2632 -0.0150  0.1436
 1023YOPC   C2B11734  12.153   1.576   7.484 -0.1002  0.0649 -0.1271
 1023YOPC   D3B11735  12.344   1.692   7.864  0.0485  0.2989  0.1396
 1023YOPC   C4B11736  12.659   1.928   8.156  0.1043  0.3236 -0.0607
 1024YOPC   NC311737  17.060  17.417   5.493 -0.1826  0.0839 -0.3036
 1024YOPC   PO411738  17.097  17.061   5.803 -0.2919  0.1023  0.2462
 1024YOPC   GL111739  16.989  17.307   6.197 -0.0550  0.1113 -0.1252
 1024YOPC   GL211740  16.958  17.115   6.432  0.1389 -0.0837  0.3719
 1024YOPC   C1A11741  17.113  17.621   6.471 -0.0092  0.1281  0.0639
 1024YOPC   D2A11742  17.430  17.446   6.846  0.1837 -0.2604  0.1445
 1024YOPC   C3A11743  17.597  17.407   7.397 -0.2064 -0.3784 -0.3636
 1024YOPC   C4A11744  17.776  17.438   7.809 -0.0101  0.0142  0.0656
 1024YOPC   C1B11745  16.960  17.229   6.821  0.0561 -0.0281 -0.0887
 1024YOPC   C2B11746  17.157  17.274   7.184  0.1555 -0.2258 -0.2329
 1024YOPC   D3B11747  17.178  17.468   7.664 -0.0740  0.2390  0.1121
 1024YOPC   C4B11748  17.016  17.703   8.011  0.1799 -0.2431 -0.3077
 1025YOPC   NC311749  17.970  17.374   5.779  0.3049 -0.0342 -0.0933
 1025YOPC   PO411750  17.908  17.925   5.720  0.0226  0.4463 -0.2143
 1025YOPC   GL111751  17.977  17.736   6.169 -0.2214  0.0100  0.2666
 1025YOPC   GL211752  18.296  17.632   6.272  0.0821  0.2081 -0.2388
 1025YOPC   C1A11753  17.731  17.721   6.550 -0.2365  0.0371  0.2117
 1025YOPC   D2A11754  17.486  17.957   6.908 -0.1079  0.2233 -0.2059
 1025YOPC   C3A11755  17.726  17.900   7.217 -0.2761  0.0052 -0.0839
 1025YOPC   C4A11756  18.037  17.719   7.477 -0.1572  0.0557  0.1079
 1025YOPC   C1B11757  18.243  17.726   6.638  0.0296 -0.1662  0.1142
 1025YOPC   C2B11758  17.936  17.582   6.963 -0.0384 -0.4763 -0.3059
 1025YOPC   D3B11759  18.085  17.262   7.292  0.1322 -0.2764  0.1191
 1025YOPC   C4B11760  17.990  17.006   7.711  0.3878 -0.0171  0.1674
 1026YOPC   NC311761   8.726  10.286   5.736  0.0297 -0.0484 -0.3102
 1026YOPC   PO411762   8.332  10.592   5.786 -0.0522 -0.0960  0.0390
 1026YOPC   GL111763   8.182  10.775   6.181 -0.2012 -0.0298  0.2470
 1026YOPC   GL211764   7.988  10.576   6.398  0.1090 -0.0609  0.1084
 1026YOPC   C1A11765   8.393  10.858   6.529 -0.0162 -0.2894  0.1162
 1026YOPC   D2A11766   8.796  10.772   6.682  0.2123 -0.1045  0.0992
 1026YOPC   C3A11767   8.721  10.606   7.135 -0.2523  0.1519 -0.0460
 1026YOPC   C4A11768   8.745  10.408   7.400 -0.2576 -0.1624 -0.2757
 1026YOPC   C1B11769   7.841  10.991   6.592 -0.3022  0.1479 -0.1829
 1026YOPC   C2B11770   7.544  11.249   6.810 -0.2542  0.3532 -0.1699
 1026YOPC   D3B11771   7.252  11.155   7.080  0.0372  0.1689 -0.0241
 1026YOPC   C4B11772   6.829  11.111   6.799 -0.0687  0.2336  0.1063
 1027YOPC   NC311773   5.156   5.621   5.855  0.1867  0.1570  0.3087
 1027YOPC   PO411774   5.308   5.318   6.217  0.1355  0.2466 -0.1155
 1027YOPC   GL111775   5.403   5.488   6.568  0.0755 -0.2735 -0.0800
 1027YOPC   GL211776   5.581   5.151   6.668  0.3369  0.1345  0.0609
 1027YOPC   C1A11777   5.657   5.689   6.941 -0.0741 -0.0295  0.0257
 1027YOPC   D2A11778   5.740   5.633   7.360 -0.1257  0.1332 -0.0019
 1027YOPC   C3A11779   5.342   5.636   7.535  0.0169  0.0426 -0.1814
 1027YOPC   C4A11780   5.312   6.056   7.860 -0.0211 -0.1321  0.1387
 1027YOPC   C1B11781   5.551   5.181   7.104  0.4846 -0.0587 -0.1059
 1027YOPC   C2B11782   5.465   5.165   7.516  0.0022 -0.0037 -0.0632
 1027YOPC   D3B11783   5.111   5.220   7.646 -0.0570  0.0857 -0.1719
 1027YOPC   C4B11784   4.650   5.140   7.701  0.3438  0.0598  0.1626
 1028YOPC   NC311785   7.871  11.620   5.853 -0.2141 -0.2790 -0.1062
 1028YOPC   PO411786   7.388  11.504   5.935 -0.1219 -0.5375 -0.0155
 1028YOPC   GL111787   7.531  11.575   6.335 -0.0124  0.1591 -0.0066
 1028YOPC   GL211788   7.310  11.906   6.417 -0.0488 -0.0124  0.2084
 1028YOPC   C1A11789   7.944  11.483   6.581  0.0912  0.0693  0.2174
 1028YOPC   D2A11790   8.013  11.623   7.049 -0.0612 -0.2705 -0.3171
 1028YOPC   C3A11791   8.063  11.380   7.395  0.0321 -0.0504  0.0139
 1028YOPC   C4A11792   8.043  11.169   7.674  0.0521  0.1662 -0.1686
 1028YOPC   C1B11793   7.440  11.707   6.764  0.2021  0.1001  0.0022
 1028YOPC   C2B11794   7.522  11.716   7.152  0.0806  0.0616  0.1340
 1028YOPC   D3B11795   7.570  11.423   7.329 -0.1651  0.1457 -0.0448
 1028YOPC   C4B11796   7.624  11.356   7.733 -0.3608  0.0343 -0.3655
 1029YOPC   NC311797  14.088   7.579   5.846  0.3097  0.0989  0.2762
 1029YOPC   PO411798  13.920   7.413   6.148 -0.0070  0.2335 -0.0017
 1029YOPC   GL111799  14.136   7.473   6.587 -0.3872  0.0178 -0.1357
 1029YOPC   GL211800  14.143   7.791   6.575  0.0802 -0.2966  0.1047
 1029YOPC   C1A11801  14.155   7.377   6.962  0.3253  0.1836  0.0055
 1029YOPC   D2A11802  14.144   7.258   7.361 -0.3693  0.1615  0.1772
 1029YOPC   C3A11803  14.005   7.386   7.760  0.1967 -0.1098  0.1875
 1029YOPC   C4A11804  13.662   7.736   7.747  0.1098  0.3318  0.0720
 1029YOPC   C1B11805  13.788   7.818   6.741  0.1059 -0.1758 -0.0730
 1029YOPC   C2B11806  13.315   7.799   6.780 -0.0249  0.0936 -0.0033
 1029YOPC   D3B11807  12.934   8.051   6.656  0.0353 -0.3996 -0.4268
 1029YOPC   C4B11808  12.530   8.233   6.669  0.2221  0.1899 -0.2556
 1030YOPC   NC311809   5.576  16.460   5.856  0.1113  0.3274 -0.0857
 1030YOPC   PO411810   5.293  16.158   5.941 -0.1750 -0.1581 -0.1387
 1030YOPC   GL111811   5.599  16.174   6.234 -0.0084  0.0177  0.2006
 1030YOPC   GL211812   5.502  15.794   6.298  0.0922 -0.0289  0.0880
 1030YOPC   C1A11813   5.884  16.420   6.485 -0.0810 -0.1507 -0.0701
 1030YOPC   D2A11814   5.972  16.430   6.878  0.4034 -0.1687 -0.1310
 1030YOPC   C3A11815   6.143  16.575   7.288 -0.2408 -0.0606 -0.0154
 1030YOPC   C4A11816   6.195  16.335   7.672  0.2148  0.0197  0.0159
 1030YOPC   C1B11817   5.396  15.577   6.743  0.0666 -0.1105 -0.0165
 1030YOPC   C2B11818   5.564  15.196   6.806  0.1359  0.2899 -0.0991
 1030YOPC   D3B11819   5.734  15.267   7.111  0.0228 -0.0311 -0.0979
 1030YOPC   C4B11820   6.016  15.040   7.390 -0.0403  0.0393  0.1154
 1031YOPC   NC311821   3.772   3.895   6.120 -0.1611  0.0990 -0.0234
 1031YOPC   PO411822   3.815   4.302   6.222  0.0463 -0.0829 -0.2172
 1031YOPC   GL111823   3.753   4.340   6.577 -0.0714 -0.2287 -0.1163
 1031YOPC   GL211824   3.556   4.104   6.605 -0.1068  0.3042  0.0037
 1031YOPC   C1A11825   3.784   4.323   7.026  0.0106  0.1735 -0.1359
 1031YOPC   D2A11826   4.040   4.337   7.454  0.1115  0.1100 -0.1176
 1031YOPC   C3A11827   3.814   4.269   7.922 -0.0579  0.1054 -0.0742
 1031YOPC   C4A11828   3.777   4.309   8.416  0.1083  0.0206  0.0560
 1031YOPC   C1B11829   3.356   3.984   6.946 -0.2487  0.0476 -0.2711
 1031YOPC   C2B11830   3.471   4.036   7.297  0.0531 -0.1957 -0.1198
 1031YOPC   D3B11831   3.432   4.286   7.644  0.0453 -0.0165 -0.0856
 1031YOPC   C4B11832   3.372   4.630   7.899  0.1671 -0.1461 -0.0335
 1032YOPC   NC311833   6.475   5.548   5.928 -0.0676  0.4883  0.0520
 1032YOPC   PO411834   6.636   5.252   6.166 -0.1602 -0.1343  0.0072
 1032YOPC   GL111835   6.705   5.577   6.388 -0.0113  0.1567 -0.2931
 1032YOPC   GL211836   6.811   5.884   6.452 -0.2498 -0.0102  0.0021
 1032YOPC   C1A11837   6.571   5.426   6.762  0.2137 -0.2459  0.1685
 1032YOPC   D2A11838   6.485   5.410   7.158  0.1901  0.1933  0.0695
 1032YOPC   C3A11839   6.438   5.303   7.593  0.0368 -0.0535 -0.2061
 1032YOPC   C4A11840   6.282   5.466   8.039  0.1783  0.2049 -0.2130
 1032YOPC   C1B11841   6.957   5.736   6.835 -0.1166  0.2407  0.2291
 1032YOPC   C2B11842   6.817   5.794   7.149  0.0576 -0.3965  0.3438
 1032YOPC   D3B11843   6.839   5.582   7.436  0.1156  0.0254 -0.0776
 1032YOPC   C4B11844   6.868   5.483   7.807 -0.1080  0.0853 -0.0784
 1033YOPC   NC311845   3.427  11.180   5.700  0.1169 -0.2370  0.1283
 1033YOPC   PO411846   3.014  11.099   5.957 -0.0940  0.3298 -0.1721
 1033YOPC   GL111847   2.808  11.093   6.317  0.0357 -0.0543 -0.0697
 1033YOPC   GL211848   2.759  10.876   6.546  0.1646  0.0281  0.0833
 1033YOPC   C1A11849   2.738  11.395   6.655 -0.0367  0.6328  0.0458
 1033YOPC   D2A11850   2.366  11.516   6.857  0.3428 -0.0421  0.0603
 1033YOPC   C3A11851   1.926  11.576   6.633  0.0253 -0.1323 -0.1850
 1033YOPC   C4A11852   1.587  11.229   6.702 -0.2619 -0.1302 -0.3356
 1033YOPC   C1B11853   2.531  11.045   6.901  0.3560 -0.0237 -0.0029
 1033YOPC   C2B11854   2.398  10.775   7.213 -0.1299 -0.0735 -0.1158
 1033YOPC   D3B11855   2.218  10.954   7.625 -0.2234  0.0131 -0.0739
 1033YOPC   C4B11856   2.164  11.390   7.776  0.1814 -0.0188  0.0369
 1034YOPC   NC311857   9.790  15.453   5.588 -0.1188  0.1212  0.0202
 1034YOPC   PO411858  10.118  15.529   5.840  0.0996 -0.1961 -0.0146
 1034YOPC   GL111859  10.316  15.370   6.118  0.0961 -0.0699  0.2441
 1034YOPC   GL211860  10.583  15.446   6.272 -0.0002  0.1055 -0.3157
 1034YOPC   C1A11861  10.224  15.255   6.575  0.4644 -0.1901  0.2283
 1034YOPC   D2A11862  10.052  15.482   6.944 -0.1886 -0.1510  0.0596
 1034YOPC   C3A11863  10.002  15.339   7.390 -0.0750 -0.0774 -0.0730
 1034YOPC   C4A11864   9.881  15.043   7.740  0.0501 -0.3292 -0.0621
 1034YOPC   C1B11865  10.207  15.741   6.484  0.0309 -0.0506  0.0886
 1034YOPC   C2B11866   9.735  15.774   6.487 -0.0756 -0.0531  0.0858
 1034YOPC   D3B11867   9.585  15.675   6.901  0.1655 -0.1506  0.2673
 1034YOPC   C4B11868   9.610  15.633   7.225  0.4620  0.3063  0.2617
 1035YOPC   NC311869  12.934   0.462   5.672 -0.1878  0.2136  0.3833
 1035YOPC   PO411870  12.999   0.400   6.107 -0.0302 -0.0496 -0.0729
 1035YOPC   GL111871  12.869   0.607   6.430  0.4875  0.2003 -0.0330
 1035YOPC   GL211872  12.781   0.903   6.438 -0.1561  0.1936  0.1366
 1035YOPC   C1A11873  12.782   0.555   6.847 -0.2402  0.0913  0.0648
 1035YOPC   D2A11874  12.751   0.431   7.245 -0.0355 -0.0621  0.1697
 1035YOPC   C3A11875  13.147   0.214   7.570 -0.0488 -0.0302  0.1013
 1035YOPC   C4A11876  13.242   0.067   7.916 -0.1551 -0.0074 -0.0928
 1035YOPC   C1B11877  12.865   1.304   6.549  0.0583 -0.0819  0.0731
 1035YOPC   C2B11878  13.153   1.502   6.815 -0.0331 -0.1061  0.1928
 1035YOPC   D3B11879  13.460   1.287   7.031 -0.0972 -0.0601  0.1644
 1035YOPC   C4B11880  13.561   1.302   7.488  0.1414  0.2470  0.0774
 1036YOPC   NC311881   3.613   8.313   6.001 -0.2598  0.0245  0.0528
 1036YOPC   PO411882   3.478   7.903   6.169 -0.0313  0.0246  0.1129
 1036YOPC   GL111883   3.490   7.723   6.554  0.0093 -0.1480 -0.2720
 1036YOPC   GL211884   3.317   7.539   6.727 -0.0610 -0.3728 -0.1321
 1036YOPC   C1A11885   3.977   7.582   6.665 -0.0834 -0.1661 -0.2613
 1036YOPC   D2A11886   4.136   7.333   6.869 -0.0228 -0.1572  0.2747
 1036YOPC   C3A11887   4.279   7.271   7.187  0.0936  0.1209 -0.0724
 1036YOPC   C4A11888   4.028   7.399   7.579 -0.0119 -0.1294 -0.0731
 1036YOPC   C1B11889   3.218   7.621   7.145 -0.0795  0.0341  0.2539
 1036YOPC   C2B11890   3.108   7.634   7.544  0.0623 -0.1252 -0.2648
 1036YOPC   D3B11891   2.790   7.720   7.582 -0.2498 -0.0729  0.0281
 1036YOPC   C4B11892   2.556   7.799   7.840 -0.0688 -0.1519  0.0903
 1037YOPC   NC311893   8.283  12.449   5.736 -0.1386  0.0413 -0.0980
 1037YOPC   PO411894   7.973  12.097   5.809  0.0414 -0.4096  0.1139
 1037YOPC   GL111895   8.128  12.293   6.201 -0.0496  0.3708  0.3799
 1037YOPC   GL211896   8.277  12.588   6.210  0.2505 -0.0570 -0.1258
 1037YOPC   C1A11897   8.015  12.422   6.622 -0.2743 -0.1448 -0.1714
 1037YOPC   D2A11898   8.114  12.625   7.028 -0.0124  0.2361 -0.0661
 1037YOPC   C3A11899   8.075  12.466   7.448 -0.2414  0.1441  0.3065
 1037YOPC   C4A11900   7.937  12.216   7.786 -0.1279 -0.0831  0.1605
 1037YOPC   C1B11901   8.262  12.918   6.662  0.1527  0.2133  0.2422
 1037YOPC   C2B11902   8.018  13.136   7.033  0.1207 -0.0255 -0.0958
 1037YOPC   D3B11903   8.009  12.939   7.421 -0.0496 -0.1681  0.0592
 1037YOPC   C4B11904   8.419  12.925   7.717  0.5284  0.1220  0.0736
 1038YOPC   NC311905  12.093  11.469   6.447 -0.0871  0.0517  0.1921
 1038YOPC   PO411906  12.500  11.408   6.375  0.0588 -0.1485 -0.3374
 1038YOPC   GL111907  12.563  11.464   6.765 -0.1233 -0.0732 -0.1548
 1038YOPC   GL211908  12.695  11.276   6.905  0.2859 -0.1194  0.0239
 1038YOPC   C1A11909  12.508  11.686   7.212  0.1314  0.0277  0.1926
 1038YOPC   D2A11910  12.312  11.347   7.540 -0.1687  0.0096  0.1701
 1038YOPC   C3A11911  12.104  11.450   7.883 -0.0708 -0.1152  0.4555
 1038YOPC   C4A11912  12.033  11.614   8.290 -0.3342  0.0182  0.0868
 1038YOPC   C1B11913  12.249  11.208   7.082  0.3941 -0.0952 -0.0223
 1038YOPC   C2B11914  11.865  11.177   7.317 -0.0850 -0.2159  0.2523
 1038YOPC   D3B11915  11.574  11.398   7.141  0.1815  0.0444 -0.1476
 1038YOPC   C4B11916  11.580  11.662   6.835  0.5318 -0.1380 -0.2127
 1039YOPC   NC311917  12.260   1.284   5.780 -0.0698  0.3771  0.2261
 1039YOPC   PO411918  11.813   1.331   6.092  0.2181  0.0760 -0.0942
 1039YOPC   GL111919  12.075   1.172   6.488  0.1533  0.0563  0.2125
 1039YOPC   GL211920  11.747   1.092   6.744  0.0729 -0.1530  0.0868
 1039YOPC   C1A11921  12.485   1.108   6.809 -0.3268 -0.2450  0.1939
 1039YOPC   D2A11922  12.704   1.476   7.098 -0.2884  0.0646  0.2505
 1039YOPC   C3A11923  12.665   1.371   7.474 -0.1021  0.2564 -0.0127
 1039YOPC   C4A11924  12.516   1.231   7.859 -0.1037  0.0607  0.1594
 1039YOPC   C1B11925  11.921   1.065   7.236  0.0819 -0.0192 -0.2004
 1039YOPC   C2B11926  12.155   0.967   7.590 -0.0039  0.0289 -0.1767
 1039YOPC   D3B11927  11.874   0.759   7.874 -0.4895  0.0320 -0.2546
 1039YOPC   C4B11928  11.453   0.567   7.825 -0.1601  0.0797  0.2736
 1040YOPC   NC311929  11.435  15.859   5.889 -0.2289 -0.5408  0.0415
 1040YOPC   PO411930  11.893  15.770   6.075 -0.0218 -0.0325 -0.2848
 1040YOPC   GL111931  11.732  15.892   6.468 -0.1023  0.1096  0.0666
 1040YOPC   GL211932  11.957  16.159   6.665  0.0400 -0.1149  0.1321
 1040YOPC   C1A11933  11.679  15.876   6.954  0.0759 -0.0452 -0.0204
 1040YOPC   D2A11934  11.602  15.757   7.406 -0.1894 -0.3914 -0.0788
 1040YOPC   C3A11935  11.512  15.669   7.821 -0.2982 -0.0165 -0.0435
 1040YOPC   C4A11936  11.435  15.716   8.197  0.4752 -0.2631 -0.1849
 1040YOPC   C1B11937  12.136  16.183   7.150  0.1477 -0.3009  0.0592
 1040YOPC   C2B11938  12.151  16.168   7.617  0.0375  0.1880  0.1401
 1040YOPC   D3B11939  11.704  16.188   7.749  0.1788  0.1249 -0.1625
 1040YOPC   C4B11940  11.250  16.061   7.675 -0.1160 -0.1387  0.1591
 1041YOPC   NC311941   6.037   3.044   6.234  0.2651  0.1889  0.1950
 1041YOPC   PO411942   5.602   2.780   6.120  0.0580 -0.0430  0.0236
 1041YOPC   GL111943   5.490   2.767   6.436  0.1130  0.0541  0.1646
 1041YOPC   GL211944   5.192   2.512   6.476  0.0880  0.0904  0.0427
 1041YOPC   C1A11945   5.601   2.869   6.812 -0.2515 -0.2228 -0.0230
 1041YOPC   D2A11946   5.564   3.065   7.211 -0.0069  0.1590  0.0770
 1041YOPC   C3A11947   5.296   3.362   7.262  0.1354  0.2425  0.2777
 1041YOPC   C4A11948   5.291   3.741   7.432 -0.1491 -0.2853 -0.1196
 1041YOPC   C1B11949   5.034   2.296   6.905 -0.1349 -0.1217 -0.0202
 1041YOPC   C2B11950   4.944   2.369   7.301 -0.3849 -0.0218  0.3827
 1041YOPC   D3B11951   5.003   2.297   7.779  0.1117 -0.3014  0.0965
 1041YOPC   C4B11952   4.870   2.197   8.242 -0.1114  0.2425 -0.0397
 1042YOPC   NC311953   5.871   4.079   6.233  0.3309  0.1761 -0.0755
 1042YOPC   PO411954   6.074   4.430   6.311 -0.0892  0.1208  0.0532
 1042YOPC   GL111955   6.138   4.363   6.704  0.0642  0.2489 -0.0061
 1042YOPC   GL211956   6.404   4.473   6.747 -0.1086 -0.0534  0.2663
 1042YOPC   C1A11957   5.921   4.302   7.124  0.0049 -0.3701  0.1076
 1042YOPC   D2A11958   5.681   4.070   7.379 -0.1772 -0.0343  0.2474
 1042YOPC   C3A11959   5.357   4.192   7.669 -0.1581  0.2337 -0.0067
 1042YOPC   C4A11960   5.037   4.286   7.938  0.0529 -0.2248 -0.0398
 1042YOPC   C1B11961   6.490   4.347   7.066  0.0830  0.1407 -0.0749
 1042YOPC   C2B11962   6.671   4.132   7.392 -0.3325  0.0898  0.0850
 1042YOPC   D3B11963   6.917   4.295   7.707  0.0722 -0.3493 -0.2586
 1042YOPC   C4B11964   7.242   4.176   7.948  0.3610  0.1923  0.0514
 1043YOPC   NC311965   5.965  13.488   4.638 -0.2888 -0.0395  0.1598
 1043YOPC   PO411966   5.748  13.428   5.070 -0.1195 -0.3702 -0.3172
 1043YOPC   GL111967   5.847  13.397   5.505  0.0243 -0.0353 -0.3757
 1043YOPC   GL211968   5.666  13.514   5.713 -0.0768 -0.1727 -0.0852
 1043YOPC   C1A11969   6.072  13.404   5.920 -0.2867  0.1702 -0.0384
 1043YOPC   D2A11970   6.043  13.652   6.421 -0.1238 -0.1195  0.0994
 1043YOPC   C3A11971   5.973  13.788   6.825 -0.2178  0.0586 -0.2403
 1043YOPC   C4A11972   6.065  14.068   7.205 -0.0603 -0.1806  0.1349
 1043YOPC   C1B11973   5.650  13.381   6.142  0.1627  0.0667 -0.0244
 1043YOPC   C2B11974   5.781  13.290   6.553 -0.1645 -0.1224  0.0405
 1043YOPC   D3B11975   5.563  13.518   6.906 -0.2249  0.1979  0.0418
 1043YOPC   C4B11976   5.607  13.687   7.226  0.1162 -0.2848  0.0543
 1044YOPC   NC311977   3.068  13.475   4.970 -0.1582 -0.0725  0.0374
 1044YOPC   PO411978   3.209  13.372   5.463  0.0494 -0.1269  0.0750
 1044YOPC   GL111979   3.092  13.314   5.908 -0.0662  0.6003  0.1286
 1044YOPC   GL211980   2.972  13.503   6.181 -0.1057 -0.2250  0.1863
 1044YOPC   C1A11981   3.243  13.146   6.322 -0.0019  0.2583 -0.1556
 1044YOPC   D2A11982   3.281  13.205   6.729 -0.1656  0.2040 -0.2470
 1044YOPC   C3A11983   3.411  13.119   7.091 -0.0276  0.1442 -0.1002
 1044YOPC   C4A11984   3.634  13.204   7.443 -0.2230  0.0908  0.4908
 1044YOPC   C1B11985   3.105  13.629   6.599  0.0682  0.2909  0.2473
 1044YOPC   C2B11986   3.329  13.661   6.928 -0.0802  0.1081 -0.1216
 1044YOPC   D3B11987   3.295  13.572   7.316 -0.0141 -0.1647  0.0905
 1044YOPC   C4B11988   3.221  13.379   7.732 -0.2058  0.0126  0.0274
 1045YOPC   NC311989   1.948   5.081   6.285 -0.2380 -0.0859 -0.0172
 1045YOPC   PO411990   1.501   4.986   6.212  0.1050  0.1303  0.1299
 1045YOPC   GL111991   1.583   4.975   6.649 -0.0830 -0.1551  0.1930
 1045YOPC   GL211992   1.901   5.147   6.808  0.0155 -0.0984  0.1217
 1045YOPC   C1A11993   1.543   5.119   7.120 -0.2109 -0.1850  0.2273
 1045YOPC   D2A11994   1.327   5.315   7.491 -0.0822  0.4498 -0.2465
 1045YOPC   C3A11995   1.424   5.263   7.885  0.2537 -0.0678  0.3671
 1045YOPC   C4A11996   1.422   4.995   8.150  0.0885 -0.1757  0.0234
 1045YOPC   C1B11997   2.010   5.246   7.184 -0.1734  0.1438  0.0727
 1045YOPC   C2B11998   1.889   5.166   7.558  0.0877 -0.3732 -0.3004
 1045YOPC   D3B11999   1.920   5.569   7.877 -0.0049  0.3553 -0.1306
 1045YOPC   C4B12000   2.011   5.805   8.297 -0.0342 -0.2722 -0.0885
 1046YOPC   NC312001   7.728   5.613   6.180  0.0013 -0.2105  0.0838
 1046YOPC   PO412002   7.479   5.646   6.482 -0.0141 -0.0780 -0.2063
 1046YOPC   GL112003   7.478   5.531   6.876  0.1224 -0.1588  0.0084
 1046YOPC   GL212004   7.323   5.642   7.184  0.3987  0.0237 -0.0252
 1046YOPC   C1A12005   7.807   5.415   7.114 -0.0079  0.1862  0.2075
 1046YOPC   D2A12006   7.953   5.016   7.280  0.0447  0.1028  0.3296
 1046YOPC   C3A12007   7.900   5.035   7.712 -0.0155 -0.1103 -0.2226
 1046YOPC   C4A12008   7.706   5.305   7.923 -0.1000  0.2287  0.0385
 1046YOPC   C1B12009   7.355   5.675   7.645  0.0635  0.3083 -0.0617
 1046YOPC   C2B12010   7.399   5.607   8.077 -0.1509  0.0200  0.1252
 1046YOPC   D3B12011   7.185   5.549   8.381 -0.0551 -0.0029  0.1596
 1046YOPC   C4B12012   6.888   5.432   8.794 -0.0271 -0.3436  0.1887
 1047YOPC   NC312013  14.479   2.534   5.957 -0.0813 -0.3845 -0.1255
 1047YOPC   PO412014  14.301   2.614   6.370 -0.0705  0.0581  0.1097
 1047YOPC   GL112015  14.396   2.889   6.748  0.0127  0.0029  0.0671
 1047YOPC   GL212016  14.757   2.874   6.843  0.0839 -0.0275  0.0631
 1047YOPC   C1A12017  14.265   3.067   7.156 -0.0839 -0.3152  0.3044
 1047YOPC   D2A12018  14.047   3.265   7.557  0.0776 -0.1241  0.0691
 1047YOPC   C3A12019  14.089   3.418   7.999  0.3419  0.0376 -0.0917
 1047YOPC   C4A12020  14.363   3.585   8.387  0.3338 -0.1563  0.1100
 1047YOPC   C1B12021  14.801   2.838   7.304 -0.1030 -0.2084  0.0892
 1047YOPC   C2B12022  14.842   2.938   7.744 -0.3254 -0.0407 -0.0085
 1047YOPC   D3B12023  15.229   3.293   7.887 -0.0436  0.1099  0.1685
 1047YOPC   C4B12024  15.212   3.315   8.284  0.1667 -0.1556  0.3601
 1048YOPC   NC312025  10.853  17.951   6.056 -0.1958 -0.1242  0.0159
 1048YOPC   PO412026  11.021  17.686   5.730  0.4367 -0.0673 -0.1869
 1048YOPC   GL112027  10.972  17.474   6.170 -0.1717 -0.3340 -0.1043
 1048YOPC   GL212028  11.016  17.707   6.461 -0.0380 -0.1316 -0.0154
 1048YOPC   C1A12029  10.797  17.162   6.230 -0.4446 -0.2806  0.3217
 1048YOPC   D2A12030  10.599  16.955   6.678  0.2796 -0.1411  0.0166
 1048YOPC   C3A12031  10.435  17.145   6.953 -0.1046 -0.0059  0.1652
 1048YOPC   C4A12032  10.434  17.211   7.316 -0.5107 -0.0472  0.1436
 1048YOPC   C1B12033  11.107  17.692   6.794 -0.1261  0.1988 -0.3002
 1048YOPC   C2B12034  10.976  17.782   7.200 -0.0844 -0.1481 -0.0752
 1048YOPC   D3B12035  11.041  18.053   7.545  0.2006  0.0304  0.0871
 1048YOPC   C4B12036  10.871  18.229   7.915 -0.0960 -0.0447 -0.1229
 1049YOPC   NC312037  17.099   2.026   6.035 -0.2553  0.0252 -0.0215
 1049YOPC   PO412038  16.776   1.690   6.231 -0.0137 -0.1472  0.0253
 1049YOPC   GL112039  16.927   1.679   6.585 -0.1912  0.2086 -0.0481
 1049YOPC   GL212040  17.027   1.384   6.646  0.1277 -0.0197 -0.0786
 1049YOPC   C1A12041  17.079   1.746   7.031 -0.0933  0.0302  0.0800
 1049YOPC   D2A12042  17.189   1.842   7.477 -0.2492  0.2091  0.2122
 1049YOPC   C3A12043  17.112   1.741   7.817  0.0976 -0.1574 -0.0313
 1049YOPC   C4A12044  16.775   1.886   7.929 -0.0741  0.0713 -0.2400
 1049YOPC   C1B12045  17.044   1.276   7.113  0.0747 -0.1171 -0.1859
 1049YOPC   C2B12046  16.939   1.214   7.516 -0.2872 -0.0439  0.2853
 1049YOPC   D3B12047  17.027   1.234   7.815  0.0493 -0.0375 -0.3142
 1049YOPC   C4B12048  16.922   1.427   8.235  0.0681 -0.0277  0.2907
 1050YOPC   NC312049  18.060   1.776   6.251 -0.0439  0.4370 -0.0115
 1050YOPC   PO412050  17.834   1.419   6.369  0.0133 -0.0963 -0.0053
 1050YOPC   GL112051  17.999   1.675   6.777  0.2940  0.0864  0.1459
 1050YOPC   GL212052  18.276   1.886   6.761 -0.0279  0.0412  0.1291
 1050YOPC   C1A12053  18.162   1.628   7.177  0.1981  0.0019  0.3305
 1050YOPC   D2A12054  18.233   1.799   7.450  0.3091 -0.0043  0.0455
 1050YOPC   C3A12055  18.389   1.721   7.956  0.1605  0.1317 -0.0911
 1050YOPC   C4A12056  18.292   1.511   8.350 -0.2110  0.0445  0.2276
 1050YOPC   C1B12057  18.056   2.185   7.026 -0.2915  0.1103 -0.1755
 1050YOPC   C2B12058  18.130   2.296   7.381 -0.1938  0.2284  0.0373
 1050YOPC   D3B12059  18.043   2.096   7.813  0.2128 -0.1722  0.1429
 1050YOPC   C4B12060  17.940   1.894   8.181  0.2555  0.0081  0.1786
 1051YOPC   NC312061  12.088  14.385   5.583  0.2094  0.1036 -0.3452
 1051YOPC   PO412062  12.181  14.238   5.972 -0.1149  0.1121  0.2089
 1051YOPC   GL112063  12.139  14.144   6.389 -0.1000 -0.2068 -0.0931
 1051YOPC   GL212064  12.117  14.443   6.441 -0.1486  0.0139 -0.0069
 1051YOPC   C1A12065  12.064  13.958   6.729 -0.0458  0.1699 -0.1616
 1051YOPC   D2A12066  12.062  13.875   7.133 -0.2141 -0.0131  0.1075
 1051YOPC   C3A12067  12.059  13.922   7.574 -0.1431  0.2824 -0.3218
 1051YOPC   C4A12068  12.120  13.912   7.914 -0.0583 -0.1614 -0.2436
 1051YOPC   C1B12069  12.017  14.429   6.863  0.0873 -0.1320 -0.1517
 1051YOPC   C2B12070  11.770  14.302   7.242  0.1292 -0.0226 -0.1893
 1051YOPC   D3B12071  11.791  14.316   7.563 -0.3017 -0.0055 -0.2540
 1051YOPC   C4B12072  12.054  14.366   7.950 -0.1249 -0.2520  0.1132
 1052YOPC   NC312073   4.826  15.429   5.851 -0.0013  0.1290 -0.0964
 1052YOPC   PO412074   5.087  15.188   5.734 -0.0107 -0.2732  0.0430
 1052YOPC   GL112075   5.081  14.796   5.975  0.0030 -0.0975  0.1005
 1052YOPC   GL212076   5.410  14.760   5.958  0.0341  0.1136 -0.2578
 1052YOPC   C1A12077   4.979  14.510   6.263 -0.0774  0.2171  0.1509
 1052YOPC   D2A12078   4.674  14.372   6.451  0.0346 -0.1969 -0.2145
 1052YOPC   C3A12079   4.626  14.376   6.927  0.3105  0.2552  0.2075
 1052YOPC   C4A12080   4.472  14.262   7.285  0.0943 -0.2627 -0.0854
 1052YOPC   C1B12081   5.817  14.749   6.199  0.3021  0.2580 -0.1019
 1052YOPC   C2B12082   6.004  14.963   6.482 -0.2278 -0.1178 -0.4523
 1052YOPC   D3B12083   6.025  14.945   6.912  0.1582  0.0474  0.4009
 1052YOPC   C4B12084   6.173  14.609   7.153  0.2292  0.1829 -0.0376
 1053YOPC   NC312085  12.248   3.313   6.612 -0.0001 -0.1473  0.0816
 1053YOPC   PO412086  11.847   3.192   6.587 -0.2111 -0.1567  0.0664
 1053YOPC   GL112087  11.829   3.177   6.968  0.0986  0.2613 -0.1634
 1053YOPC   GL212088  12.062   3.334   7.097 -0.0725  0.0950  0.0945
 1053YOPC   C1A12089  11.710   3.079   7.313  0.1164  0.0072 -0.1853
 1053YOPC   D2A12090  11.655   3.011   7.786  0.4252 -0.1658 -0.0639
 1053YOPC   C3A12091  11.257   3.117   8.032  0.2659 -0.1790  0.1649
 1053YOPC   C4A12092  10.891   3.072   8.211 -0.1182 -0.2967  0.0954
 1053YOPC   C1B12093  12.350   3.294   7.371 -0.0102  0.1400 -0.3168
 1053YOPC   C2B12094  12.508   3.271   7.740  0.0096 -0.0067 -0.3741
 1053YOPC   D3B12095  12.433   3.378   8.155  0.0419  0.3438  0.6310
 1053YOPC   C4B12096  12.677   3.696   8.409  0.0335 -0.0622 -0.1669
 1054YOPC   NC312097  10.990   4.954   6.169  0.3382  0.0500  0.0761
 1054YOPC   PO412098  10.803   4.563   6.267 -0.0909  0.0421  0.0440
 1054YOPC   GL112099  10.954   4.461   6.675  0.1529 -0.1747  0.2742
 1054YOPC   GL212100  11.197   4.212   6.758 -0.1526  0.1878 -0.2645
 1054YOPC   C1A12101  10.609   4.618   7.112 -0.1482  0.0277  0.4107
 1054YOPC   D2A12102  10.483   4.764   7.574  0.0850 -0.0566 -0.0151
 1054YOPC   C3A12103  10.510   4.617   8.055  0.0848  0.1913 -0.1338
 1054YOPC   C4A12104  10.239   4.429   8.405 -0.4266  0.2683  0.2088
 1054YOPC   C1B12105  11.155   4.394   7.172  0.3946 -0.2570 -0.1885
 1054YOPC   C2B12106  11.182   4.346   7.653 -0.3639 -0.0498 -0.0292
 1054YOPC   D3B12107  11.477   4.334   8.000 -0.3726 -0.0632  0.2390
 1054YOPC   C4B12108  11.688   4.333   8.307  0.0323  0.0291  0.2185
 1055YOPC   NC312109   4.920   4.938   5.700  0.1163  0.1338  0.3804
 1055YOPC   PO412110   4.856   5.214   5.966 -0.0799  0.0194 -0.1906
 1055YOPC   GL112111   4.709   5.200   6.437 -0.0236  0.0901  0.1652
 1055YOPC   GL212112   4.719   4.953   6.627  0.0729 -0.0022  0.0472
 1055YOPC   C1A12113   4.692   5.404   6.838 -0.1168  0.3881  0.4839
 1055YOPC   D2A12114   4.579   5.587   7.232  0.0367 -0.3283  0.0066
 1055YOPC   C3A12115   4.765   5.621   7.612 -0.0984 -0.0630 -0.0802
 1055YOPC   C4A12116   4.936   5.611   8.023 -0.1611 -0.1152  0.0380
 1055YOPC   C1B12117   4.677   4.600   6.737 -0.0249 -0.0033  0.0062
 1055YOPC   C2B12118   4.530   4.507   7.184 -0.0627 -0.1555  0.2585
 1055YOPC   D3B12119   4.607   4.343   7.616 -0.2874  0.4435  0.2020
 1055YOPC   C4B12120   4.731   4.673   7.882 -0.5273 -0.1196 -0.2580
 1056YOPC   NC312121   3.105  15.998   5.784  0.0282  0.0745  0.0423
 1056YOPC   PO412122   3.382  15.717   5.833 -0.0528  0.0257  0.0531
 1056YOPC   GL112123   3.398  15.460   6.264 -0.1860  0.1465  0.0058
 1056YOPC   GL212124   3.276  15.645   6.541 -0.3048  0.0584 -0.2931
 1056YOPC   C1A12125   3.326  15.174   6.582  0.0422  0.1140 -0.1890
 1056YOPC   D2A12126   3.257  15.087   6.939  0.0135 -0.2007 -0.0317
 1056YOPC   C3A12127   3.018  14.898   7.223 -0.4427  0.1626 -0.0593
 1056YOPC   C4A12128   2.936  15.020   7.655  0.0149  0.1176  0.1627
 1056YOPC   C1B12129   3.171  15.612   6.947  0.1182  0.2159  0.1140
 1056YOPC   C2B12130   2.987  15.508   7.371  0.0014 -0.0821  0.2063
 1056YOPC   D3B12131   2.576  15.625   7.578 -0.1010  0.1842  0.1230
 1056YOPC   C4B12132   2.490  15.510   7.983  0.2039  0.1954 -0.0265
 1057YOPC   NC312133   4.627  17.418   5.993 -0.0891  0.0004  0.0303
 1057YOPC   PO412134   4.664  16.861   6.025  0.3177  0.1907  0.1975
 1057YOPC   GL112135   4.897  16.701   6.273 -0.2837 -0.0650  0.0063
 1057YOPC   GL212136   5.095  16.579   6.215  0.0405 -0.3066  0.0961
 1057YOPC   C1A12137   5.069  16.875   6.599 -0.0181  0.2695 -0.1582
 1057YOPC   D2A12138   5.134  16.665   7.058 -0.1725 -0.3724 -0.0325
 1057YOPC   C3A12139   5.149  16.465   7.429 -0.0594 -0.1490  0.2479
 1057YOPC   C4A12140   5.421  16.254   7.607 -0.2058  0.1705 -0.1297
 1057YOPC   C1B12141   4.936  16.424   6.705  0.0234 -0.0978  0.0501
 1057YOPC   C2B12142   4.991  16.117   6.964  0.2975 -0.1395 -0.0682
 1057YOPC   D3B12143   5.062  15.934   7.278 -0.2768  0.0847 -0.0391
 1057YOPC   C4B12144   5.207  15.528   7.160  0.1799  0.0027  0.1873
 1058YOPC   NC312145   5.009  11.126   5.166  0.0425 -0.4405 -0.2764
 1058YOPC   PO412146   4.966  11.415   5.520  0.1457  0.2146  0.1068
 1058YOPC   GL112147   4.850  11.614   5.899 -0.0044 -0.1228 -0.0641
 1058YOPC   GL212148   5.078  11.674   6.121 -0.0251 -0.0947  0.0609
 1058YOPC   C1A12149   4.629  11.885   6.091 -0.1488  0.0567 -0.0404
 1058YOPC   D2A12150   4.698  12.292   6.306  0.1799 -0.0041  0.0327
 1058YOPC   C3A12151   4.589  12.356   6.750  0.0494 -0.2269  0.3920
 1058YOPC   C4A12152   4.620  12.396   7.176 -0.1910  0.3023 -0.1022
 1058YOPC   C1B12153   5.176  11.466   6.422  0.3907  0.1433 -0.0096
 1058YOPC   C2B12154   5.208  11.742   6.830 -0.4343 -0.1959  0.2532
 1058YOPC   D3B12155   5.246  11.653   7.255 -0.2987 -0.0724  0.1765
 1058YOPC   C4B12156   5.448  11.758   7.709  0.0024  0.2112  0.1157
 1059YOPC   NC312157  14.947  10.739   6.531  0.1174 -0.0194  0.1992
 1059YOPC   PO412158  14.549  10.497   6.373 -0.0584 -0.1004  0.0468
 1059YOPC   GL112159  14.625  10.348   6.833  0.1924  0.1295 -0.0855
 1059YOPC   GL212160  15.012  10.446   6.931  0.4289 -0.1345  0.1882
 1059YOPC   C1A12161  14.582  10.038   7.185 -0.0911 -0.0196  0.1152
 1059YOPC   D2A12162  14.322   9.985   7.527  0.0617 -0.0765  0.1652
 1059YOPC   C3A12163  13.842   9.874   7.561 -0.0355 -0.0657  0.1771
 1059YOPC   C4A12164  13.871   9.399   7.505  0.0537 -0.0630  0.0603
 1059YOPC   C1B12165  14.964  10.283   7.394  0.3137  0.0177 -0.0455
 1059YOPC   C2B12166  14.979  10.276   7.794 -0.1460 -0.1549 -0.2396
 1059YOPC   D3B12167  14.630  10.168   8.124 -0.0447 -0.0467  0.2504
 1059YOPC   C4B12168  14.282  10.336   8.375 -0.1223 -0.0716 -0.0966
 1060YOPC   NC312169  12.773   4.828   6.581  0.2949  0.1697 -0.1926
 1060YOPC   PO412170  13.115   5.187   6.456  0.3722 -0.3121  0.1798
 1060YOPC   GL112171  13.276   5.299   6.754 -0.0686 -0.0759  0.2775
 1060YOPC   GL212172  13.105   5.577   6.826 -0.0157  0.2357  0.0133
 1060YOPC   C1A12173  13.252   5.339   7.188  0.0723 -0.1954  0.0142
 1060YOPC   D2A12174  13.210   5.487   7.718 -0.0601  0.1036  0.0861
 1060YOPC   C3A12175  13.181   5.637   8.073  0.1322  0.0752  0.0489
 1060YOPC   C4A12176  13.386   5.487   8.401  0.1066  0.1495  0.1043
 1060YOPC   C1B12177  13.475   5.781   6.939 -0.1058  0.1198 -0.0737
 1060YOPC   C2B12178  13.584   6.188   7.149  0.0971  0.0734 -0.0599
 1060YOPC   D3B12179  13.279   6.346   7.445 -0.0298 -0.1578 -0.1061
 1060YOPC   C4B12180  13.349   6.672   7.478 -0.0581 -0.1146 -0.0907
 1061YOPC   NC312181   6.196   6.570   5.978  0.1969  0.0508 -0.2912
 1061YOPC   PO412182   6.461   6.218   5.849  0.0189 -0.0275 -0.0367
 1061YOPC   GL112183   6.429   6.387   6.332  0.0285 -0.2316 -0.0409
 1061YOPC   GL212184   6.053   6.431   6.442  0.1981 -0.4109  0.1007
 1061YOPC   C1A12185   6.593   6.375   6.738 -0.1754  0.0162  0.1683
 1061YOPC   D2A12186   6.727   6.258   7.126 -0.0229  0.1645  0.1117
 1061YOPC   C3A12187   6.533   6.399   7.527 -0.2741  0.0170 -0.0370
 1061YOPC   C4A12188   6.254   6.274   7.856 -0.0882  0.0392 -0.0762
 1061YOPC   C1B12189   6.125   6.549   6.917  0.1321  0.2338  0.1431
 1061YOPC   C2B12190   6.164   6.705   7.365  0.0288  0.2260 -0.1214
 1061YOPC   D3B12191   5.827   6.585   7.821  0.3577  0.1412 -0.1789
 1061YOPC   C4B12192   5.315   6.629   7.998 -0.1285  0.0067 -0.0295
 1062YOPC   NC312193  13.585   7.063   6.087  0.1650 -0.1519 -0.2573
 1062YOPC   PO412194  13.701   6.632   6.323 -0.2268  0.2143 -0.2136
 1062YOPC   GL112195  13.557   6.767   6.658  0.1712 -0.2629  0.0549
 1062YOPC   GL212196  13.366   7.087   6.505  0.1610 -0.2246  0.2470
 1062YOPC   C1A12197  13.469   6.923   7.012  0.0457  0.2336  0.2501
 1062YOPC   D2A12198  13.554   7.129   7.462 -0.0221  0.0180 -0.0020
 1062YOPC   C3A12199  13.703   6.833   7.784  0.1253 -0.0777  0.1284
 1062YOPC   C4A12200  13.701   6.458   7.927  0.2085 -0.2645 -0.0695
 1062YOPC   C1B12201  13.608   7.369   6.767  0.1373  0.1780  0.0993
 1062YOPC   C2B12202  13.719   7.501   7.157 -0.0144  0.2329  0.4389
 1062YOPC   D3B12203  13.542   7.890   7.289  0.1247 -0.1970  0.1199
 1062YOPC   C4B12204  13.194   8.139   7.222 -0.2150  0.0846 -0.0215
 1063YOPC   NC312205  17.758   0.252   6.055 -0.1103 -0.1795  0.2022
 1063YOPC   PO412206  17.369   0.218   5.884 -0.0664 -0.1026 -0.2004
 1063YOPC   GL112207  17.169  -0.029   6.252 -0.3262  0.1547  0.0157
 1063YOPC   GL212208  16.907  -0.113   6.474 -0.1464  0.0290 -0.1613
 1063YOPC   C1A12209  17.343  -0.077   6.739 -0.3498  0.0124  0.0153
 1063YOPC   D2A12210  17.622  -0.078   6.961  0.1157  0.1023  0.1016
 1063YOPC   C3A12211  17.620  -0.140   7.315  0.1223 -0.1728 -0.3081
 1063YOPC   C4A12212  17.855  -0.308   7.603 -0.3122  0.0817  0.4284
 1063YOPC   C1B12213  16.597  -0.083   6.762 -0.0567  0.0104  0.0180
 1063YOPC   C2B12214  16.195  -0.125   6.803  0.0268  0.0020 -0.2953
 1063YOPC   D3B12215  15.977   0.112   6.862  0.0337  0.0114 -0.2999
 1063YOPC   C4B12216  15.897   0.322   7.272 -0.2474 -0.0410 -0.1055
 1064YOPC   NC312217   8.970   7.888   6.515  0.1991  0.2088 -0.0727
 1064YOPC   PO412218   9.023   8.403   6.486  0.0543 -0.0053 -0.2072
 1064YOPC   GL112219   8.642   8.276   6.789 -0.0038 -0.2014 -0.2370
 1064YOPC   GL212220   8.412   8.545   6.907  0.3018 -0.1353  0.1511
 1064YOPC   C1A12221   8.341   8.125   7.111 -0.1745 -0.0671  0.1160
 1064YOPC   D2A12222   8.214   8.017   7.583  0.2142 -0.1763  0.0150
 1064YOPC   C3A12223   8.048   8.057   7.954  0.0222  0.0403  0.0222
 1064YOPC   C4A12224   7.659   7.959   8.319 -0.1258  0.3470  0.0343
 1064YOPC   C1B12225   8.315   8.609   7.380  0.0679 -0.0960 -0.1210
 1064YOPC   C2B12226   8.182   8.467   7.775  0.3039  0.3180 -0.0573
 1064YOPC   D3B12227   7.968   8.665   8.111 -0.0538  0.1479 -0.0654
 1064YOPC   C4B12228   8.213   8.882   8.434 -0.1114 -0.1330  0.0559
 1065YOPC   NC312229   6.428   3.791   5.898 -0.1328  0.1546  0.1748
 1065YOPC   PO412230   6.352   4.052   6.014 -0.0853  0.0190  0.1504
 1065YOPC   GL112231   6.365   3.955   6.436  0.1395  0.2684 -0.0610
 1065YOPC   GL212232   6.530   3.966   6.716 -0.1977 -0.1896 -0.1453
 1065YOPC   C1A12233   6.069   3.923   6.859  0.1171  0.2947  0.0879
 1065YOPC   D2A12234   6.142   3.964   7.363 -0.1705 -0.1961 -0.4487
 1065YOPC   C3A12235   5.956   3.842   7.784 -0.1547  0.0778 -0.3956
 1065YOPC   C4A12236   5.696   4.009   8.065  0.0681  0.1515 -0.0394
 1065YOPC   C1B12237   6.622   3.644   7.108  0.0510 -0.3196 -0.1235
 1065YOPC   C2B12238   6.506   3.570   7.475 -0.3681 -0.0506  0.0963
 1065YOPC   D3B12239   6.140   3.394   7.645  0.0521  0.3164  0.1732
 1065YOPC   C4B12240   5.702   3.031   7.693  0.1016  0.1744 -0.1726
 1066YOPC   NC312241   8.456  14.554   5.645  0.0683  0.3180  0.1217
 1066YOPC   PO412242   8.176  14.757   5.975  0.0698  0.0847 -0.2238
 1066YOPC   GL112243   8.035  14.909   6.314 -0.2822  0.2746 -0.2784
 1066YOPC   GL212244   8.304  15.029   6.421 -0.0480  0.0116 -0.0999
 1066YOPC   C1A12245   8.084  15.110   6.846 -0.1955  0.2194 -0.1926
 1066YOPC   D2A12246   8.050  15.095   7.172  0.1139  0.2863 -0.0016
 1066YOPC   C3A12247   7.694  15.307   7.355  0.2029 -0.0000 -0.2162
 1066YOPC   C4A12248   7.425  15.251   7.675 -0.0765 -0.3569 -0.1360
 1066YOPC   C1B12249   8.525  15.261   6.721  0.1279 -0.2674 -0.2997
 1066YOPC   C2B12250   8.519  15.557   7.088 -0.0728 -0.2046 -0.1605
 1066YOPC   D3B12251   8.201  15.384   7.494  0.0417 -0.4208 -0.1910
 1066YOPC   C4B12252   7.919  15.295   7.788  0.0470  0.0742  0.2240
 1067YOPC   NC312253  11.572   5.435   6.284 -0.4257 -0.0555  0.2246
 1067YOPC   PO412254  11.213   5.348   6.403 -0.0811  0.2202 -0.0179
 1067YOPC   GL112255  10.921   5.221   6.706 -0.1164  0.0348 -0.0207
 1067YOPC   GL212256  10.895   5.405   7.024 -0.4070  0.0202 -0.3306
 1067YOPC   C1A12257  10.994   4.899   6.996  0.0918  0.0236  0.3247
 1067YOPC   D2A12258  10.951   4.718   7.459 -0.2218 -0.0398  0.1632
 1067YOPC   C3A12259  10.967   4.815   7.871 -0.2280  0.2004  0.0922
 1067YOPC   C4A12260  11.045   4.407   8.121  0.2534  0.1676  0.2311
 1067YOPC   C1B12261  11.094   5.259   7.393  0.0132 -0.0090 -0.1203
 1067YOPC   C2B12262  11.092   5.297   7.822  0.0071 -0.2805 -0.2215
 1067YOPC   D3B12263  11.205   5.677   8.002 -0.0457 -0.1951 -0.2556
 1067YOPC   C4B12264  10.967   6.033   8.198 -0.2429  0.1833  0.2117
 1068YOPC   NC312265   7.692   7.191   6.316 -0.0415  0.2444  0.1973
 1068YOPC   PO412266   7.648   7.584   6.551  0.0587  0.0181 -0.1682
 1068YOPC   GL112267   7.480   7.361   6.760 -0.4567  0.0821 -0.2587
 1068YOPC   GL212268   7.797   7.294   6.931  0.2962  0.2418  0.1900
 1068YOPC   C1A12269   7.364   6.997   6.988 -0.2034 -0.2921 -0.4512
 1068YOPC   D2A12270   7.253   7.027   7.370 -0.0204 -0.1219 -0.0485
 1068YOPC   C3A12271   6.794   7.007   7.520 -0.1331  0.2151  0.1865
 1068YOPC   C4A12272   6.410   6.783   7.840 -0.1122  0.0106  0.0736
 1068YOPC   C1B12273   7.599   7.357   7.241  0.0352 -0.1222  0.1356
 1068YOPC   C2B12274   7.384   7.402   7.683 -0.1093  0.1074  0.2434
 1068YOPC   D3B12275   7.510   7.194   8.030  0.1305 -0.0951 -0.1975
 1068YOPC   C4B12276   7.183   7.126   8.303  0.0112 -0.2677 -0.1227
 1069YOPC   NC312277   9.228   0.738   5.837 -0.2295 -0.4601 -0.0238
 1069YOPC   PO412278   8.956   0.947   6.123  0.0824  0.2021 -0.3581
 1069YOPC   GL112279   8.732   0.736   6.379  0.0983 -0.0911 -0.0150
 1069YOPC   GL212280   8.509   0.979   6.306  0.0392  0.6111 -0.0624
 1069YOPC   C1A12281   8.935   0.698   6.840  0.0880 -0.0246 -0.1118
 1069YOPC   D2A12282   9.055   0.314   7.055  0.2749  0.1327 -0.1506
 1069YOPC   C3A12283   8.742   0.135   7.387  0.1890  0.0342  0.0363
 1069YOPC   C4A12284   8.670  -0.064   7.735  0.1934 -0.0621  0.2484
 1069YOPC   C1B12285   8.364   0.732   6.688 -0.3226  0.1602  0.1579
 1069YOPC   C2B12286   8.152   0.320   6.817 -0.1273  0.0841  0.1114
 1069YOPC   D3B12287   7.976   0.300   7.207  0.0821  0.0123  0.0626
 1069YOPC   C4B12288   8.043   0.378   7.614 -0.2923 -0.1762  0.2033
 1070YOPC   NC312289   4.618  13.146   5.644  0.5042 -0.0691 -0.2789
 1070YOPC   PO412290   4.915  13.272   5.442  0.1428  0.0322  0.3059
 1070YOPC   GL112291   5.105  13.181   5.872  0.2612  0.0930  0.2855
 1070YOPC   GL212292   5.219  12.904   6.003 -0.3571 -0.3357 -0.1445
 1070YOPC   C1A12293   5.087  13.367   6.248 -0.3379 -0.3938  0.3635
 1070YOPC   D2A12294   5.187  13.339   6.661 -0.1965 -0.0200  0.1786
 1070YOPC   C3A12295   4.968  13.694   6.834 -0.2732  0.1719  0.1833
 1070YOPC   C4A12296   4.548  13.909   6.798  0.2431  0.1354  0.2343
 1070YOPC   C1B12297   5.410  12.969   6.402  0.0895 -0.0206 -0.0428
 1070YOPC   C2B12298   5.484  12.752   6.597 -0.1619  0.2167 -0.0201
 1070YOPC   D3B12299   5.468  12.977   6.965  0.2565 -0.0630 -0.1775
 1070YOPC   C4B12300   5.337  13.090   7.422 -0.3766  0.0193 -0.1797
 1071YOPC   NC312301  14.678  11.603   5.967 -0.1157 -0.1579  0.0231
 1071YOPC   PO412302  14.605  11.556   6.462 -0.1210  0.1006  0.0088
 1071YOPC   GL112303  14.535  11.620   6.832 -0.0735 -0.0705  0.0924
 1071YOPC   GL212304  14.305  11.738   6.951  0.1423 -0.0302  0.0336
 1071YOPC   C1A12305  14.722  11.527   7.177  0.1021 -0.2805 -0.1113
 1071YOPC   D2A12306  14.912  11.361   7.489  0.1249 -0.0479  0.1759
 1071YOPC   C3A12307  15.157  11.608   7.874  0.0763 -0.1069  0.3966
 1071YOPC   C4A12308  15.239  11.883   8.138  0.2040 -0.1404  0.0621
 1071YOPC   C1B12309  14.430  11.861   7.350  0.3339 -0.2201  0.0095
 1071YOPC   C2B12310  14.283  11.997   7.896  0.3728  0.1633  0.1745
 1071YOPC   D3B12311  14.424  11.771   8.205 -0.0224 -0.3012 -0.4964
 1071YOPC   C4B12312  14.289  11.543   8.577  0.0315 -0.0802 -0.0175
 1072YOPC   NC312313   4.520  11.219   5.785 -0.0471  0.0395  0.0132
 1072YOPC   PO412314   4.262  11.581   5.660 -0.2266  0.1619 -0.0360
 1072YOPC   GL112315   4.269  11.529   6.096 -0.1485 -0.2488 -0.1633
 1072YOPC   GL212316   4.072  11.355   6.361  0.1174  0.1181 -0.1316
 1072YOPC   C1A12317   4.526  11.538   6.489 -0.2095  0.0736  0.1119
 1072YOPC   D2A12318   4.740  11.847   6.718  0.2816  0.1518  0.1192
 1072YOPC   C3A12319   4.778  11.805   7.157 -0.3899 -0.1542 -0.1414
 1072YOPC   C4A12320   4.898  11.691   7.623  0.4797 -0.1512 -0.1398
 1072YOPC   C1B12321   4.089  11.462   6.704  0.3454 -0.0981  0.0112
 1072YOPC   C2B12322   4.395  11.460   6.968  0.1069  0.0420  0.0102
 1072YOPC   D3B12323   4.383  11.422   7.284 -0.1713 -0.2912  0.0172
 1072YOPC   C4B12324   4.374  11.586   7.715  0.0286  0.2459 -0.2393
 1073YOPC   NC312325  12.054  10.521   6.295  0.1938  0.1360 -0.2706
 1073YOPC   PO412326  11.564  10.594   6.361 -0.0901  0.2704 -0.0494
 1073YOPC   GL112327  11.514  10.324   6.786 -0.2682 -0.0405  0.2378
 1073YOPC   GL212328  11.812  10.294   6.836 -0.0376 -0.2550  0.0643
 1073YOPC   C1A12329  11.579  10.173   7.214  0.0544 -0.0948 -0.0729
 1073YOPC   D2A12330  11.548  10.138   7.596  0.0208  0.0413  0.1326
 1073YOPC   C3A12331  11.221  10.211   7.825 -0.0360  0.0875 -0.1685
 1073YOPC   C4A12332  11.108  10.083   8.212  0.0753  0.3600 -0.0405
 1073YOPC   C1B12333  12.032  10.324   7.283 -0.0810 -0.3979  0.0417
 1073YOPC   C2B12334  12.122  10.457   7.722 -0.0039  0.0841 -0.2033
 1073YOPC   D3B12335  11.870  10.228   8.057  0.2341  0.3004  0.0258
 1073YOPC   C4B12336  11.870   9.785   8.377  0.0166 -0.2085  0.2152
 1074YOPC   NC312337  11.822   5.095   6.592  0.1791 -0.2096 -0.2658
 1074YOPC   PO412338  12.234   4.789   6.559 -0.1349  0.0418  0.1020
 1074YOPC   GL112339  11.993   4.698   6.909  0.1563  0.3769 -0.1033
 1074YOPC   GL212340  12.008   5.061   7.037  0.1089  0.2028 -0.1874
 1074YOPC   C1A12341  12.013   4.573   7.393 -0.3118 -0.0239  0.0021
 1074YOPC   D2A12342  11.933   4.431   7.787  0.3067  0.0829 -0.4470
 1074YOPC   C3A12343  12.198   4.321   8.126 -0.3483 -0.0134 -0.3084
 1074YOPC   C4A12344  12.239   4.150   8.539  0.0815 -0.1794 -0.0146
 1074YOPC   C1B12345  11.971   5.147   7.460  0.1313 -0.1177  0.2461
 1074YOPC   C2B12346  12.118   4.953   7.850  0.0440 -0.0254 -0.3575
 1074YOPC   D3B12347  12.378   5.189   8.081  0.2969  0.0785 -0.2360
 1074YOPC   C4B12348  12.821   5.330   8.139 -0.3372 -0.0271  0.0584
 1075YOPC   NC312349   7.521  18.482   5.991  0.0607 -0.3272 -0.1943
 1075YOPC   PO412350   7.890  18.277   6.008  0.0948 -0.1306  0.0192
 1075YOPC   GL112351   8.058  18.443   6.432 -0.0404 -0.1780  0.3378
 1075YOPC   GL212352   7.765  18.582   6.441  0.2697  0.0685  0.1484
 1075YOPC   C1A12353   8.047  18.304   6.841 -0.0864 -0.3649  0.0948
 1075YOPC   D2A12354   7.794  18.341   7.117  0.2086  0.2542  0.4219
 1075YOPC   C3A12355   7.845  18.042   7.379 -0.0218 -0.1341  0.0977
 1075YOPC   C4A12356   7.964  17.921   7.849  0.0727  0.0607 -0.0275
 1075YOPC   C1B12357   7.379  18.370   6.747 -0.3408 -0.3072  0.0830
 1075YOPC   C2B12358   7.309  18.141   7.100 -0.2211 -0.2920  0.0656
 1075YOPC   D3B12359   7.475  18.338   7.486 -0.0253 -0.0678 -0.1542
 1075YOPC   C4B12360   7.784  18.505   7.620 -0.2384  0.0666 -0.1493
 1076YOPC   NC312361   9.871   4.322   6.592  0.0450  0.0548 -0.0541
 1076YOPC   PO412362  10.104   3.919   6.619  0.0736 -0.1886 -0.4217
 1076YOPC   GL112363  10.246   3.736   6.895 -0.0099 -0.0645 -0.0297
 1076YOPC   GL212364  10.413   3.543   6.883 -0.1036  0.0159 -0.0934
 1076YOPC   C1A12365  10.328   3.693   7.375 -0.1721 -0.0840 -0.0072
 1076YOPC   D2A12366  10.477   3.582   7.678 -0.1390 -0.0727 -0.2127
 1076YOPC   C3A12367  10.453   3.321   8.102  0.1125  0.1939 -0.3930
 1076YOPC   C4A12368  10.492   3.186   8.493  0.1242  0.2106 -0.0711
 1076YOPC   C1B12369  10.663   3.153   6.812  0.2932 -0.1268  0.1741
 1076YOPC   C2B12370  10.958   2.973   7.003 -0.0327  0.0213  0.0836
 1076YOPC   D3B12371  11.009   2.941   7.371 -0.0934  0.0478 -0.0618
 1076YOPC   C4B12372  11.290   2.727   7.623  0.0507 -0.0473  0.0540
 1077YOPC   NC312373   3.220   7.297   6.306  0.1597 -0.2138  0.2938
 1077YOPC   PO412374   2.832   7.437   6.450  0.2403 -0.1329  0.3038
 1077YOPC   GL112375   2.730   7.622   6.751 -0.2739  0.1253 -0.1316
 1077YOPC   GL212376   2.659   7.863   6.845  0.3341  0.5033  0.2169
 1077YOPC   C1A12377   2.610   7.490   7.210  0.4079 -0.1435  0.2040
 1077YOPC   D2A12378   2.493   7.238   7.618  0.2791  0.0958  0.2069
 1077YOPC   C3A12379   2.466   6.867   7.761  0.2773  0.0511  0.1386
 1077YOPC   C4A12380   2.369   6.459   7.756  0.1562  0.1616  0.1470
 1077YOPC   C1B12381   2.556   8.155   7.349  0.1368  0.0070 -0.1631
 1077YOPC   C2B12382   2.271   8.297   7.634  0.0505 -0.0887  0.3151
 1077YOPC   D3B12383   2.391   8.703   7.772  0.1172 -0.1536 -0.0695
 1077YOPC   C4B12384   2.680   8.790   8.075 -0.3091  0.0840 -0.0868
 1078YOPC   NC312385   7.007   4.978   5.838 -0.0361 -0.2342  0.0368
 1078YOPC   PO412386   6.825   4.681   6.020 -0.0755 -0.3276  0.2954
 1078YOPC   GL112387   6.910   4.830   6.439  0.0966  0.0515 -0.2177
 1078YOPC   GL212388   6.649   4.967   6.634 -0.1505  0.0789  0.2683
 1078YOPC   C1A12389   6.954   4.786   6.959  0.1099 -0.4773 -0.0442
 1078YOPC   D2A12390   7.001   4.475   7.210  0.0448 -0.2051 -0.2510
 1078YOPC   C3A12391   7.433   4.398   7.563  0.0378 -0.0090 -0.1281
 1078YOPC   C4A12392   7.737   4.605   7.536 -0.0779 -0.0118 -0.0509
 1078YOPC   C1B12393   6.466   4.923   7.042  0.3785  0.3446  0.0893
 1078YOPC   C2B12394   6.176   4.713   7.240  0.0862 -0.0303 -0.0499
 1078YOPC   D3B12395   6.166   4.400   7.607 -0.2555  0.0185 -0.2016
 1078YOPC   C4B12396   5.841   4.367   7.785  0.0595 -0.0224  0.0708
 1079YOPC   NC312397  10.203  17.883   5.438  0.2517 -0.4410  0.1176
 1079YOPC   PO412398  10.061  17.430   5.541  0.0569  0.0542  0.0865
 1079YOPC   GL112399  10.086  17.353   6.077  0.1509 -0.0595 -0.0609
 1079YOPC   GL212400   9.905  17.571   6.318 -0.1389 -0.3240  0.1630
 1079YOPC   C1A12401  10.234  17.232   6.444 -0.3465 -0.1621  0.0665
 1079YOPC   D2A12402   9.998  16.980   6.671  0.1004  0.1575 -0.3123
 1079YOPC   C3A12403  10.211  16.720   7.025 -0.3342 -0.4882 -0.1970
 1079YOPC   C4A12404  10.070  16.378   7.237 -0.1880  0.0334  0.1798
 1079YOPC   C1B12405   9.988  17.527   6.691  0.1192  0.1052  0.2016
 1079YOPC   C2B12406   9.968  17.475   7.081 -0.5340 -0.0986  0.0943
 1079YOPC   D3B12407   9.904  17.081   7.201 -0.0612 -0.0143  0.1863
 1079YOPC   C4B12408   9.982  16.868   7.455  0.0117  0.2321  0.1960
 1080YOPC   NC312409   6.678   9.882   6.075  0.0089  0.1149  0.1873
 1080YOPC   PO412410   6.887  10.296   6.121  0.2747  0.0842  0.0807
 1080YOPC   GL112411   6.932  10.449   6.542 -0.1674  0.2442  0.0466
 1080YOPC   GL212412   7.092  10.772   6.579 -0.2374 -0.0403  0.0433
 1080YOPC   C1A12413   7.041  10.303   6.810  0.0689 -0.2427 -0.1338
 1080YOPC   D2A12414   7.294  10.191   7.081  0.1516 -0.0741 -0.0238
 1080YOPC   C3A12415   7.124  10.342   7.446  0.1885 -0.2408 -0.3459
 1080YOPC   C4A12416   7.363  10.390   7.886 -0.0946 -0.3621  0.0344
 1080YOPC   C1B12417   7.490  10.674   6.867  0.0546  0.0385  0.0735
 1080YOPC   C2B12418   7.607  10.548   7.348  0.0336 -0.0266 -0.1776
 1080YOPC   D3B12419   7.712  10.753   7.623 -0.0200 -0.1130 -0.2205
 1080YOPC   C4B12420   7.923  10.744   8.089 -0.1714 -0.0510 -0.2130
 1081YOPC   NC312421  10.562   1.336   6.104 -0.3128  0.0878  0.1572
 1081YOPC   PO412422  10.266   1.021   6.026 -0.1986 -0.3972  0.1456
 1081YOPC   GL112423  10.113   1.045   6.450 -0.1770  0.0149  0.5341
 1081YOPC   GL212424   9.851   0.863   6.656  0.0289  0.2939  0.0645
 1081YOPC   C1A12425  10.274   1.194   6.805 -0.3038  0.2041  0.0202
 1081YOPC   D2A12426  10.178   1.163   7.300 -0.0314  0.2554  0.0439
 1081YOPC   C3A12427  10.444   1.074   7.513 -0.2276 -0.0182 -0.2816
 1081YOPC   C4A12428  10.647   1.165   8.031 -0.0708 -0.2328  0.0103
 1081YOPC   C1B12429   9.823   0.794   7.174  0.0845  0.1096  0.0387
 1081YOPC   C2B12430   9.786   0.990   7.607 -0.4373 -0.3168 -0.3089
 1081YOPC   D3B12431   9.640   1.302   7.898 -0.0547 -0.2250  0.1413
 1081YOPC   C4B12432   9.386   1.435   8.231  0.0591  0.1123 -0.0856
 1082YOPC   NC312433   4.014   6.907   5.390  0.1863  0.2346 -0.2156
 1082YOPC   PO412434   3.894   6.985   5.857 -0.0250  0.1696 -0.0925
 1082YOPC   GL112435   4.108   6.907   6.328  0.1163 -0.2980  0.0187
 1082YOPC   GL212436   4.119   6.571   6.316 -0.0827  0.2177  0.1143
 1082YOPC   C1A12437   4.430   6.935   6.612  0.0508 -0.0749  0.1243
 1082YOPC   D2A12438   4.687   7.300   6.872  0.1597 -0.2222  0.2068
 1082YOPC   C3A12439   4.740   7.397   7.242  0.0303 -0.3564 -0.0927
 1082YOPC   C4A12440   4.814   7.447   7.634 -0.0439 -0.1740  0.1792
 1082YOPC   C1B12441   4.142   6.473   6.774  0.0714 -0.2777 -0.2184
 1082YOPC   C2B12442   4.486   6.673   7.113  0.1861  0.1132  0.0665
 1082YOPC   D3B12443   4.689   6.491   7.463  0.0088  0.1596 -0.0815
 1082YOPC   C4B12444   4.905   6.390   7.894  0.0287  0.3492  0.0270
 1083YOPC   NC312445   6.614  18.045   5.707  0.2631 -0.0119 -0.2735
 1083YOPC   PO412446   6.276  17.891   5.850 -0.1825 -0.1033  0.2495
 1083YOPC   GL112447   6.084  17.783   6.181  0.0261 -0.0472  0.3703
 1083YOPC   GL212448   5.931  18.064   6.208  0.1754  0.1209  0.1287
 1083YOPC   C1A12449   6.123  17.555   6.459  0.2160 -0.3673 -0.2358
 1083YOPC   D2A12450   6.178  17.699   6.822  0.5575  0.0649 -0.0765
 1083YOPC   C3A12451   6.157  17.621   7.294  0.1162 -0.3104  0.1381
 1083YOPC   C4A12452   6.075  17.532   7.703 -0.0828  0.0893  0.2009
 1083YOPC   C1B12453   5.870  18.129   6.656 -0.0625  0.0284 -0.1436
 1083YOPC   C2B12454   5.867  18.082   7.132 -0.0131 -0.2261 -0.0428
 1083YOPC   D3B12455   6.109  18.082   7.467  0.2464 -0.0748 -0.2220
 1083YOPC   C4B12456   5.974  18.008   7.861  0.0012  0.0086  0.1704
 1084YOPC   NC312457   2.606   7.959   6.291  0.2087  0.1589  0.2208
 1084YOPC   PO412458   2.607   8.354   6.092  0.2455  0.0414  0.0028
 1084YOPC   GL112459   2.760   8.446   6.521 -0.3601  0.3212 -0.0608
 1084YOPC   GL212460   3.033   8.585   6.637 -0.1396 -0.0032  0.1796
 1084YOPC   C1A12461   2.706   8.465   6.958 -0.0252 -0.2764  0.2064
 1084YOPC   D2A12462   2.717   8.583   7.347  0.3062  0.1400  0.1730
 1084YOPC   C3A12463   3.013   8.712   7.455 -0.0363  0.0745 -0.2189
 1084YOPC   C4A12464   3.099   8.746   7.846  0.0265  0.3039 -0.1659
 1084YOPC   C1B12465   3.173   8.790   6.965  0.1579  0.2481 -0.0928
 1084YOPC   C2B12466   3.356   9.084   7.054 -0.1525  0.2289 -0.2080
 1084YOPC   D3B12467   3.423   9.090   7.442  0.0591 -0.0038 -0.0164
 1084YOPC   C4B12468   3.462   9.061   7.886  0.0080  0.0378  0.1857
 1085YOPC   NC312469  14.941   7.335   6.565 -0.1331 -0.0694  0.3107
 1085YOPC   PO412470  14.889   7.142   6.936 -0.1414 -0.0424  0.3419
 1085YOPC   GL112471  14.435   6.992   7.010 -0.0966 -0.0628 -0.2375
 1085YOPC   GL212472  14.400   6.617   7.043 -0.0462 -0.2875  0.0277
 1085YOPC   C1A12473  13.994   6.870   7.036  0.2910  0.3734 -0.4743
 1085YOPC   D2A12474  13.844   6.659   7.327 -0.1728  0.0004 -0.1374
 1085YOPC   C3A12475  14.254   6.461   7.754  0.0078 -0.0544  0.3297
 1085YOPC   C4A12476  14.582   6.302   8.018 -0.2768 -0.1644 -0.0853
 1085YOPC   C1B12477  14.336   6.768   7.428 -0.2226  0.0862 -0.2379
 1085YOPC   C2B12478  14.434   6.975   7.867 -0.2736 -0.0405 -0.0453
 1085YOPC   D3B12479  14.558   6.819   8.128  0.0682  0.1095  0.0272
 1085YOPC   C4B12480  14.191   6.580   8.422  0.2586 -0.1234 -0.0996
 1086YOPC   NC312481  12.187   9.583   6.539 -0.3122 -0.0740 -0.3275
 1086YOPC   PO412482  12.266   9.977   6.542 -0.4024  0.2937  0.0401
 1086YOPC   GL112483  12.286   9.935   6.934 -0.0919 -0.3508 -0.1332
 1086YOPC   GL212484  12.534   9.996   7.049 -0.2670 -0.0600 -0.0221
 1086YOPC   C1A12485  12.046   9.759   7.237  0.4320  0.1246 -0.0089
 1086YOPC   D2A12486  11.938   9.889   7.577  0.2212 -0.0420 -0.3217
 1086YOPC   C3A12487  11.607   9.769   7.920 -0.5334 -0.0301  0.0972
 1086YOPC   C4A12488  11.328   9.643   8.262  0.4187 -0.2206  0.1872
 1086YOPC   C1B12489  12.427  10.092   7.410 -0.1420 -0.3194 -0.1827
 1086YOPC   C2B12490  12.509  10.147   7.848  0.2194  0.1577 -0.3829
 1086YOPC   D3B12491  12.807  10.287   8.064 -0.2866 -0.1112 -0.0818
 1086YOPC   C4B12492  13.237  10.427   8.277 -0.0734  0.0291 -0.0153
 1087YOPC   NC312493   8.140   9.248   6.468  0.2875  0.0933  0.0252
 1087YOPC   PO412494   8.425   9.019   6.669 -0.4647  0.1225 -0.0884
 1087YOPC   GL112495   8.422   9.089   7.075 -0.0096  0.3515 -0.5328
 1087YOPC   GL212496   8.239   9.361   6.989 -0.0352  0.1913 -0.0641
 1087YOPC   C1A12497   8.417   9.132   7.507  0.1034 -0.0555 -0.2003
 1087YOPC   D2A12498   8.302   8.958   7.911 -0.1099 -0.0841 -0.0856
 1087YOPC   C3A12499   7.881   9.192   8.077  0.0678 -0.2673 -0.2070
 1087YOPC   C4A12500   7.426   9.368   8.039 -0.1311  0.0589 -0.0805
 1087YOPC   C1B12501   8.108   9.627   7.356  0.0140 -0.2006 -0.0839
 1087YOPC   C2B12502   8.065   9.857   7.745 -0.1150  0.1659 -0.1476
 1087YOPC   D3B12503   7.729   9.815   7.948  0.0403 -0.0451 -0.0855
 1087YOPC   C4B12504   7.492   9.857   8.280 -0.2177 -0.3524 -0.1590
 1088YOPC   NC312505   4.301  18.107   6.077  0.2848 -0.0929  0.0254
 1088YOPC   PO412506   4.662  17.894   5.913  0.1024  0.0426  0.2769
 1088YOPC   GL112507   4.910  18.167   6.227 -0.1150 -0.1698  0.0439
 1088YOPC   GL212508   4.644  18.258   6.523 -0.3269  0.3658 -0.2414
 1088YOPC   C1A12509   5.175  18.243   6.584  0.4353 -0.2821  0.0381
 1088YOPC   D2A12510   5.391  18.129   6.916  0.2790 -0.0189  0.0770
 1088YOPC   C3A12511   5.187  18.299   7.229  0.3067 -0.0346  0.0573
 1088YOPC   C4A12512   4.921  18.517   7.495 -0.0903 -0.0903 -0.0620
 1088YOPC   C1B12513   4.793  18.271   6.933 -0.2430  0.0922 -0.1371
 1088YOPC   C2B12514   4.780  18.059   7.386  0.1421 -0.0269 -0.1454
 1088YOPC   D3B12515   5.187  18.056   7.668 -0.1363 -0.0908 -0.1921
 1088YOPC   C4B12516   5.628  18.279   7.559 -0.3657  0.2992 -0.1602
 1089YOPC   NC312517  11.598   3.033   6.224 -0.1558  0.1249  0.1985
 1089YOPC   PO412518  11.951   2.765   6.209  0.1671  0.0868 -0.1298
 1089YOPC   GL112519  11.839   2.686   6.638 -0.0578 -0.1082 -0.1857
 1089YOPC   GL212520  11.552   2.593   6.547 -0.1637 -0.0081  0.0246
 1089YOPC   C1A12521  12.044   2.740   7.062 -0.0997  0.0230 -0.0546
 1089YOPC   D2A12522  12.087   2.852   7.562 -0.1310 -0.0315 -0.2339
 1089YOPC   C3A12523  11.949   2.566   7.790  0.0166  0.2097 -0.2534
 1089YOPC   C4A12524  11.755   2.251   8.032  0.0605 -0.1295 -0.0810
 1089YOPC   C1B12525  11.480   2.762   7.038 -0.0434  0.4416 -0.0603
 1089YOPC   C2B12526  11.662   2.478   7.361 -0.2226  0.4446  0.2108
 1089YOPC   D3B12527  11.850   2.022   7.254 -0.0377  0.1295 -0.1020
 1089YOPC   C4B12528  11.647   1.534   7.389  0.2367  0.1614  0.0837
 1090YOPC   NC312529   6.475  10.914   5.902  0.1278  0.0066  0.0960
 1090YOPC   PO412530   6.381  10.436   5.902 -0.1308 -0.0038  0.0122
 1090YOPC   GL112531   6.266  10.432   6.313  0.1403 -0.2120  0.0765
 1090YOPC   GL212532   6.494  10.205   6.491  0.0578 -0.0379 -0.2744
 1090YOPC   C1A12533   6.460  10.731   6.672 -0.1079  0.2586 -0.1197
 1090YOPC   D2A12534   6.557  10.828   7.070  0.0509  0.1380 -0.2451
 1090YOPC   C3A12535   6.940  10.758   7.139 -0.2098  0.2223 -0.1304
 1090YOPC   C4A12536   7.221  10.843   7.580 -0.0488  0.0907 -0.2887
 1090YOPC   C1B12537   6.551  10.294   7.030 -0.2224 -0.0723  0.1684
 1090YOPC   C2B12538   6.661  10.505   7.481  0.4257  0.3515 -0.2431
 1090YOPC   D3B12539   6.877  10.557   7.854 -0.0018 -0.3080  0.2522
 1090YOPC   C4B12540   6.741  10.628   8.248  0.1288 -0.0205  0.0814
 1091YOPC   NC312541  12.580   5.849   5.966 -0.1250 -0.1789  0.0967
 1091YOPC   PO412542  12.472   5.999   6.479 -0.1609 -0.4353  0.0449
 1091YOPC   GL112543  12.348   6.007   7.002  0.0420  0.2119  0.2735
 1091YOPC   GL212544  12.197   5.637   7.117 -0.1572  0.1018 -0.0031
 1091YOPC   C1A12545  12.600   5.926   7.343 -0.0474 -0.1815  0.1300
 1091YOPC   D2A12546  12.741   5.728   7.697 -0.1163 -0.2525 -0.2791
 1091YOPC   C3A12547  12.774   5.975   8.075 -0.0146 -0.3004 -0.1856
 1091YOPC   C4A12548  12.778   6.296   8.309  0.1171  0.1021 -0.3263
 1091YOPC   C1B12549  12.239   5.747   7.587 -0.1388 -0.0723  0.1213
 1091YOPC   C2B12550  12.297   5.708   8.017  0.0236 -0.0593  0.0488
 1091YOPC   D3B12551  12.122   5.560   8.328 -0.0944 -0.4289 -0.0439
 1091YOPC   C4B12552  12.080   5.691   8.697 -0.2719 -0.0287  0.1280
 1092YOPC   NC312553  16.557   9.509   6.315  0.0322  0.1132  0.1640
 1092YOPC   PO412554  16.910   9.676   6.367  0.0281 -0.1412  0.0629
 1092YOPC   GL112555  17.068   9.726   6.789  0.2639 -0.1371 -0.0147
 1092YOPC   GL212556  17.294   9.860   6.679 -0.0341  0.1856 -0.0082
 1092YOPC   C1A12557  16.817   9.731   7.241  0.2320 -0.0744  0.0031
 1092YOPC   D2A12558  16.804   9.506   7.741 -0.1627  0.2637 -0.0486
 1092YOPC   C3A12559  16.916   9.710   8.055 -0.0615  0.1824 -0.1986
 1092YOPC   C4A12560  17.039   9.846   8.507  0.2541 -0.1219 -0.1886
 1092YOPC   C1B12561  17.526   9.861   6.988  0.1023 -0.0430 -0.0232
 1092YOPC   C2B12562  17.980   9.789   7.208  0.1299  0.1550  0.3688
 1092YOPC   D3B12563  18.030   9.882   7.657 -0.1644  0.0081 -0.0142
 1092YOPC   C4B12564  18.013   9.859   8.050 -0.1875 -0.2506  0.2112
 1093YOPC   NC312565   8.215   2.508   5.885 -0.1170  0.2675  0.2359
 1093YOPC   PO412566   7.934   2.778   6.019 -0.0289 -0.0329  0.0238
 1093YOPC   GL112567   8.022   2.644   6.389  0.2262  0.4195  0.1319
 1093YOPC   GL212568   8.169   2.354   6.421  0.1478 -0.0059 -0.0396
 1093YOPC   C1A12569   7.980   2.577   6.802 -0.0315 -0.0349  0.0809
 1093YOPC   D2A12570   8.125   2.420   7.202  0.0093  0.0659  0.2391
 1093YOPC   C3A12571   8.095   2.331   7.581 -0.0820  0.0495  0.1166
 1093YOPC   C4A12572   8.210   2.261   7.994 -0.0286  0.1349 -0.0609
 1093YOPC   C1B12573   8.425   2.306   6.770  0.2712 -0.1283  0.1076
 1093YOPC   C2B12574   8.627   2.218   7.126 -0.2210 -0.1672 -0.3927
 1093YOPC   D3B12575   8.634   2.165   7.639 -0.0127  0.1371  0.0545
 1093YOPC   C4B12576   8.811   2.278   8.022  0.0126 -0.2544  0.0074
 1094YOPC   NC312577   5.500   0.406   5.530  0.2147  0.2652  0.0090
 1094YOPC   PO412578   5.467  -0.101   5.515 -0.1994 -0.0136  0.0565
 1094YOPC   GL112579   5.604   0.035   5.896  0.1780  0.0624  0.2126
 1094YOPC   GL212580   5.413  -0.152   6.088  0.1227  0.1095  0.1073
 1094YOPC   C1A12581   5.540   0.238   6.359  0.1202  0.1941  0.0336
 1094YOPC   D2A12582   5.325   0.168   6.678 -0.1662 -0.3953 -0.0171
 1094YOPC   C3A12583   5.497   0.148   7.047  0.0077 -0.1449 -0.0465
 1094YOPC   C4A12584   5.416   0.218   7.387  0.1653  0.1250 -0.1342
 1094YOPC   C1B12585   5.492  -0.579   6.371  0.3188  0.0599 -0.3464
 1094YOPC   C2B12586   5.617  -0.837   6.750 -0.1163 -0.1307  0.0250
 1094YOPC   D3B12587   5.666  -0.914   7.178 -0.0100 -0.1572  0.1534
 1094YOPC   C4B12588   5.583  -0.818   7.631 -0.4411 -0.0961  0.2024
 1095YOPC   NC312589   5.438   7.820   6.115 -0.0515  0.1412  0.2994
 1095YOPC   PO412590   5.863   7.660   5.755  0.2720  0.2635  0.0735
 1095YOPC   GL112591   5.786   7.443   6.208  0.2052 -0.1645  0.0424
 1095YOPC   GL212592   5.302   7.354   6.270 -0.1781 -0.0496  0.0163
 1095YOPC   C1A12593   5.721   7.308   6.669  0.2160 -0.1885  0.3632
 1095YOPC   D2A12594   5.857   6.997   6.968  0.3361 -0.0468  0.2932
 1095YOPC   C3A12595   5.922   7.257   7.329  0.2324 -0.2524 -0.1673
 1095YOPC   C4A12596   6.107   7.241   7.792 -0.3025 -0.4786  0.1856
 1095YOPC   C1B12597   5.112   7.229   6.661 -0.0712 -0.2471  0.0282
 1095YOPC   C2B12598   5.362   7.030   6.813  0.1132  0.1565  0.3779
 1095YOPC   D3B12599   5.379   6.987   7.135  0.1024 -0.1111  0.2644
 1095YOPC   C4B12600   5.638   6.582   7.326  0.2583  0.0495  0.0858
 1096YOPC   NC312601  14.374  12.010   6.526 -0.1505 -0.0977  0.0357
 1096YOPC   PO412602  13.944  11.890   6.572  0.1909  0.2387  0.1568
 1096YOPC   GL112603  13.822  11.850   6.979  0.1304  0.1078  0.0047
 1096YOPC   GL212604  13.813  11.578   7.062  0.3405 -0.1129 -0.2132
 1096YOPC   C1A12605  13.942  11.878   7.477 -0.1594  0.1588  0.3562
 1096YOPC   D2A12606  13.930  11.669   7.883  0.2528 -0.0827  0.1159
 1096YOPC   C3A12607  13.530  11.489   7.960  0.0567  0.0487  0.0075
 1096YOPC   C4A12608  13.265  11.353   7.686  0.0095  0.0647 -0.3525
 1096YOPC   C1B12609  13.727  11.253   7.287  0.0831 -0.2736  0.1683
 1096YOPC   C2B12610  13.797  11.122   7.697 -0.1341  0.0793  0.1494
 1096YOPC   D3B12611  13.994  11.264   8.150  0.1877  0.2646 -0.2823
 1096YOPC   C4B12612  14.405  11.099   8.225 -0.2349 -0.1161 -0.2416
 1097YOPC   NC312613  18.458   6.672   6.187 -0.0105  0.3587  0.2705
 1097YOPC   PO412614  18.185   7.061   6.408  0.1043  0.1709  0.0337
 1097YOPC   GL112615  18.562   7.067   6.614  0.2199 -0.0848 -0.1394
 1097YOPC   GL212616  18.730   7.265   6.750 -0.2878 -0.0253  0.0525
 1097YOPC   C1A12617  18.868   6.870   6.988  0.4496  0.2283  0.1565
 1097YOPC   D2A12618  18.988   6.684   7.361  0.0036 -0.1187 -0.1333
 1097YOPC   C3A12619  19.308   6.787   7.675  0.2413  0.1496  0.0101
 1097YOPC   C4A12620  19.416   7.133   7.939 -0.1119 -0.0835  0.1219
 1097YOPC   C1B12621  18.882   7.330   7.101 -0.2423  0.0755  0.1301
 1097YOPC   C2B12622  19.031   7.263   7.510  0.2167 -0.1537  0.0883
 1097YOPC   D3B12623  18.903   7.314   7.961 -0.0063  0.1518  0.3379
 1097YOPC   C4B12624  18.805   7.686   8.235  0.1186 -0.2550  0.1471
 1098YOPC   NC312625  16.839  15.310   6.004 -0.0346 -0.0263 -0.1210
 1098YOPC   PO412626  16.711  15.663   6.037 -0.0318  0.0328 -0.0836
 1098YOPC   GL112627  16.626  15.399   6.446  0.4171  0.0444 -0.0789
 1098YOPC   GL212628  16.474  15.152   6.485  0.2482 -0.3154 -0.0043
 1098YOPC   C1A12629  16.574  15.322   6.905 -0.2735 -0.1452  0.1081
 1098YOPC   D2A12630  16.387  15.343   7.344  0.0984  0.2482 -0.2074
 1098YOPC   C3A12631  16.295  15.553   7.707  0.1527  0.1088  0.0238
 1098YOPC   C4A12632  15.966  15.337   7.772 -0.2112 -0.0465  0.2240
 1098YOPC   C1B12633  16.500  14.837   6.832 -0.1136 -0.0541  0.0912
 1098YOPC   C2B12634  16.740  14.905   7.175 -0.0513 -0.0947  0.1485
 1098YOPC   D3B12635  16.915  15.262   7.252 -0.0019  0.1989  0.1332
 1098YOPC   C4B12636  17.178  15.670   7.546 -0.0952 -0.1529 -0.3126
 1099YOPC   NC312637  17.514  11.476   6.376  0.2092  0.0501 -0.0320
 1099YOPC   PO412638  17.140  11.249   6.450  0.0644  0.1879  0.0142
 1099YOPC   GL112639  17.116  11.434   6.903 -0.3001 -0.0844 -0.1037
 1099YOPC   GL212640  17.373  11.586   6.942  0.2213  0.0436  0.1510
 1099YOPC   C1A12641  17.361  11.203   7.226 -0.3473 -0.1252 -0.1116
 1099YOPC   D2A12642  17.441  11.170   7.572 -0.3052 -0.3018 -0.0236
 1099YOPC   C3A12643  17.561  11.440   7.804 -0.1487  0.1701 -0.0592
 1099YOPC   C4A12644  17.683  11.488   8.177  0.2915  0.1667 -0.0076
 1099YOPC   C1B12645  17.052  11.574   7.410  0.0949  0.4076 -0.1069
 1099YOPC   C2B12646  17.049  11.466   7.774  0.2133  0.0271 -0.0290
 1099YOPC   D3B12647  17.184  11.634   8.153  0.0715  0.1140 -0.0923
 1099YOPC   C4B12648  16.963  11.464   8.489  0.0606 -0.1566 -0.0528
 1100YOPC   NC312649   2.087   6.527   5.924  0.1797 -0.0510 -0.2016
 1100YOPC   PO412650   1.752   6.771   6.021 -0.0486  0.0412  0.3849
 1100YOPC   GL112651   1.832   6.751   6.519  0.0479 -0.2503 -0.1371
 1100YOPC   GL212652   2.058   6.889   6.422  0.1199 -0.1359 -0.1046
 1100YOPC   C1A12653   1.985   6.778   6.975 -0.1990  0.0573  0.1950
 1100YOPC   D2A12654   1.933   7.003   7.323 -0.0093  0.1305  0.0486
 1100YOPC   C3A12655   2.108   7.456   7.232 -0.1936 -0.0704  0.1471
 1100YOPC   C4A12656   2.165   7.863   7.126 -0.0783 -0.2156  0.2570
 1100YOPC   C1B12657   2.259   7.182   6.744  0.1470 -0.0839 -0.0786
 1100YOPC   C2B12658   2.445   7.016   7.189 -0.4459 -0.1050  0.3727
 1100YOPC   D3B12659   2.311   6.697   7.316  0.1317  0.0349 -0.0696
 1100YOPC   C4B12660   2.295   6.228   7.312 -0.3220 -0.1148  0.3718
 1101YOPC   NC312661   1.241  15.002   6.026 -0.2364  0.0735  0.0480
 1101YOPC   PO412662   0.943  15.473   6.152 -0.1922  0.2035 -0.0754
 1101YOPC   GL112663   0.707  15.232   6.485 -0.2555 -0.4146 -0.1377
 1101YOPC   GL212664   0.980  15.039   6.535 -0.4625  0.0777 -0.2303
 1101YOPC   C1A12665   0.371  15.211   6.822 -0.0499  0.1876 -0.1029
 1101YOPC   D2A12666   0.209  15.221   7.291  0.1297  0.2137 -0.0607
 1101YOPC   C3A12667   0.353  15.056   7.652 -0.0143  0.2052  0.1677
 1101YOPC   C4A12668   0.410  14.806   7.987 -0.2444  0.0758 -0.2051
 1101YOPC   C1B12669   1.209  14.841   6.888  0.0254  0.3023  0.2505
 1101YOPC   C2B12670   1.240  14.992   7.262 -0.1883  0.0335  0.0044
 1101YOPC   D3B12671   1.064  15.234   7.463  0.1177 -0.1204  0.3000
 1101YOPC   C4B12672   0.751  15.261   7.762 -0.0907  0.0577 -0.1050
 1102YOPC   NC312673  17.532  12.289   6.312  0.1473  0.2736 -0.1312
 1102YOPC   PO412674  17.772  11.817   6.445 -0.0798  0.0537 -0.2261
 1102YOPC   GL112675  17.945  11.695   6.805  0.0431 -0.0711  0.0012
 1102YOPC   GL212676  18.187  12.024   6.924 -0.1222 -0.2430 -0.1838
 1102YOPC   C1A12677  18.197  11.478   7.051  0.2307  0.4600 -0.1524
 1102YOPC   D2A12678  18.278  11.379   7.566  0.0450 -0.1199 -0.4586
 1102YOPC   C3A12679  17.978  11.211   7.827  0.1906  0.3651 -0.1999
 1102YOPC   C4A12680  17.648  10.973   8.022 -0.1784  0.0430 -0.0526
 1102YOPC   C1B12681  18.326  11.931   7.339  0.1048 -0.2076 -0.2586
 1102YOPC   C2B12682  18.568  11.907   7.541  0.1611 -0.0855 -0.2862
 1102YOPC   D3B12683  18.557  11.779   7.948  0.4368  0.2245  0.2285
 1102YOPC   C4B12684  18.110  11.754   8.152  0.3364 -0.0208 -0.0048
 1103YOPC   NC312685  16.392   4.674   5.995 -0.0600  0.1989  0.1615
 1103YOPC   PO412686  16.806   4.763   6.156 -0.0245 -0.2876 -0.0260
 1103YOPC   GL112687  16.835   4.875   6.543 -0.0438 -0.0603  0.0295
 1103YOPC   GL212688  16.677   5.152   6.605  0.1939  0.1376  0.1049
 1103YOPC   C1A12689  17.108   5.136   6.934  0.0929  0.2363 -0.1021
 1103YOPC   D2A12690  17.183   5.258   7.283 -0.0780  0.1611  0.0986
 1103YOPC   C3A12691  17.306   5.103   7.652 -0.3110  0.1269 -0.0185
 1103YOPC   C4A12692  17.065   4.835   8.013  0.1033 -0.0471 -0.2143
 1103YOPC   C1B12693  16.226   5.135   6.883 -0.1061 -0.2909 -0.0811
 1103YOPC   C2B12694  16.057   5.107   7.197 -0.1115 -0.3338 -0.0967
 1103YOPC   D3B12695  16.067   4.842   7.517 -0.0761 -0.4757  0.0935
 1103YOPC   C4B12696  15.988   4.504   7.790  0.1926  0.1249  0.1233
 1104YOPC   NC312697  11.724   0.874   6.299  0.1383 -0.1057 -0.1155
 1104YOPC   PO412698  12.212   0.730   6.042 -0.1050  0.2028 -0.1737
 1104YOPC   GL112699  12.336   0.511   6.434 -0.2433 -0.3239 -0.0765
 1104YOPC   GL212700  12.284   0.726   6.685 -0.2864 -0.2065  0.1591
 1104YOPC   C1A12701  12.398   0.228   6.851  0.0223  0.0031 -0.0738
 1104YOPC   D2A12702  12.245   0.239   7.243 -0.0548 -0.2499  0.3022
 1104YOPC   C3A12703  12.606  -0.080   7.459  0.0949  0.2010  0.1115
 1104YOPC   C4A12704  12.771  -0.161   7.817  0.0975  0.0573  0.2765
 1104YOPC   C1B12705  12.289   0.666   7.090  0.0803 -0.0107  0.3357
 1104YOPC   C2B12706  12.500   0.978   7.271  0.0575  0.0713 -0.4521
 1104YOPC   D3B12707  12.646   0.812   7.690  0.4613 -0.4052 -0.0745
 1104YOPC   C4B12708  12.867   0.659   8.085  0.1410 -0.1550 -0.3619
 1105YOPC   NC312709  12.075   0.318   5.856 -0.0177  0.2338  0.3852
 1105YOPC   PO412710  12.163  -0.088   5.956 -0.0358  0.2343 -0.0088
 1105YOPC   GL112711  11.871  -0.122   6.290 -0.0013 -0.1065 -0.1288
 1105YOPC   GL212712  11.913  -0.448   6.353 -0.1196  0.0631  0.3059
 1105YOPC   C1A12713  11.496  -0.089   6.608 -0.2392  0.1456  0.4314
 1105YOPC   D2A12714  11.309  -0.216   6.928 -0.1998 -0.2830 -0.1981
 1105YOPC   C3A12715  11.136  -0.075   7.209 -0.1364 -0.2024  0.0655
 1105YOPC   C4A12716  10.831   0.035   7.560  0.1652  0.1616  0.0230
 1105YOPC   C1B12717  11.994  -0.377   6.740  0.0367  0.2731  0.1210
 1105YOPC   C2B12718  12.214  -0.222   7.136 -0.0056 -0.1151 -0.1410
 1105YOPC   D3B12719  12.085  -0.030   7.571  0.0664  0.1499 -0.2479
 1105YOPC   C4B12720  12.279   0.009   8.019  0.0341 -0.0220 -0.0999
 1106YOPC   NC312721   5.029   4.048   6.399  0.1058 -0.0019  0.1008
 1106YOPC   PO412722   5.427   3.725   6.304 -0.0652  0.0136 -0.0159
 1106YOPC   GL112723   5.585   3.865   6.689  0.0102 -0.0834  0.1560
 1106YOPC   GL212724   5.620   4.273   6.675 -0.1517 -0.2648  0.1455
 1106YOPC   C1A12725   5.620   3.750   7.074  0.1035  0.0855  0.1244
 1106YOPC   D2A12726   5.721   3.514   7.464 -0.2369  0.2288  0.2643
 1106YOPC   C3A12727   5.600   3.462   7.898 -0.1361 -0.0246  0.0027
 1106YOPC   C4A12728   5.617   3.454   8.299 -0.2059  0.1320 -0.1115
 1106YOPC   C1B12729   5.389   4.292   7.063 -0.0300 -0.4415 -0.0044
 1106YOPC   C2B12730   5.034   4.138   7.273  0.0173 -0.0442 -0.5356
 1106YOPC   D3B12731   4.877   3.903   7.697  0.1432  0.2700  0.1508
 1106YOPC   C4B12732   4.629   3.979   8.035 -0.3742 -0.3148  0.0635
 1107YOPC   NC312733   4.886  12.757   5.593 -0.0086  0.1938  0.0459
 1107YOPC   PO412734   4.594  12.454   5.601  0.1913  0.0083 -0.4005
 1107YOPC   GL112735   4.376  12.550   5.973  0.1011 -0.0327  0.1587
 1107YOPC   GL212736   4.268  12.933   5.983  0.1466  0.0483  0.4729
 1107YOPC   C1A12737   4.232  12.538   6.355  0.1141 -0.0740  0.0886
 1107YOPC   D2A12738   3.940  12.504   6.725  0.0356 -0.1348 -0.1083
 1107YOPC   C3A12739   4.102  12.376   7.043 -0.2227 -0.0857 -0.0019
 1107YOPC   C4A12740   4.142  12.425   7.417 -0.0131  0.1275 -0.2072
 1107YOPC   C1B12741   4.298  13.045   6.470  0.1924 -0.1786  0.1919
 1107YOPC   C2B12742   4.296  12.798   6.793 -0.0338  0.2951 -0.4979
 1107YOPC   D3B12743   4.448  12.829   7.243  0.1458  0.1594  0.0488
 1107YOPC   C4B12744   4.652  12.805   7.583  0.2187 -0.3509  0.0075
 1108YOPC   NC312745   5.894   8.381   5.867 -0.0344 -0.1040 -0.0082
 1108YOPC   PO412746   5.487   8.317   6.085 -0.2512 -0.3510  0.1481
 1108YOPC   GL112747   5.312   8.314   6.474 -0.1721 -0.2992  0.0305
 1108YOPC   GL212748   5.051   8.554   6.641  0.1151  0.0058  0.1987
 1108YOPC   C1A12749   5.310   8.203   6.936  0.0703 -0.1054 -0.0366
 1108YOPC   D2A12750   5.572   8.043   7.271 -0.2082 -0.1257 -0.3073
 1108YOPC   C3A12751   5.420   7.804   7.680 -0.1127  0.2532  0.1622
 1108YOPC   C4A12752   5.660   7.484   7.836 -0.0175 -0.1981  0.1623
 1108YOPC   C1B12753   5.142   8.700   7.084 -0.0424 -0.2214  0.1049
 1108YOPC   C2B12754   5.280   8.700   7.427  0.2398  0.1873 -0.1109
 1108YOPC   D3B12755   5.378   8.312   7.720 -0.0300 -0.0007 -0.1614
 1108YOPC   C4B12756   5.549   8.089   8.101 -0.0942  0.0526 -0.1118
 1109YOPC   NC312757  15.850   2.957   5.703 -0.0417  0.0916 -0.2249
 1109YOPC   PO412758  16.219   3.169   5.809  0.1066 -0.3194 -0.0210
 1109YOPC   GL112759  16.217   3.251   6.270 -0.0903  0.0277 -0.2987
 1109YOPC   GL212760  16.342   3.035   6.453  0.2830  0.0357 -0.0894
 1109YOPC   C1A12761  16.161   3.367   6.759 -0.0284 -0.3028  0.2115
 1109YOPC   D2A12762  16.442   3.184   7.057 -0.0121  0.1853 -0.2332
 1109YOPC   C3A12763  16.676   3.416   7.242  0.0758 -0.2208 -0.1643
 1109YOPC   C4A12764  17.050   3.665   7.183  0.0111  0.2175  0.1153
 1109YOPC   C1B12765  16.774   3.015   6.594  0.2836 -0.2552  0.0224
 1109YOPC   C2B12766  17.038   3.201   6.914 -0.1121 -0.2038  0.2151
 1109YOPC   D3B12767  17.060   3.074   7.332  0.0493  0.0587 -0.0235
 1109YOPC   C4B12768  17.100   2.807   7.721 -0.1564  0.1990 -0.0055
 1110YOPC   NC312769   3.739  17.253   6.241 -0.0513  0.1717 -0.0556
 1110YOPC   PO412770   3.420  17.510   6.103  0.1225 -0.0146  0.0430
 1110YOPC   GL112771   3.338  17.586   6.469 -0.0400 -0.3122  0.1480
 1110YOPC   GL212772   3.087  17.420   6.578 -0.0970  0.0498 -0.1776
 1110YOPC   C1A12773   3.408  17.473   6.903  0.1543  0.0510  0.1307
 1110YOPC   D2A12774   3.225  17.495   7.148  0.0545  0.0252  0.1934
 1110YOPC   C3A12775   3.364  17.378   7.415 -0.0829  0.2246 -0.0638
 1110YOPC   C4A12776   3.412  17.255   7.793 -0.0330  0.0286  0.1351
 1110YOPC   C1B12777   2.797  17.275   6.834  0.2640  0.2391  0.1873
 1110YOPC   C2B12778   2.449  17.173   7.082 -0.0246  0.1055  0.2874
 1110YOPC   D3B12779   2.380  17.054   7.542 -0.0004  0.0298 -0.1507
 1110YOPC   C4B12780   2.561  16.737   7.837 -0.0735 -0.0088  0.0501
 1111YOPC   NC312781   0.629  13.556   6.225 -0.2799  0.1437 -0.0313
 1111YOPC   PO412782   0.292  13.748   6.193  0.1365  0.2564  0.0258
 1111YOPC   GL112783   0.083  13.955   6.578  0.0250  0.0184 -0.0012
 1111YOPC   GL212784  -0.176  13.805   6.606  0.0016  0.1748 -0.0091
 1111YOPC   C1A12785   0.149  14.150   6.921  0.0710 -0.0535 -0.2771
 1111YOPC   D2A12786   0.038  14.147   7.363  0.3522 -0.0107 -0.2385
 1111YOPC   C3A12787  -0.279  14.449   7.340 -0.1222 -0.0378  0.0713
 1111YOPC   C4A12788  -0.389  14.722   7.023  0.0318 -0.1204 -0.1379
 1111YOPC   C1B12789   0.017  13.626   6.963  0.0963  0.0467 -0.2448
 1111YOPC   C2B12790  -0.016  13.593   7.485  0.1605  0.1621  0.0352
 1111YOPC   D3B12791  -0.020  13.917   7.794  0.0597 -0.3252 -0.0040
 1111YOPC   C4B12792  -0.316  14.058   8.198 -0.1623  0.4688 -0.1841
 1112YOPC   NC312793  16.749  11.196   6.127 -0.0911 -0.0853 -0.0436
 1112YOPC   PO412794  16.430  11.255   6.364 -0.1250 -0.0095 -0.2526
 1112YOPC   GL112795  16.340  11.330   6.821 -0.1967 -0.3344 -0.1653
 1112YOPC   GL212796  16.598  11.531   6.904  0.0621 -0.0983  0.2687
 1112YOPC   C1A12797  16.237  11.039   7.246 -0.1243 -0.2275  0.0558
 1112YOPC   D2A12798  16.270  10.996   7.688 -0.2834  0.1544 -0.1000
 1112YOPC   C3A12799  16.327  10.710   7.907  0.0845 -0.0306 -0.1721
 1112YOPC   C4A12800  16.735  10.656   8.275  0.0168  0.1598  0.1284
 1112YOPC   C1B12801  16.522  11.402   7.340 -0.1482 -0.2115  0.0736
 1112YOPC   C2B12802  16.458  11.469   7.785 -0.2114  0.3176 -0.0673
 1112YOPC   D3B12803  16.595  11.159   8.114 -0.3387  0.1753  0.0498
 1112YOPC   C4B12804  16.585  11.160   8.515 -0.0528  0.4339 -0.0447
 1113YOPC   NC312805  11.335  10.053   6.174 -0.0182 -0.1254  0.2732
 1113YOPC   PO412806  11.580   9.651   6.346 -0.0335  0.0064 -0.2643
 1113YOPC   GL112807  11.244   9.584   6.630  0.0757 -0.0191  0.1151
 1113YOPC   GL212808  11.178   9.911   6.721  0.2132  0.0666 -0.0345
 1113YOPC   C1A12809  10.969   9.375   6.976 -0.4253 -0.0021  0.0902
 1113YOPC   D2A12810  10.811   9.140   7.312  0.0446 -0.2147  0.0248
 1113YOPC   C3A12811  11.016   9.166   7.611 -0.0333  0.0729 -0.2495
 1113YOPC   C4A12812  11.265   9.209   7.967  0.0631  0.1433 -0.1509
 1113YOPC   C1B12813  11.085   9.919   7.048  0.0308  0.0489  0.0050
 1113YOPC   C2B12814  11.040  10.272   7.374  0.2525 -0.2917  0.0446
 1113YOPC   D3B12815  10.930  10.581   7.586  0.2795  0.3858  0.0379
 1113YOPC   C4B12816  11.057  10.730   8.062 -0.0873 -0.1549 -0.1944
 1114YOPC   NC312817   2.387   9.510   6.124 -0.3320  0.4237 -0.2647
 1114YOPC   PO412818   2.010   9.694   6.133 -0.3012  0.1103 -0.1210
 1114YOPC   GL112819   2.224   9.876   6.400 -0.0925  0.2918  0.3701
 1114YOPC   GL212820   2.450   9.736   6.644 -0.1211  0.4432 -0.1622
 1114YOPC   C1A12821   2.161  10.109   6.680  0.2088 -0.0393 -0.0491
 1114YOPC   D2A12822   1.932  10.382   6.906 -0.0387  0.0720 -0.0444
 1114YOPC   C3A12823   1.923  10.487   7.312  0.1481 -0.1729 -0.2885
 1114YOPC   C4A12824   2.107  10.443   7.659  0.0730 -0.1121  0.1456
 1114YOPC   C1B12825   2.211   9.743   7.052  0.0515 -0.2137  0.0609
 1114YOPC   C2B12826   2.092   9.737   7.541  0.1774  0.1507  0.0343
 1114YOPC   D3B12827   1.745   9.741   7.673  0.0607 -0.2228  0.3340
 1114YOPC   C4B12828   1.279   9.727   7.546 -0.1065  0.0181  0.0908
 1115YOPC   NC312829  10.448  10.087   6.236  0.1114  0.0786  0.0525
 1115YOPC   PO412830  10.908   9.916   6.293 -0.1761  0.5940 -0.1826
 1115YOPC   GL112831  10.667  10.021   6.638 -0.4660 -0.1839 -0.0349
 1115YOPC   GL212832  10.606  10.268   6.692  0.1848  0.1946  0.1352
 1115YOPC   C1A12833  10.488   9.721   6.944  0.0247 -0.1592  0.0039
 1115YOPC   D2A12834  10.749   9.759   7.375 -0.2848 -0.0718 -0.1578
 1115YOPC   C3A12835  10.677  10.049   7.734 -0.0997  0.1711 -0.1413
 1115YOPC   C4A12836  10.568  10.142   8.086 -0.3478 -0.0990 -0.1937
 1115YOPC   C1B12837  10.575  10.279   7.193 -0.1706  0.2150  0.0710
 1115YOPC   C2B12838  10.381  10.434   7.622 -0.5688 -0.0581 -0.0004
 1115YOPC   D3B12839  10.194  10.741   7.600  0.3074 -0.1447 -0.0359
 1115YOPC   C4B12840  10.099  11.129   7.813  0.0667 -0.3011  0.0316
 1116YOPC   NC312841  11.180   0.572   6.133 -0.2513  0.0233 -0.0610
 1116YOPC   PO412842  11.645   0.382   6.216  0.1033  0.2873  0.4684
 1116YOPC   GL112843  11.838   0.476   6.644  0.1383 -0.2384 -0.2124
 1116YOPC   GL212844  11.899   0.157   6.763 -0.0011 -0.0275 -0.0041
 1116YOPC   C1A12845  11.820   0.604   7.023 -0.0367  0.1161  0.1151
 1116YOPC   D2A12846  11.819   0.567   7.381  0.2686 -0.0244 -0.0047
 1116YOPC   C3A12847  12.239   0.487   7.652 -0.1959  0.0736 -0.0715
 1116YOPC   C4A12848  12.587   0.353   7.718 -0.2180 -0.1992 -0.0205
 1116YOPC   C1B12849  11.733   0.035   7.160 -0.0325 -0.0771  0.1100
 1116YOPC   C2B12850  11.578   0.148   7.524  0.0050  0.1354  0.0679
 1116YOPC   D3B12851  11.858   0.287   7.889  0.1491  0.3548 -0.2473
 1116YOPC   C4B12852  12.279   0.536   8.129 -0.1035 -0.1274  0.0950
 1117YOPC   NC312853   3.216   9.209   6.413  0.0829  0.0632  0.1030
 1117YOPC   PO412854   3.525   9.315   6.111  0.2889 -0.3491  0.0477
 1117YOPC   GL112855   3.597   9.510   6.560 -0.1816  0.2120  0.1090
 1117YOPC   GL212856   4.010   9.547   6.617  0.1274 -0.1821  0.1213
 1117YOPC   C1A12857   3.464   9.573   6.927  0.1901 -0.0843 -0.1544
 1117YOPC   D2A12858   3.627   9.524   7.346 -0.1872 -0.0603 -0.2210
 1117YOPC   C3A12859   3.418   9.501   7.802 -0.1404 -0.1181  0.1534
 1117YOPC   C4A12860   3.457   9.844   8.179  0.0690  0.1883 -0.2330
 1117YOPC   C1B12861   4.007   9.651   7.069  0.2381 -0.2440 -0.4018
 1117YOPC   C2B12862   4.114   9.631   7.455  0.1254  0.0937 -0.0464
 1117YOPC   D3B12863   3.872   9.352   7.703  0.3547 -0.1820 -0.1671
 1117YOPC   C4B12864   3.960   9.050   8.046 -0.1176 -0.1763  0.0183
 1118YOPC   NC312865   7.936  13.765   5.867 -0.0219 -0.0546 -0.4356
 1118YOPC   PO412866   7.946  14.281   5.675  0.0742 -0.2471 -0.0887
 1118YOPC   GL112867   7.983  14.205   6.159  0.0663 -0.0967  0.0401
 1118YOPC   GL212868   7.740  14.437   6.265 -0.0833  0.1743 -0.0740
 1118YOPC   C1A12869   8.253  14.154   6.477  0.0984 -0.1248  0.0238
 1118YOPC   D2A12870   8.248  14.024   6.850 -0.0417  0.0620  0.0809
 1118YOPC   C3A12871   8.238  14.131   7.281  0.4417 -0.2275  0.2446
 1118YOPC   C4A12872   8.295  14.076   7.761 -0.0693  0.1210  0.0031
 1118YOPC   C1B12873   7.847  14.326   6.724 -0.5043  0.0087  0.1179
 1118YOPC   C2B12874   7.834  14.336   7.122  0.1150  0.1100  0.0811
 1118YOPC   D3B12875   7.799  14.332   7.603 -0.0546  0.4575  0.1504
 1118YOPC   C4B12876   7.460  14.441   7.947  0.0468  0.0910 -0.1389
 1119YOPC   NC312877   0.815   9.989   6.159  0.1051  0.0911 -0.1298
 1119YOPC   PO412878   0.479  10.281   6.185 -0.1753 -0.1458 -0.1044
 1119YOPC   GL112879   0.665  10.305   6.530 -0.0251  0.2745  0.0154
 1119YOPC   GL212880   0.965  10.522   6.339 -0.2707 -0.0762  0.0296
 1119YOPC   C1A12881   0.705  10.344   6.925  0.1781 -0.0473 -0.1646
 1119YOPC   D2A12882   0.773  10.533   7.346  0.1731 -0.1726 -0.2304
 1119YOPC   C3A12883   1.149  10.463   7.488 -0.5181  0.0978 -0.1898
 1119YOPC   C4A12884   1.474  10.198   7.482 -0.4199  0.0290  0.1037
 1119YOPC   C1B12885   1.020  10.715   6.698  0.0819  0.1865 -0.0303
 1119YOPC   C2B12886   1.010  10.939   7.110 -0.0931 -0.0261  0.0962
 1119YOPC   D3B12887   1.006  10.945   7.642 -0.0557 -0.1268  0.1298
 1119YOPC   C4B12888   0.868  10.627   7.892 -0.1214 -0.0112 -0.1656
 1120YOPC   NC312889   6.025   9.656   5.690 -0.2435  0.4889 -0.2095
 1120YOPC   PO412890   6.216   9.955   5.965 -0.2093 -0.0666 -0.1429
 1120YOPC   GL112891   6.047  10.008   6.389  0.0964  0.2186  0.3647
 1120YOPC   GL212892   5.782  10.160   6.490 -0.1249 -0.1249 -0.0857
 1120YOPC   C1A12893   6.100   9.901   6.796  0.0413 -0.0673 -0.1016
 1120YOPC   D2A12894   6.073   9.861   7.111 -0.0735  0.0925 -0.1935
 1120YOPC   C3A12895   6.344   9.640   7.450  0.0544 -0.0557  0.2312
 1120YOPC   C4A12896   6.374   9.327   7.598  0.4018 -0.0254 -0.0489
 1120YOPC   C1B12897   6.065  10.396   6.802  0.1818 -0.3429 -0.1641
 1120YOPC   C2B12898   6.151  10.542   7.273  0.0172 -0.2375  0.0702
 1120YOPC   D3B12899   6.357  10.142   7.471  0.4868  0.2289  0.1130
 1120YOPC   C4B12900   6.262   9.884   7.907 -0.2133  0.1868 -0.0695
 1121YOPC   NC312901  13.262  17.366   5.818  0.0676  0.0360 -0.2331
 1121YOPC   PO412902  13.421  17.677   5.988  0.1160  0.1543 -0.2201
 1121YOPC   GL112903  13.394  17.467   6.467 -0.2282 -0.0500 -0.1235
 1121YOPC   GL212904  13.492  17.136   6.488 -0.0232  0.0292  0.0488
 1121YOPC   C1A12905  13.424  17.468   6.954  0.2382 -0.0670 -0.1356
 1121YOPC   D2A12906  13.508  17.751   7.292 -0.1101 -0.0345  0.4039
 1121YOPC   C3A12907  13.395  17.664   7.765  0.0086  0.3898  0.0648
 1121YOPC   C4A12908  13.116  17.611   8.161  0.2363 -0.2007 -0.3142
 1121YOPC   C1B12909  13.710  17.111   6.881  0.1534 -0.2597 -0.0669
 1121YOPC   C2B12910  13.629  16.995   7.225 -0.0314 -0.1871 -0.1916
 1121YOPC   D3B12911  13.167  16.838   7.256  0.2943 -0.2259 -0.2884
 1121YOPC   C4B12912  12.932  16.452   7.197  0.0048 -0.1380  0.1212
 1122YOPC   NC312913   4.433   4.371   5.858 -0.2836 -0.0871 -0.1060
 1122YOPC   PO412914   4.017   4.730   5.942  0.0448 -0.1886 -0.2701
 1122YOPC   GL112915   4.191   4.655   6.411  0.0688 -0.0737  0.0481
 1122YOPC   GL212916   4.199   4.938   6.625 -0.0847 -0.4127  0.0499
 1122YOPC   C1A12917   4.203   4.421   6.783  0.2210  0.2058 -0.3356
 1122YOPC   D2A12918   4.247   4.048   6.960  0.3104  0.0738  0.1741
 1122YOPC   C3A12919   4.410   3.928   7.370 -0.0864 -0.0911 -0.3164
 1122YOPC   C4A12920   4.420   3.600   7.739  0.2012  0.1261 -0.0166
 1122YOPC   C1B12921   4.174   4.870   7.151  0.0275  0.2977 -0.4319
 1122YOPC   C2B12922   4.272   4.758   7.583 -0.0924  0.1732 -0.3435
 1122YOPC   D3B12923   4.216   5.111   7.979  0.2986 -0.2183 -0.0833
 1122YOPC   C4B12924   4.492   5.441   8.245  0.2705  0.1196  0.0330
 1123YOPC   NC312925  14.030  17.980   5.790 -0.0996 -0.2104  0.0068
 1123YOPC   PO412926  14.276  18.079   6.218 -0.0683  0.1341 -0.1126
 1123YOPC   GL112927  14.309  18.100   6.581 -0.0218  0.1450 -0.3261
 1123YOPC   GL212928  14.223  17.796   6.689  0.0212  0.1624 -0.1669
 1123YOPC   C1A12929  14.324  17.949   7.092 -0.2112 -0.1705 -0.4033
 1123YOPC   D2A12930  13.959  17.971   7.452 -0.2441  0.3212  0.0911
 1123YOPC   C3A12931  13.678  18.107   7.826 -0.0567 -0.2996  0.0236
 1123YOPC   C4A12932  13.692  18.081   8.235 -0.0158 -0.1164 -0.0925
 1123YOPC   C1B12933  13.996  17.534   7.023 -0.0966  0.1725  0.1847
 1123YOPC   C2B12934  13.858  17.496   7.431 -0.2504 -0.3517 -0.0693
 1123YOPC   D3B12935  13.968  17.666   7.843 -0.1372  0.0957 -0.1258
 1123YOPC   C4B12936  14.183  18.030   7.960  0.2529 -0.1588 -0.2547
 1124YOPC   NC312937   0.430   8.950   6.054  0.2521 -0.1190  0.0155
 1124YOPC   PO412938   0.898   9.129   6.004  0.0292 -0.0779  0.0575
 1124YOPC   GL112939   0.945   9.463   6.386 -0.0387 -0.1848  0.3491
 1124YOPC   GL212940   0.632   9.619   6.404  0.2443  0.1816  0.1985
 1124YOPC   C1A12941   1.285   9.570   6.746  0.0252 -0.1579 -0.0471
 1124YOPC   D2A12942   1.326   9.674   7.057  0.2208  0.0769 -0.0525
 1124YOPC   C3A12943   1.169  10.005   7.108  0.3647 -0.2040  0.2183
 1124YOPC   C4A12944   1.260  10.434   7.047  0.3173  0.2817 -0.0581
 1124YOPC   C1B12945   0.789   9.598   6.911  0.1575  0.0666 -0.0400
 1124YOPC   C2B12946   0.863   9.421   7.316  0.0829 -0.0899 -0.0991
 1124YOPC   D3B12947   0.679   9.396   7.718  0.2059 -0.1455  0.1013
 1124YOPC   C4B12948   0.913   9.065   8.065 -0.1911  0.0225 -0.0493
 1125YOPC   NC312949   8.051  10.990   5.640  0.0783  0.1474  0.3886
 1125YOPC   PO412950   8.356  11.239   5.794  0.2277 -0.0640  0.3066
 1125YOPC   GL112951   8.263  11.479   6.233 -0.2061 -0.3417  0.0260
 1125YOPC   GL212952   8.383  11.743   6.256  0.2533 -0.1770  0.3910
 1125YOPC   C1A12953   8.477  11.402   6.635 -0.1525 -0.1884 -0.2919
 1125YOPC   D2A12954   8.195  11.209   6.923  0.2099 -0.1458 -0.1051
 1125YOPC   C3A12955   8.299  10.911   7.290  0.0388 -0.0383 -0.0541
 1125YOPC   C4A12956   8.300  10.648   7.637  0.3445  0.0598 -0.0651
 1125YOPC   C1B12957   8.297  11.856   6.692  0.2028 -0.2321  0.2179
 1125YOPC   C2B12958   8.299  12.141   7.047  0.2092 -0.1415 -0.0862
 1125YOPC   D3B12959   8.350  11.983   7.475 -0.1047 -0.2365 -0.2775
 1125YOPC   C4B12960   8.268  11.653   7.856  0.2549  0.2342  0.1878
 1126YOPC   NC312961  12.038   6.776   6.680  0.1412 -0.1369  0.0441
 1126YOPC   PO412962  12.170   6.349   6.613  0.0925 -0.5319 -0.3182
 1126YOPC   GL112963  12.192   6.529   7.023 -0.1066 -0.1755  0.0381
 1126YOPC   GL212964  12.478   6.701   6.979 -0.1344 -0.1581  0.3859
 1126YOPC   C1A12965  12.240   6.293   7.393  0.0796  0.0458  0.1448
 1126YOPC   D2A12966  12.411   6.230   7.863  0.0696  0.0921  0.0483
 1126YOPC   C3A12967  12.381   6.551   8.080  0.0862  0.5393 -0.1406
 1126YOPC   C4A12968  12.091   6.761   8.329 -0.2598  0.0902 -0.0239
 1126YOPC   C1B12969  12.447   6.760   7.417  0.1559  0.1233  0.2078
 1126YOPC   C2B12970  12.215   6.966   7.819 -0.2656  0.1373  0.2619
 1126YOPC   D3B12971  11.758   6.953   7.871  0.1404 -0.2067  0.2199
 1126YOPC   C4B12972  11.519   6.915   8.214 -0.3544  0.0231 -0.3223
 1127YOPC   NC312973  15.529   2.200   6.273 -0.3602 -0.4219 -0.0084
 1127YOPC   PO412974  15.732   2.406   5.877 -0.0255 -0.0651  0.2174
 1127YOPC   GL112975  15.645   2.650   6.354 -0.0312 -0.1706 -0.1234
 1127YOPC   GL212976  15.395   2.796   6.432 -0.5386  0.0639  0.0866
 1127YOPC   C1A12977  15.860   2.907   6.549  0.0465  0.0614 -0.4215
 1127YOPC   D2A12978  16.010   2.944   6.932 -0.0598  0.2796  0.1862
 1127YOPC   C3A12979  16.059   2.914   7.360 -0.2586  0.1679  0.2001
 1127YOPC   C4A12980  16.173   2.529   7.609 -0.0725  0.0561  0.2730
 1127YOPC   C1B12981  15.435   2.754   6.813 -0.1565  0.0019 -0.0082
 1127YOPC   C2B12982  15.635   2.736   7.182  0.1930  0.1641  0.2521
 1127YOPC   D3B12983  15.998   2.430   7.142 -0.2324  0.0918 -0.1474
 1127YOPC   C4B12984  16.017   2.038   6.915  0.0830 -0.1549  0.0715
 1128YOPC   NC312985   0.448   5.029   6.104 -0.0735 -0.2228 -0.1709
 1128YOPC   PO412986   0.749   4.740   6.156 -0.1074 -0.0144  0.0845
 1128YOPC   GL112987   0.687   4.624   6.613 -0.0921  0.4102  0.0797
 1128YOPC   GL212988   0.422   4.722   6.619 -0.1730  0.0035  0.3395
 1128YOPC   C1A12989   0.691   4.712   7.027 -0.0217 -0.0254  0.1406
 1128YOPC   D2A12990   0.523   4.939   7.394  0.2773 -0.1643  0.0206
 1128YOPC   C3A12991   0.721   5.274   7.594  0.0831  0.1738 -0.0975
 1128YOPC   C4A12992   0.981   5.494   7.832  0.1538 -0.1411  0.1053
 1128YOPC   C1B12993   0.302   5.021   6.963  0.1902  0.1045  0.0706
 1128YOPC   C2B12994   0.016   5.361   6.983 -0.0123 -0.1465  0.2347
 1128YOPC   D3B12995  -0.479   5.230   6.983 -0.1644  0.2027  0.1860
 1128YOPC   C4B12996  -0.790   5.104   7.343  0.0572 -0.0512 -0.1735
 1129YOPC   NC312997   4.446  13.639   5.352 -0.3235 -0.4546 -0.0697
 1129YOPC   PO412998   4.084  13.360   5.582  0.1038 -0.0595 -0.1428
 1129YOPC   GL112999   4.159  13.454   6.062  0.1691 -0.1029 -0.1168
 1129YOPC   GL213000   4.524  13.349   6.145 -0.1592 -0.2308  0.0442
 1129YOPC   C1A13001   4.108  13.509   6.467  0.1240 -0.1148  0.0220
 1129YOPC   D2A13002   4.157  13.658   6.865  0.1289 -0.0919  0.1964
 1129YOPC   C3A13003   4.271  13.818   7.273  0.1401 -0.0078 -0.0846
 1129YOPC   C4A13004   3.957  14.047   7.527  0.1516 -0.0913 -0.1571
 1129YOPC   C1B13005   4.628  13.438   6.561 -0.0440  0.2947  0.2412
 1129YOPC   C2B13006   4.518  13.319   6.912 -0.1683  0.3895  0.1922
 1129YOPC   D3B13007   4.821  13.227   7.136  0.0616  0.2036  0.1808
 1129YOPC   C4B13008   5.194  13.453   7.211  0.2223 -0.3412 -0.0491
 1130YOPC   NC313009  11.284  13.873   5.606  0.2329 -0.0138  0.2326
 1130YOPC   PO413010  11.308  13.880   6.027 -0.1003  0.0163 -0.0897
 1130YOPC   GL113011  11.590  14.160   6.266 -0.0220  0.1626 -0.4497
 1130YOPC   GL213012  11.399  14.419   6.322 -0.0700 -0.2151  0.2842
 1130YOPC   C1A13013  11.545  14.234   6.736 -0.3722  0.3226 -0.0893
 1130YOPC   D2A13014  11.245  14.531   7.001 -0.1596 -0.1612 -0.1585
 1130YOPC   C3A13015  11.194  14.202   7.369 -0.2181 -0.0164 -0.1982
 1130YOPC   C4A13016  11.317  14.176   7.716  0.0240  0.3459 -0.2301
 1130YOPC   C1B13017  11.008  14.447   6.487 -0.1389 -0.1662  0.1620
 1130YOPC   C2B13018  10.626  14.409   6.630 -0.0900  0.0176 -0.1440
 1130YOPC   D3B13019  10.699  14.364   7.109  0.1604  0.2225  0.1714
 1130YOPC   C4B13020  10.779  14.408   7.533  0.0772 -0.2170  0.1362
 1131YOPC   NC313021  10.569  15.457   5.546  0.2877 -0.1433  0.1874
 1131YOPC   PO413022  10.812  15.084   5.467  0.0419 -0.1499  0.0279
 1131YOPC   GL113023  10.842  15.156   5.931 -0.0893 -0.1728 -0.1327
 1131YOPC   GL213024  11.084  15.461   6.097 -0.0722 -0.0518  0.1817
 1131YOPC   C1A13025  10.795  14.825   6.306 -0.1579 -0.0313  0.0605
 1131YOPC   D2A13026  10.887  14.861   6.774 -0.3351 -0.2369  0.1829
 1131YOPC   C3A13027  10.893  14.881   7.243  0.0051 -0.1147  0.1616
 1131YOPC   C4A13028  10.906  15.341   7.445  0.4360 -0.5243  0.0418
 1131YOPC   C1B13029  10.960  15.231   6.510  0.2485  0.1107 -0.2781
 1131YOPC   C2B13030  10.734  15.326   6.949  0.1623  0.0349 -0.0562
 1131YOPC   D3B13031  10.430  15.121   7.197  0.2516 -0.0705  0.2182
 1131YOPC   C4B13032  10.449  14.800   7.465 -0.1415 -0.6125  0.1463
 1132YOPC   NC313033   1.450   0.148   5.980 -0.3925 -0.0929  0.0353
 1132YOPC   PO413034   1.067   0.008   5.905  0.1578  0.2166 -0.3420
 1132YOPC   GL113035   1.049   0.050   6.349  0.1116  0.2850  0.1467
 1132YOPC   GL213036   1.157   0.140   6.543  0.1123  0.0053  0.0096
 1132YOPC   C1A13037   0.705   0.111   6.740 -0.0129 -0.2965 -0.2744
 1132YOPC   D2A13038   0.620   0.028   7.146  0.1438 -0.5275  0.3098
 1132YOPC   C3A13039   0.596  -0.034   7.565 -0.3191 -0.2210 -0.3339
 1132YOPC   C4A13040   0.758  -0.074   7.993 -0.0503 -0.0769  0.0389
 1132YOPC   C1B13041   1.193  -0.037   6.903  0.1697 -0.0677  0.0854
 1132YOPC   C2B13042   1.121   0.014   7.357  0.1123  0.0720 -0.0077
 1132YOPC   D3B13043   1.324  -0.099   7.747  0.0765  0.3467  0.3245
 1132YOPC   C4B13044   1.270  -0.119   8.140 -0.0006 -0.0428  0.0911
 1133YOPC   NC313045  17.358   4.726   5.996  0.0996 -0.3388  0.2844
 1133YOPC   PO413046  17.702   4.419   6.246 -0.3235  0.1806 -0.1752
 1133YOPC   GL113047  17.603   4.287   6.670  0.0928  0.2729  0.0626
 1133YOPC   GL213048  17.749   3.940   6.718  0.2273  0.0569 -0.0819
 1133YOPC   C1A13049  17.560   4.180   7.190  0.3895 -0.0503 -0.1146
 1133YOPC   D2A13050  17.381   3.958   7.506 -0.1867  0.2564  0.3334
 1133YOPC   C3A13051  17.219   4.115   7.874 -0.1550 -0.3103  0.1429
 1133YOPC   C4A13052  17.373   4.313   8.253  0.0007  0.0256  0.2089
 1133YOPC   C1B13053  17.848   3.783   7.163  0.3923  0.1675 -0.2256
 1133YOPC   C2B13054  17.881   3.766   7.660  0.0485 -0.0884 -0.0680
 1133YOPC   D3B13055  17.467   3.687   7.932  0.1713 -0.1810 -0.0671
 1133YOPC   C4B13056  17.327   3.790   8.322  0.1896 -0.1434  0.0708
 1134YOPC   NC313057  14.724   9.714   6.294  0.1506 -0.0099  0.0082
 1134YOPC   PO413058  14.495   9.979   6.574  0.3984 -0.2225 -0.1556
 1134YOPC   GL113059  14.544   9.541   6.741  0.0518 -0.2935 -0.2226
 1134YOPC   GL213060  14.347   9.604   7.078 -0.2732 -0.1022 -0.1968
 1134YOPC   C1A13061  14.546   9.142   7.014  0.3335 -0.1584 -0.1688
 1134YOPC   D2A13062  14.670   8.702   7.224 -0.2401 -0.0212 -0.2656
 1134YOPC   C3A13063  14.907   8.404   7.530  0.0050 -0.0159  0.1480
 1134YOPC   C4A13064  15.109   8.236   7.856  0.1940  0.0415  0.1573
 1134YOPC   C1B13065  14.311   9.472   7.368  0.0037 -0.2419  0.1212
 1134YOPC   C2B13066  14.366   9.098   7.578 -0.1594  0.2269  0.3173
 1134YOPC   D3B13067  14.560   9.056   7.982  0.0636  0.0397  0.3328
 1134YOPC   C4B13068  14.862   9.360   8.204  0.0944  0.0702 -0.1011
 1135YOPC   NC313069  14.371  14.452   6.206 -0.2859 -0.2684 -0.0271
 1135YOPC   PO413070  13.907  14.659   5.985 -0.0063  0.0856 -0.0010
 1135YOPC   GL113071  13.752  14.763   6.445  0.0318  0.1853 -0.1501
 1135YOPC   GL213072  13.595  14.515   6.625  0.2468 -0.1900 -0.1400
 1135YOPC   C1A13073  13.735  15.044   6.824 -0.0667 -0.2023  0.0983
 1135YOPC   D2A13074  13.580  15.249   7.166 -0.1140  0.0790 -0.2234
 1135YOPC   C3A13075  13.584  15.788   7.121  0.0407 -0.0019 -0.2418
 1135YOPC   C4A13076  13.864  16.103   7.083 -0.0684 -0.1022  0.0246
 1135YOPC   C1B13077  13.513  14.401   7.084 -0.0107 -0.1107  0.0952
 1135YOPC   C2B13078  13.409  14.336   7.577 -0.1227 -0.0883 -0.1541
 1135YOPC   D3B13079  13.188  13.933   7.632 -0.2839  0.2366 -0.0660
 1135YOPC   C4B13080  12.978  13.745   7.311 -0.1505  0.1341 -0.0371
 1136YOPC   NC313081  15.343   5.059   6.041 -0.1392 -0.0329  0.0234
 1136YOPC   PO413082  14.934   4.856   6.151 -0.0944  0.2140  0.5324
 1136YOPC   GL113083  15.234   4.682   6.510  0.2348  0.2302 -0.1338
 1136YOPC   GL213084  15.156   4.765   6.830 -0.1081 -0.0030  0.0340
 1136YOPC   C1A13085  15.561   4.546   6.676  0.0334 -0.2300 -0.0091
 1136YOPC   D2A13086  15.723   4.162   6.808  0.1495  0.1785 -0.3027
 1136YOPC   C3A13087  15.767   4.158   7.240 -0.0365 -0.2735  0.2446
 1136YOPC   C4A13088  15.842   3.973   7.548 -0.1451  0.0527 -0.3266
 1136YOPC   C1B13089  15.262   4.946   7.171 -0.2115  0.1443  0.3507
 1136YOPC   C2B13090  15.085   5.012   7.455  0.1072 -0.0152  0.1871
 1136YOPC   D3B13091  14.854   5.094   7.763 -0.0716 -0.0013 -0.5236
 1136YOPC   C4B13092  15.057   4.965   8.232 -0.2683 -0.0923  0.1740
 1137YOPC   NC313093  18.248   4.461   6.174 -0.2829  0.1927 -0.2419
 1137YOPC   PO413094  18.431   4.852   6.177 -0.1272  0.2533 -0.0736
 1137YOPC   GL113095  18.484   4.668   6.547  0.2762 -0.4011 -0.1002
 1137YOPC   GL213096  18.316   4.803   6.788 -0.0447  0.1032  0.1860
 1137YOPC   C1A13097  18.655   4.487   6.943  0.0557 -0.2782 -0.1381
 1137YOPC   D2A13098  18.740   4.586   7.266 -0.1965  0.1615 -0.0220
 1137YOPC   C3A13099  18.701   4.809   7.725  0.0598  0.2306 -0.0590
 1137YOPC   C4A13100  18.898   5.016   7.952 -0.1517  0.0855  0.1920
 1137YOPC   C1B13101  18.363   4.915   7.253  0.2638 -0.1629  0.1161
 1137YOPC   C2B13102  18.254   5.159   7.513 -0.1120  0.0954  0.4067
 1137YOPC   D3B13103  18.251   5.078   7.923 -0.3524  0.2111  0.1738
 1137YOPC   C4B13104  17.976   5.111   8.286  0.0753  0.1407  0.1615
 1138YOPC   NC313105  12.885   2.244   6.199  0.4360  0.0940 -0.0075
 1138YOPC   PO413106  12.694   2.305   6.551 -0.0080  0.0506 -0.3706
 1138YOPC   GL113107  12.720   2.550   6.898  0.0865 -0.0210 -0.0478
 1138YOPC   GL213108  12.421   2.397   7.005 -0.2893  0.2985  0.1487
 1138YOPC   C1A13109  12.758   2.376   7.330  0.0670 -0.0177  0.1458
 1138YOPC   D2A13110  12.671   2.416   7.744 -0.0170  0.1337  0.0174
 1138YOPC   C3A13111  12.398   2.254   7.888  0.0070  0.0062 -0.3910
 1138YOPC   C4A13112  12.181   2.149   8.253  0.0958 -0.1145  0.0672
 1138YOPC   C1B13113  12.194   2.352   7.385 -0.1368  0.1978 -0.2656
 1138YOPC   C2B13114  11.999   2.012   7.697  0.4161 -0.0276  0.1176
 1138YOPC   D3B13115  11.575   1.950   7.725 -0.1198  0.3256  0.0091
 1138YOPC   C4B13116  11.388   1.673   7.863 -0.0491 -0.1245 -0.1925
 1139YOPC   NC313117   8.353  17.628   5.515  0.0899  0.1610 -0.0048
 1139YOPC   PO413118   8.126  17.285   5.761 -0.0386 -0.0800  0.0715
 1139YOPC   GL113119   8.149  17.181   6.115  0.2419 -0.1710  0.1535
 1139YOPC   GL213120   7.900  16.949   6.299 -0.1109  0.1979  0.0629
 1139YOPC   C1A13121   8.152  17.325   6.529  0.2549  0.0552 -0.3790
 1139YOPC   D2A13122   8.346  17.478   6.880 -0.0202  0.1490 -0.1470
 1139YOPC   C3A13123   8.204  17.558   7.338  0.1926 -0.1138 -0.2522
 1139YOPC   C4A13124   7.753  17.559   7.524 -0.1005  0.1133 -0.2239
 1139YOPC   C1B13125   7.731  16.744   6.573  0.4077  0.1677 -0.2718
 1139YOPC   C2B13126   7.646  16.422   6.959 -0.0331 -0.0513 -0.2304
 1139YOPC   D3B13127   7.856  16.528   7.270  0.1854 -0.2276  0.0065
 1139YOPC   C4B13128   8.327  16.510   7.234 -0.2960 -0.0724 -0.0533
 1140YOPC   NC313129  14.642   5.907   6.286 -0.2825 -0.1442 -0.1670
 1140YOPC   PO413130  14.240   5.843   6.237 -0.0606 -0.0181 -0.3590
 1140YOPC   GL113131  14.432   5.621   6.645 -0.4103  0.2446 -0.0247
 1140YOPC   GL213132  14.495   5.719   6.905  0.2028  0.0041  0.0708
 1140YOPC   C1A13133  14.275   5.322   6.804  0.0221  0.0511  0.0424
 1140YOPC   D2A13134  14.283   4.937   6.960 -0.0267 -0.1338 -0.0296
 1140YOPC   C3A13135  14.412   4.998   7.339  0.1110  0.1574  0.2011
 1140YOPC   C4A13136  14.443   4.757   7.662  0.1705 -0.1095 -0.2438
 1140YOPC   C1B13137  14.308   5.566   7.348  0.0058 -0.3741 -0.0359
 1140YOPC   C2B13138  14.402   5.317   7.741  0.0675  0.0053 -0.2595
 1140YOPC   D3B13139  14.729   5.411   8.095 -0.1586 -0.0549  0.0240
 1140YOPC   C4B13140  14.869   5.830   8.120 -0.3130 -0.1097 -0.1541
 1141ERGO   ROH13141   1.528   4.145   7.066  0.1075 -0.2049  0.0693
 1141ERGO    R113142   1.483   4.145   7.345  0.2993 -0.0668  0.0995
 1141ERGO    R213143   1.627   4.306   7.519  0.1920  0.2606 -0.1225
 1141ERGO    R313144   1.380   4.388   7.596  0.1259 -0.0307 -0.0003
 1141ERGO    R413145   1.535   4.379   7.844  0.3239  0.2692 -0.0846
 1141ERGO    R513146   1.344   4.281   7.807  0.4125 -0.0046  0.0762
 1141ERGO    C113147   1.249   4.499   8.105  0.3386  0.0007  0.0521
 1141ERGO    C213148   1.031   4.365   8.442 -0.0574 -0.0826  0.1194
 1142ERGO   ROH13149  14.684   5.130   6.767 -0.1293  0.2051 -0.1787
 1142ERGO    R113150  14.819   5.169   7.013 -0.0651  0.0806 -0.1925
 1142ERGO    R213151  14.932   5.411   7.083  0.0214  0.0257 -0.1312
 1142ERGO    R313152  14.778   5.382   7.306  0.0579 -0.0080 -0.1110
 1142ERGO    R413153  14.840   5.668   7.295 -0.1180  0.0234 -0.1887
 1142ERGO    R513154  14.873   5.534   7.464 -0.0236  0.0892 -0.1581
 1142ERGO    C113155  14.642   5.790   7.628 -0.1650 -0.0095 -0.2033
 1142ERGO    C213156  14.409   5.844   7.929  0.0744  0.3427 -0.0504
 1143ERGO   ROH13157   2.845   7.150   6.862 -0.1140  0.1004  0.0456
 1143ERGO    R113158   3.004   7.082   7.086 -0.0022 -0.1527 -0.1071
 1143ERGO    R213159   2.972   7.201   7.333  0.2782 -0.2597 -0.0173
 1143ERGO    R313160   2.947   6.943   7.417  0.1316 -0.2873 -0.1385
 1143ERGO    R413161   2.983   7.099   7.663  0.1356 -0.4083 -0.0566
 1143ERGO    R513162   3.100   6.926   7.601  0.0732 -0.4386 -0.1001
 1143ERGO    C113163   2.966   6.798   7.935 -0.0851 -0.5206 -0.1932
 1143ERGO    C213164   2.752   6.570   8.125 -0.0000  0.1641 -0.1022
 1144ERGO   ROH13165  15.822   5.679   6.827 -0.0274 -0.0188  0.0348
 1144ERGO    R113166  15.936   5.607   7.077 -0.0280  0.1744  0.0927
 1144ERGO    R213167  15.893   5.753   7.307 -0.2507  0.2032  0.0360
 1144ERGO    R313168  15.813   5.513   7.406 -0.0332  0.1476  0.0833
 1144ERGO    R413169  15.844   5.683   7.642 -0.1875  0.2267  0.0501
 1144ERGO    R513170  15.935   5.488   7.610 -0.0091  0.3006  0.0893
 1144ERGO    C113171  15.739   5.417   7.930  0.0534  0.1881  0.1027
 1144ERGO    C213172  15.709   5.346   8.285  0.2368  0.0421 -0.1069
 1145ERGO   ROH13173  12.032   7.415   6.868 -0.1372 -0.2307  0.0540
 1145ERGO    R113174  12.180   7.595   7.030 -0.0814 -0.1076 -0.1302
 1145ERGO    R213175  12.080   7.698   7.266  0.0332  0.0008 -0.1295
 1145ERGO    R313176  12.311   7.598   7.370  0.1163  0.1104 -0.2055
 1145ERGO    R413177  12.228   7.808   7.559  0.0080 -0.0137 -0.1110
 1145ERGO    R513178  12.422   7.790   7.461  0.0057  0.1505 -0.1505
 1145ERGO    C113179  12.531   7.778   7.826  0.0712  0.0807 -0.1715
 1145ERGO    C213180  12.538   7.947   8.086 -0.0419  0.0610  0.4273
 1146ERGO   ROH13181   1.043  12.165   6.496 -0.3589  0.3131 -0.0931
 1146ERGO    R113182   1.068  12.155   6.778 -0.0872  0.2864 -0.1152
 1146ERGO    R213183   1.020  12.375   6.940 -0.1363  0.2175 -0.0345
 1146ERGO    R313184   0.849  12.205   7.065  0.1309  0.0397  0.0995
 1146ERGO    R413185   0.878  12.430   7.250 -0.2550  0.2614 -0.0965
 1146ERGO    R513186   0.908  12.219   7.296  0.0907  0.3458  0.0947
 1146ERGO    C113187   0.634  12.302   7.547 -0.0732  0.1200 -0.0069
 1146ERGO    C213188   0.571  12.479   7.805  0.1646 -0.1309 -0.1887
 1147ERGO   ROH13189  18.482   8.308   6.845  0.0480 -0.1539  0.0738
 1147ERGO    R113190  18.338   8.230   7.076 -0.0727 -0.0758  0.0276
 1147ERGO    R213191  18.456   8.212   7.326 -0.1388 -0.2365  0.0569
 1147ERGO    R313192  18.254   8.380   7.397 -0.0034 -0.0650  0.0381
 1147ERGO    R413193  18.393   8.320   7.648 -0.1135 -0.2037  0.0500
 1147ERGO    R513194  18.180   8.296   7.609 -0.1195 -0.0104  0.0118
 1147ERGO    C113195  18.167   8.539   7.903  0.0282 -0.0236  0.0282
 1147ERGO    C213196  18.175   8.754   8.259 -0.1266 -0.0466  0.0209
 1148ERGO   ROH13197   7.322  12.390   6.354  0.0038 -0.3061 -0.0990
 1148ERGO    R113198   7.509  12.377   6.566  0.1743 -0.2915 -0.2445
 1148ERGO    R213199   7.438  12.418   6.830  0.4628  0.1715 -0.2240
 1148ERGO    R313200   7.554  12.175   6.866  0.1350  0.0399 -0.0115
 1148ERGO    R413201   7.634  12.332   7.101  0.6868  0.2856 -0.3481
 1148ERGO    R513202   7.767  12.225   6.964  0.3475 -0.1314 -0.3690
 1148ERGO    C113203   7.858  12.053   7.292  0.5094  0.2285 -0.2208
 1148ERGO    C213204   7.764  11.772   7.609  0.0912 -0.0714 -0.0465
 1149ERGO   ROH13205  15.258  16.456   6.685 -0.1737 -0.2208  0.0370
 1149ERGO    R113206  15.367  16.583   6.913 -0.1799 -0.2467  0.0535
 1149ERGO    R213207  15.220  16.753   7.074 -0.1774 -0.2521  0.0558
 1149ERGO    R313208  15.302  16.585   7.271 -0.2002 -0.2703  0.0508
 1149ERGO    R413209  15.168  16.806   7.411 -0.0809 -0.1991  0.0632
 1149ERGO    R513210  15.370  16.731   7.448 -0.0995 -0.2794  0.0233
 1149ERGO    C113211  15.215  16.679   7.793 -0.0461 -0.1851  0.0628
 1149ERGO    C213212  14.914  16.714   8.034  0.4702  0.1743 -0.1851
 1150ERGO   ROH13213   9.249  15.669   6.290 -0.2300  0.1025 -0.1849
 1150ERGO    R113214   9.269  15.564   6.551  0.0260  0.0883 -0.2082
 1150ERGO    R213215   9.051  15.536   6.718  0.1969  0.1433  0.0292
 1150ERGO    R313216   9.136  15.278   6.733  0.1435  0.1190 -0.0713
 1150ERGO    R413217   9.038  15.341   7.003  0.2304  0.0619 -0.0242
 1150ERGO    R513218   9.234  15.261   6.951  0.1996  0.0324 -0.1019
 1150ERGO    C113219   9.109  14.985   7.183  0.1997 -0.0085 -0.1497
 1150ERGO    C213220   9.033  15.018   7.550  0.1862 -0.1444  0.0079
 1151ERGO   ROH13221  11.553  17.836   6.742  0.0630  0.1780  0.0344
 1151ERGO    R113222  11.593  17.840   7.023  0.1208  0.1144  0.0279
 1151ERGO    R213223  11.726  18.046   7.151  0.0219  0.1631  0.0622
 1151ERGO    R313224  11.499  18.056   7.300  0.0404 -0.0282  0.1127
 1151ERGO    R413225  11.697  18.202   7.458 -0.0779  0.2524  0.0080
 1151ERGO    R513226  11.574  18.036   7.526  0.1177  0.1410  0.1040
 1151ERGO    C113227  11.467  18.303   7.776 -0.1187  0.1251  0.0238
 1151ERGO    C213228  11.362  18.276   8.117 -0.1692 -0.1167  0.1568
 1152ERGO   ROH13229   4.577  17.250   6.515  0.0415 -0.1831 -0.0018
 1152ERGO    R113230   4.711  17.173   6.752  0.0956 -0.0179  0.0221
 1152ERGO    R213231   4.791  17.355   6.944 -0.0803  0.0914 -0.0103
 1152ERGO    R313232   4.648  17.194   7.110  0.0534 -0.0052  0.0147
 1152ERGO    R413233   4.850  17.317   7.282 -0.1562  0.3351  0.0330
 1152ERGO    R513234   4.810  17.104   7.261  0.1141  0.2689  0.1221
 1152ERGO    C113235   4.750  17.144   7.635 -0.0750  0.3864  0.0816
 1152ERGO    C213236   4.506  17.187   7.883 -0.2656  0.0146  0.0685
 1153ERGO   ROH13237   2.616   8.954   7.058  0.0536  0.2132 -0.0223
 1153ERGO    R113238   2.782   9.091   7.241  0.1898 -0.0352  0.0444
 1153ERGO    R213239   2.685   9.276   7.421  0.4140  0.2647 -0.1278
 1153ERGO    R313240   2.811   9.118   7.603 -0.0581  0.0817  0.0565
 1153ERGO    R413241   2.830   9.388   7.714  0.3771  0.0930 -0.0428
 1153ERGO    R513242   2.995   9.250   7.680  0.1417 -0.2516  0.1664
 1153ERGO    C113243   3.033   9.305   8.055 -0.0875 -0.1788  0.1797
 1153ERGO    C213244   3.159   9.550   8.460  0.2657 -0.2263 -0.1787
 1154ERGO   ROH13245   8.618   7.416   7.284 -0.0192  0.3857 -0.2048
 1154ERGO    R113246   8.556   7.432   7.560 -0.1376  0.0391 -0.2053
 1154ERGO    R213247   8.717   7.565   7.741 -0.1643 -0.2588  0.0540
 1154ERGO    R313248   8.486   7.696   7.800 -0.1429 -0.2508  0.1171
 1154ERGO    R413249   8.585   7.598   8.058 -0.0834 -0.2427  0.0857
 1154ERGO    R513250   8.386   7.565   7.974 -0.1024 -0.2367  0.1446
 1154ERGO    C113251   8.292   7.740   8.299 -0.0161 -0.2258  0.1635
 1154ERGO    C213252   8.043   7.755   8.505  0.0906  0.1569 -0.1339
 1155ERGO   ROH13253   9.593   9.796   6.681  0.0299 -0.0457 -0.1015
 1155ERGO    R113254   9.403   9.761   6.888  0.0446 -0.1229 -0.1004
 1155ERGO    R213255   9.406   9.542   7.057  0.1581 -0.1039 -0.0740
 1155ERGO    R313256   9.410   9.732   7.251  0.0552 -0.0778 -0.0975
 1155ERGO    R413257   9.406   9.477   7.397 -0.0654 -0.0546 -0.0636
 1155ERGO    R513258   9.268   9.644   7.423 -0.0635 -0.0366 -0.1747
 1155ERGO    C113259   9.409   9.619   7.776 -0.2920 -0.0014 -0.0795
 1155ERGO    C213260   9.581   9.730   8.100  0.1185 -0.3981 -0.0306
 1156ERGO   ROH13261   1.716   5.587   6.610  0.2545  0.1317 -0.0779
 1156ERGO    R113262   1.776   5.619   6.885  0.1039 -0.0362 -0.0249
 1156ERGO    R213263   1.691   5.837   7.032  0.1501 -0.0540  0.0222
 1156ERGO    R313264   1.587   5.646   7.195 -0.0714 -0.0663 -0.1267
 1156ERGO    R413265   1.631   5.877   7.370  0.0445 -0.1932  0.0217
 1156ERGO    R513266   1.705   5.674   7.402 -0.1295 -0.2743 -0.0602
 1156ERGO    C113267   1.500   5.720   7.720 -0.2249 -0.2857 -0.1184
 1156ERGO    C213268   1.417   5.763   8.050  0.2656  0.0473  0.0896
 1157ERGO   ROH13269  10.634   4.080   6.987  0.0916 -0.0686 -0.0564
 1157ERGO    R113270  10.758   4.047   7.239  0.0285 -0.1288 -0.0334
 1157ERGO    R213271  10.751   4.241   7.435  0.0706 -0.1337 -0.0306
 1157ERGO    R313272  10.653   4.038   7.587 -0.0419 -0.0973 -0.0532
 1157ERGO    R413273  10.712   4.252   7.778  0.1722 -0.1819 -0.0164
 1157ERGO    R513274  10.782   4.046   7.788  0.0214 -0.2407 -0.0847
 1157ERGO    C113275  10.596   4.069   8.120  0.1257 -0.1758 -0.0293
 1157ERGO    C213276  10.551   3.890   8.332  0.1336  0.0416  0.1820
 1158ERGO   ROH13277   9.737   6.166   6.765  0.1547  0.0697  0.0310
 1158ERGO    R113278   9.877   6.143   7.010  0.1416 -0.0656  0.0263
 1158ERGO    R213279   9.774   6.236   7.249  0.2155 -0.0176  0.0368
 1158ERGO    R313280   9.821   5.981   7.331  0.0259 -0.0641  0.0088
 1158ERGO    R413281   9.767   6.130   7.578  0.3743  0.0150  0.0513
 1158ERGO    R513282   9.942   6.007   7.537  0.2223 -0.1678 -0.0873
 1158ERGO    C113283   9.808   5.829   7.847  0.2889 -0.0097  0.0334
 1158ERGO    C213284   9.599   5.734   8.105  0.1335 -0.1176  0.1655
 1159ERGO   ROH13285   4.127  17.208   6.646 -0.0870  0.1777 -0.2207
 1159ERGO    R113286   4.284  17.164   6.877 -0.1011  0.1026 -0.2260
 1159ERGO    R213287   4.224  17.279   7.121 -0.1211  0.0137 -0.1925
 1159ERGO    R313288   4.233  17.021   7.208 -0.1155 -0.0158 -0.2780
 1159ERGO    R413289   4.197  17.180   7.451 -0.0067 -0.0839 -0.2111
 1159ERGO    R513290   4.353  17.032   7.415 -0.0338 -0.0914 -0.3181
 1159ERGO    C113291   4.190  16.881   7.725  0.0652 -0.1686 -0.3023
 1159ERGO    C213292   4.044  16.754   8.061 -0.2374  0.0702 -0.3212
 1160ERGO   ROH13293   4.788  11.149   6.372 -0.0846 -0.1760 -0.0642
 1160ERGO    R113294   4.886  11.129   6.637 -0.2123 -0.2186 -0.0207
 1160ERGO    R213295   4.871  11.338   6.817 -0.2334 -0.2256 -0.0199
 1160ERGO    R313296   4.746  11.153   6.972 -0.3581 -0.1958 -0.0813
 1160ERGO    R413297   4.855  11.347   7.162 -0.2553 -0.3088 -0.0176
 1160ERGO    R513298   4.887  11.132   7.164 -0.3834 -0.3320 -0.0741
 1160ERGO    C113299   4.730  11.178   7.509 -0.3851 -0.3292 -0.0739
 1160ERGO    C213300   4.737  11.093   7.842  0.0363 -0.0281  0.0315
 1161ERGO   ROH13301   3.769   3.683   6.614  0.1764  0.1909 -0.0010
 1161ERGO    R113302   3.731   3.629   6.889  0.1112 -0.0120 -0.0473
 1161ERGO    R213303   3.938   3.553   7.056  0.0923 -0.0494 -0.0352
 1161ERGO    R313304   3.854   3.764   7.205 -0.0339 -0.1783  0.0816
 1161ERGO    R413305   4.013   3.600   7.390  0.1544 -0.1296 -0.0375
 1161ERGO    R513306   3.808   3.670   7.420  0.1066 -0.3069  0.0562
 1161ERGO    C113307   3.977   3.826   7.724  0.0719 -0.2973  0.0709
 1161ERGO    C213308   4.090   3.871   7.980 -0.0238 -0.1582  0.2980
 1162ERGO   ROH13309   6.424  18.247   6.161  0.1422  0.1281  0.1353
 1162ERGO    R113310   6.310  18.271   6.419  0.0237  0.3572  0.0655
 1162ERGO    R213311   6.379  18.105   6.628 -0.5789  0.0765  0.0669
 1162ERGO    R313312   6.430  18.339   6.756 -0.0052 -0.0919  0.1708
 1162ERGO    R413313   6.373  18.147   6.971 -0.7461  0.0013  0.0730
 1162ERGO    R513314   6.276  18.341   6.940 -0.1661  0.3008  0.0389
 1162ERGO    C113315   6.417  18.392   7.291 -0.3049 -0.2009  0.1740
 1162ERGO    C213316   6.538  18.535   7.506  0.0690  0.0071  0.3756
 1163ERGO   ROH13317   1.136  16.191   6.656  0.1100 -0.0576  0.0345
 1163ERGO    R113318   1.318  16.177   6.872  0.0469 -0.1496  0.0818
 1163ERGO    R213319   1.297  16.340   7.095  0.1384 -0.0560  0.0192
 1163ERGO    R313320   1.301  16.103   7.228 -0.1045 -0.0165  0.1050
 1163ERGO    R413321   1.264  16.304   7.437  0.2304  0.1198  0.0482
 1163ERGO    R513322   1.418  16.150   7.431  0.0413 -0.0801  0.0409
 1163ERGO    C113323   1.249  16.061   7.761  0.0558  0.2593  0.1455
 1163ERGO    C213324   1.214  16.009   8.091 -0.2486 -0.0032  0.0712
 1164ERGO   ROH13325  16.775  11.016   6.733 -0.1479  0.0876 -0.0136
 1164ERGO    R113326  16.721  11.069   7.005 -0.1164 -0.0025  0.0110
 1164ERGO    R213327  16.688  10.869   7.193 -0.0253 -0.0634 -0.0373
 1164ERGO    R313328  16.884  11.004   7.325 -0.0424 -0.0426 -0.0342
 1164ERGO    R413329  16.753  10.842   7.531 -0.2192  0.1571  0.0193
 1164ERGO    R513330  16.786  11.058   7.537 -0.1382  0.1515 -0.1231
 1164ERGO    C113331  16.974  10.953   7.852 -0.3484  0.3050  0.0551
 1164ERGO    C213332  17.157  11.068   8.151 -0.0339 -0.0285 -0.2066
 1165ERGO   ROH13333   0.661  14.656   6.541 -0.4015 -0.2318  0.0846
 1165ERGO    R113334   0.618  14.766   6.799 -0.2118 -0.2317  0.1173
 1165ERGO    R213335   0.579  14.610   7.023 -0.0201 -0.2328  0.1541
 1165ERGO    R313336   0.786  14.755   7.122  0.0443 -0.2089 -0.0126
 1165ERGO    R413337   0.642  14.658   7.359  0.1842 -0.1298  0.1024
 1165ERGO    R513338   0.694  14.865   7.314  0.1646 -0.1469  0.0086
 1165ERGO    C113339   0.873  14.823   7.648  0.3636 -0.0474 -0.0843
 1165ERGO    C213340   1.062  14.570   7.997  0.0493  0.3165 -0.1786
 1166ERGO   ROH13341   0.225  10.587   6.561  0.0830 -0.0618 -0.0431
 1166ERGO    R113342   0.123  10.548   6.823  0.0814 -0.2436 -0.0699
 1166ERGO    R213343   0.219  10.351   6.992  0.2886 -0.1681 -0.1007
 1166ERGO    R313344   0.255  10.560   7.162  0.0065 -0.1619 -0.0423
 1166ERGO    R413345   0.308  10.321   7.324  0.4118 -0.1462 -0.1309
 1166ERGO    R513346   0.168  10.482   7.371  0.1695 -0.3700 -0.0458
 1166ERGO    C113347   0.394  10.500   7.677  0.2187 -0.1274 -0.0937
 1166ERGO    C213348   0.432  10.375   7.924  0.1077 -0.2093  0.0426
 1167ERGO   ROH13349   4.116  18.111   6.560  0.3006  0.0160  0.1154
 1167ERGO    R113350   4.122  18.039   6.834 -0.2104  0.0248  0.1390
 1167ERGO    R213351   4.328  18.113   7.003 -0.1565 -0.5509  0.3504
 1167ERGO    R313352   4.124  18.213   7.153 -0.0492  0.0731  0.1129
 1167ERGO    R413353   4.359  18.229   7.327 -0.1683 -0.6002  0.3689
 1167ERGO    R513354   4.169  18.134   7.375 -0.5201 -0.0442  0.1778
 1167ERGO    C113355   4.186  18.389   7.657 -0.0744 -0.0434  0.1566
 1167ERGO    C213356   4.229  18.578   7.927 -0.2413  0.3191 -0.1180
 1168ERGO   ROH13357   0.466  13.661   6.681 -0.1174 -0.0211 -0.0311
 1168ERGO    R113358   0.543  13.509   6.907  0.0415  0.1405  0.0250
 1168ERGO    R213359   0.523  13.605   7.166 -0.3262  0.1170  0.0080
 1168ERGO    R313360   0.381  13.377   7.205  0.1020 -0.1775 -0.0780
 1168ERGO    R413361   0.517  13.425   7.460 -0.2972  0.2273  0.0773
 1168ERGO    R513362   0.523  13.241   7.342  0.2352  0.1771  0.1515
 1168ERGO    C113363   0.380  13.105   7.669  0.1217  0.0151  0.0369
 1168ERGO    C213364   0.498  12.960   7.976  0.2394  0.1246  0.1294
 1169ERGO   ROH13365   0.541   6.380   6.750  0.1605 -0.1658 -0.0004
 1169ERGO    R113366   0.352   6.295   6.944 -0.0591 -0.2414 -0.2417
 1169ERGO    R213367   0.192   6.072   6.908  0.3110 -0.5085 -0.3131
 1169ERGO    R313368   0.298   5.999   7.147  0.0152 -0.1251 -0.0524
 1169ERGO    R413369   0.056   5.837   7.123  0.2414 -0.4268 -0.2673
 1169ERGO    R513370   0.109   5.966   7.290 -0.1747 -0.1812 -0.3169
 1169ERGO    C113371   0.077   5.632   7.472 -0.0769 -0.0193  0.0042
 1169ERGO    C213372   0.231   5.333   7.630  0.0369 -0.0778  0.0251
 1170ERGO   ROH13373   3.175   4.523   6.466 -0.0135 -0.3846  0.1388
 1170ERGO    R113374   3.187   4.420   6.730  0.1367 -0.1267  0.2368
 1170ERGO    R213375   3.296   4.563   6.940 -0.0830  0.2399  0.1158
 1170ERGO    R313376   3.055   4.514   7.056 -0.0179 -0.0230  0.1444
 1170ERGO    R413377   3.237   4.557   7.281 -0.0638  0.2842  0.1193
 1170ERGO    R513378   3.107   4.385   7.251  0.1507  0.1106  0.1862
 1170ERGO    C113379   2.977   4.508   7.587  0.0085  0.0633  0.1482
 1170ERGO    C213380   2.879   4.587   7.951 -0.1756  0.1728  0.0781
 1171ERGO   ROH13381   8.356   6.152   7.071 -0.1981  0.1757 -0.0643
 1171ERGO    R113382   8.285   6.041   7.321 -0.0982  0.0980 -0.0695
 1171ERGO    R213383   8.406   6.119   7.558 -0.0679  0.0927 -0.0806
 1171ERGO    R313384   8.149   6.164   7.636 -0.0662 -0.0142 -0.0121
 1171ERGO    R413385   8.313   6.242   7.867 -0.0546 -0.1134  0.0076
 1171ERGO    R513386   8.146   6.102   7.867 -0.0188 -0.1516 -0.0497
 1171ERGO    C113387   8.018   6.357   8.120 -0.0452 -0.3338  0.1231
 1171ERGO    C213388   7.756   6.401   8.422 -0.0508  0.1519 -0.1349
 1172ERGO   ROH13389  16.372   1.973   6.583 -0.0828 -0.1896 -0.0409
 1172ERGO    R113390  16.399   1.778   6.786  0.0162 -0.1617 -0.0252
 1172ERGO    R213391  16.624   1.756   6.943  0.0675 -0.0946 -0.0814
 1172ERGO    R313392  16.445   1.775   7.147  0.1158 -0.1080 -0.0386
 1172ERGO    R413393  16.678   1.640   7.264  0.2419  0.1275 -0.0281
 1172ERGO    R513394  16.471   1.570   7.268  0.2961 -0.0180  0.0734
 1172ERGO    C113395  16.540   1.590   7.642  0.3890  0.2441  0.0432
 1172ERGO    C213396  16.417   1.506   7.942  0.1840 -0.0453  0.0391
 1173ERGO   ROH13397   2.814   4.149   6.865  0.0665 -0.1932 -0.0508
 1173ERGO    R113398   2.774   4.009   7.108 -0.0211 -0.0836 -0.0036
 1173ERGO    R213399   2.983   3.924   7.267 -0.0853  0.0145  0.1236
 1173ERGO    R313400   2.852   4.063   7.459 -0.1796  0.0828  0.0083
 1173ERGO    R413401   3.086   3.953   7.595 -0.3086  0.0222  0.1959
 1173ERGO    R513402   2.879   3.932   7.657 -0.3637  0.0978  0.0480
 1173ERGO    C113403   3.023   4.102   7.967 -0.5272  0.0909  0.1298
 1173ERGO    C213404   3.257   4.260   8.221 -0.2548 -0.2129  0.0747
 1174ERGO   ROH13405   0.686  18.162   6.474 -0.2179  0.0590  0.0319
 1174ERGO    R113406   0.673  18.147   6.756 -0.2124 -0.2186  0.0205
 1174ERGO    R213407   0.758  17.925   6.898  0.3702 -0.1310 -0.1597
 1174ERGO    R313408   0.909  18.108   7.031 -0.1237  0.1763  0.0045
 1174ERGO    R413409   0.840  17.907   7.233  0.3791 -0.1733 -0.1644
 1174ERGO    R513410   0.808  18.122   7.247 -0.1945 -0.2595  0.0049
 1174ERGO    C113411   1.030  18.068   7.553 -0.0795  0.0905 -0.0131
 1174ERGO    C213412   1.134  17.918   7.838 -0.2893 -0.0850  0.0473
 1175ERGO   ROH13413   5.426   7.766   6.564 -0.1449 -0.1821 -0.1504
 1175ERGO    R113414   5.454   7.733   6.844  0.2648 -0.1381 -0.1815
 1175ERGO    R213415   5.257   7.620   7.001  0.2576  0.3823  0.1980
 1175ERGO    R313416   5.458   7.455   7.079  0.0186 -0.0695 -0.0895
 1175ERGO    R413417   5.262   7.443   7.298  0.3895  0.5951  0.3272
 1175ERGO    R513418   5.475   7.490   7.316  0.5720  0.0857 -0.1321
 1175ERGO    C113419   5.455   7.185   7.544  0.2420  0.2949  0.1325
 1175ERGO    C213420   5.566   6.996   7.674 -0.0154 -0.0839 -0.0747
 1176ERGO   ROH13421   3.078   9.833   6.604 -0.0352 -0.1774  0.3602
 1176ERGO    R113422   3.036   9.899   6.875  0.0774 -0.0375  0.3451
 1176ERGO    R213423   3.210  10.060   7.018  0.0293  0.2111  0.1339
 1176ERGO    R313424   2.985  10.204   7.068 -0.0675  0.0456  0.1769
 1176ERGO    R413425   3.170  10.279   7.282 -0.0654  0.2184  0.1132
 1176ERGO    R513426   2.966  10.205   7.307 -0.0014  0.0659  0.1810
 1176ERGO    C113427   2.934  10.542   7.483 -0.2114  0.0673  0.1415
 1176ERGO    C213428   2.637  10.685   7.714  0.0522 -0.0416 -0.5028
 1177ERGO   ROH13429  13.607   4.879   6.618  0.0327 -0.0664 -0.0433
 1177ERGO    R113430  13.779   4.990   6.813  0.0596 -0.0126 -0.0972
 1177ERGO    R213431  13.774   5.258   6.881 -0.0025 -0.0135 -0.0963
 1177ERGO    R313432  13.741   5.160   7.132  0.1060 -0.0237 -0.0860
 1177ERGO    R413433  13.858   5.426   7.171  0.0259  0.0150 -0.1209
 1177ERGO    R513434  13.934   5.238   7.252  0.1141  0.0417 -0.1426
 1177ERGO    C113435  13.877   5.432   7.576  0.1442  0.0220 -0.1256
 1177ERGO    C213436  13.950   5.559   7.875  0.0200 -0.1485  0.1812
 1178ERGO   ROH13437  15.340  12.248   6.929  0.2550  0.0669  0.0085
 1178ERGO    R113438  15.261  12.393   7.159  0.0115 -0.0292 -0.0107
 1178ERGO    R213439  15.133  12.275   7.373  0.1101 -0.1947 -0.0377
 1178ERGO    R313440  15.336  12.386   7.515 -0.0616  0.0703  0.0064
 1178ERGO    R413441  15.170  12.251   7.716  0.1407 -0.2592 -0.0458
 1178ERGO    R513442  15.233  12.460   7.718 -0.1809 -0.1604  0.0309
 1178ERGO    C113443  15.383  12.342   8.049 -0.0028 -0.0480 -0.0091
 1178ERGO    C213444  15.474  12.264   8.390  0.3196 -0.1248 -0.1653
 1179ERGO   ROH13445   3.898   9.060   6.404 -0.1580 -0.2393  0.0422
 1179ERGO    R113446   3.977   9.066   6.676  0.0266 -0.1757 -0.0101
 1179ERGO    R213447   3.814   9.164   6.876  0.1939 -0.0465  0.0712
 1179ERGO    R313448   3.860   8.921   6.988  0.1791 -0.0270  0.1169
 1179ERGO    R413449   3.874   9.110   7.212  0.1732  0.0057  0.0824
 1179ERGO    R513450   4.025   8.963   7.156  0.1686 -0.0071  0.1181
 1179ERGO    C113451   3.952   8.851   7.513  0.1472  0.0543  0.1319
 1179ERGO    C213452   3.921   8.598   7.724 -0.0464  0.1727 -0.1952
 1180ERGO   ROH13453   0.715   3.654   6.741 -0.0345  0.1139 -0.1458
 1180ERGO    R113454   0.622   3.750   6.990 -0.1026  0.0659 -0.1528
 1180ERGO    R213455   0.443   3.609   7.147  0.0563 -0.0862 -0.1079
 1180ERGO    R313456   0.634   3.641   7.337  0.0473  0.1404 -0.1337
 1180ERGO    R413457   0.381   3.679   7.479  0.0043 -0.3327 -0.0634
 1180ERGO    R513458   0.550   3.816   7.477 -0.2132 -0.0522 -0.0392
 1180ERGO    C113459   0.525   3.750   7.852 -0.0345 -0.2636 -0.0617
 1180ERGO    C213460   0.679   3.655   8.200 -0.2273  0.0546  0.0125
 1181ERGO   ROH13461   8.611   6.316   6.702 -0.0126  0.2569  0.1052
 1181ERGO    R113462   8.781   6.320   6.928 -0.0400  0.3510  0.1250
 1181ERGO    R213463   8.713   6.447   7.164 -0.3097 -0.0089  0.2521
 1181ERGO    R313464   8.766   6.204   7.273  0.1375 -0.0301  0.0100
 1181ERGO    R413465   8.767   6.388   7.500 -0.2489 -0.2533  0.2010
 1181ERGO    R513466   8.925   6.249   7.446  0.0293  0.0977  0.0771
 1181ERGO    C113467   8.847   6.125   7.798  0.2065 -0.4155 -0.0560
 1181ERGO    C213468   8.706   6.141   8.124 -0.1248 -0.0230 -0.0653
 1182ERGO   ROH13469   6.318   5.872   6.319  0.1124  0.0000 -0.0719
 1182ERGO    R113470   6.259   5.957   6.582  0.0287 -0.0475 -0.0748
 1182ERGO    R213471   6.186   5.781   6.782  0.0997 -0.1021 -0.0978
 1182ERGO    R313472   6.393   5.896   6.915  0.0192  0.0076 -0.0594
 1182ERGO    R413473   6.211   5.805   7.126  0.1270 -0.2957 -0.0859
 1182ERGO    R513474   6.290   6.006   7.102 -0.0589 -0.2004  0.0265
 1182ERGO    C113475   6.420   5.926   7.451  0.0673 -0.3054 -0.0428
 1182ERGO    C213476   6.507   5.820   7.777  0.2173 -0.2001  0.1234
 1183ERGO   ROH13477   8.034   1.100   6.579  0.0122  0.0162 -0.0476
 1183ERGO    R113478   7.872   0.975   6.775 -0.0184  0.1039 -0.0164
 1183ERGO    R213479   7.977   0.828   6.984 -0.0562  0.0839 -0.0109
 1183ERGO    R313480   7.829   0.997   7.135  0.0287  0.1621 -0.0144
 1183ERGO    R413481   7.851   0.754   7.297 -0.0746  0.1624  0.0003
 1183ERGO    R513482   7.667   0.856   7.241 -0.0307  0.2430  0.0031
 1183ERGO    C113483   7.638   0.870   7.621 -0.0056  0.2814  0.0036
 1183ERGO    C213484   7.704   1.058   7.824 -0.2107  0.0473 -0.1083
 1184ERGO   ROH13485   4.455   0.730   6.467  0.0419  0.2510 -0.0529
 1184ERGO    R113486   4.340   0.684   6.722  0.0200  0.0948 -0.0911
 1184ERGO    R213487   4.492   0.643   6.949 -0.0003  0.1820 -0.0652
 1184ERGO    R313488   4.341   0.847   7.047 -0.2069  0.0279 -0.0536
 1184ERGO    R413489   4.487   0.744   7.279  0.0304  0.2592 -0.0878
 1184ERGO    R513490   4.272   0.771   7.263 -0.0171 -0.0067  0.0003
 1184ERGO    C113491   4.343   0.994   7.564 -0.1457  0.1595 -0.0900
 1184ERGO    C213492   4.453   1.144   7.926 -0.0519  0.1646  0.0017
 1185ERGO   ROH13493  17.046   0.889   6.660  0.1515 -0.0047  0.0695
 1185ERGO    R113494  16.917   0.869   6.911  0.0797 -0.0829  0.0264
 1185ERGO    R213495  16.857   0.626   7.030  0.1043 -0.1177 -0.0379
 1185ERGO    R313496  16.995   0.732   7.239  0.0129 -0.1229  0.0266
 1185ERGO    R413497  16.837   0.515   7.356  0.0041 -0.1682 -0.0604
 1185ERGO    R513498  16.842   0.723   7.422 -0.0539 -0.1742 -0.0291
 1185ERGO    C113499  16.955   0.549   7.743 -0.1400 -0.2024 -0.0128
 1185ERGO    C213500  16.791   0.469   8.039 -0.2035 -0.0668  0.2863
 1186ERGO   ROH13501  15.084   7.329   7.417  0.2057  0.0873  0.2840
 1186ERGO    R113502  14.926   7.125   7.533  0.1399  0.0376  0.1089
 1186ERGO    R213503  14.843   6.903   7.391  0.2014  0.1087 -0.0380
 1186ERGO    R313504  14.960   6.768   7.595  0.0939  0.0055 -0.0433
 1186ERGO    R413505  14.819   6.562   7.440  0.1246  0.0907 -0.1920
 1186ERGO    R513506  14.800   6.600   7.654  0.0396  0.0051 -0.1820
 1186ERGO    C113507  14.915   6.236   7.661 -0.0212 -0.0166 -0.2867
 1186ERGO    C213508  15.097   6.065   7.643 -0.2273  0.0260 -0.2209
 1187ERGO   ROH13509  11.267   0.312   6.549  0.1756 -0.2515 -0.0022
 1187ERGO    R113510  11.239   0.269   6.827 -0.0323 -0.0801  0.0048
 1187ERGO    R213511  11.375   0.419   7.015  0.0739 -0.1757 -0.0008
 1187ERGO    R313512  11.126   0.462   7.114  0.0755  0.2159 -0.1460
 1187ERGO    R413513  11.306   0.506   7.342  0.0184 -0.1853 -0.0090
 1187ERGO    R513514  11.134   0.371   7.336 -0.2191  0.1071 -0.1719
 1187ERGO    C113515  11.032   0.596   7.626 -0.0123  0.1767 -0.1501
 1187ERGO    C213516  10.931   0.825   7.768  0.3082  0.0040 -0.1187
 1188ERGO   ROH13517   3.744   2.488   6.897 -0.0164  0.3598  0.0234
 1188ERGO    R113518   3.932   2.559   7.096  0.1076 -0.0351  0.0548
 1188ERGO    R213519   3.862   2.698   7.324  0.3714  0.1926 -0.0006
 1188ERGO    R313520   3.981   2.489   7.450 -0.1505 -0.0719  0.0869
 1188ERGO    R413521   3.924   2.683   7.664  0.7621  0.4269 -0.0552
 1188ERGO    R513522   4.118   2.592   7.618  0.4303 -0.2872 -0.2165
 1188ERGO    C113523   4.073   2.478   7.980  0.4997  0.3152 -0.0051
 1188ERGO    C213524   4.040   2.422   8.326  0.1481 -0.2615 -0.2717
 1189ERGO   ROH13525  11.818  10.777   6.768 -0.1673  0.2050  0.0347
 1189ERGO    R113526  11.693  10.825   7.017 -0.2146  0.0107  0.0489
 1189ERGO    R213527  11.525  10.642   7.137  0.0186 -0.2144  0.0253
 1189ERGO    R313528  11.694  10.672   7.347 -0.0122 -0.0419  0.0281
 1189ERGO    R413529  11.432  10.616   7.468 -0.0247 -0.0609  0.0266
 1189ERGO    R513530  11.562  10.786   7.513 -0.0782  0.0131 -0.0521
 1189ERGO    C113531  11.536  10.630   7.860 -0.0789  0.1905  0.0300
 1189ERGO    C213532  11.456  10.473   8.208 -0.0518 -0.0872  0.0390
 1190ERGO   ROH13533   8.428   3.061   6.674 -0.2259 -0.1344 -0.4384
 1190ERGO    R113534   8.352   2.981   6.935 -0.0878 -0.1176 -0.3938
 1190ERGO    R213535   8.459   2.758   7.058  0.2454  0.0945 -0.2955
 1190ERGO    R313536   8.518   2.935   7.256  0.0081  0.2758 -0.3804
 1190ERGO    R413537   8.534   2.672   7.385  0.0772  0.3655 -0.1809
 1190ERGO    R513538   8.416   2.843   7.451 -0.0735  0.3510 -0.3818
 1190ERGO    C113539   8.633   2.788   7.760 -0.2434  0.6936 -0.1938
 1190ERGO    C213540   8.813   2.749   8.117 -0.2103 -0.2123 -0.0836
 1191ERGO   ROH13541  18.324  10.300   6.564 -0.2307  0.1461 -0.1225
 1191ERGO    R113542  18.222  10.413   6.803 -0.1435  0.0165 -0.0226
 1191ERGO    R213543  18.166  10.262   7.027 -0.0147 -0.0982 -0.0682
 1191ERGO    R313544  18.330  10.441   7.150  0.0075 -0.1259 -0.0565
 1191ERGO    R413545  18.224  10.276   7.368 -0.0822 -0.0739 -0.0572
 1191ERGO    R513546  18.218  10.493   7.355 -0.0228 -0.0723 -0.0852
 1191ERGO    C113547  18.412  10.452   7.681 -0.1007 -0.0857 -0.0398
 1191ERGO    C213548  18.436  10.562   8.109  0.0568  0.1426 -0.1176
 1192ERGO   ROH13549   4.940   1.597   6.477  0.0575 -0.0050  0.1229
 1192ERGO    R113550   4.809   1.791   6.636 -0.1681 -0.0919  0.0474
 1192ERGO    R213551   4.610   1.725   6.816  0.0174 -0.2781  0.1896
 1192ERGO    R313552   4.770   1.858   6.991 -0.0976  0.0982  0.0207
 1192ERGO    R413553   4.514   1.828   7.132  0.0453 -0.3247  0.2131
 1192ERGO    R513554   4.623   2.014   7.099 -0.3193 -0.1257  0.0547
 1192ERGO    C113555   4.608   2.012   7.480 -0.0465  0.0014  0.0682
 1192ERGO    C213556   4.331   2.062   7.699 -0.0145  0.0529 -0.0379
 1193ERGO   ROH13557  15.792  14.520   6.765  0.1166  0.0520 -0.1187
 1193ERGO    R113558  15.610  14.627   6.954  0.1453 -0.0602 -0.0270
 1193ERGO    R213559  15.680  14.675   7.217  0.2492 -0.0162 -0.0627
 1193ERGO    R313560  15.589  14.925   7.161  0.0647 -0.0718 -0.0181
 1193ERGO    R413561  15.627  14.923   7.452  0.0085 -0.1143 -0.0106
 1193ERGO    R513562  15.445  14.978   7.345 -0.0148 -0.2293 -0.0328
 1193ERGO    C113563  15.511  15.301   7.537 -0.3049 -0.2235  0.0616
 1193ERGO    C213564  15.391  15.692   7.545 -0.0111  0.5217  0.1304
 1194ERGO   ROH13565   5.274   4.693   6.700  0.0306  0.1131 -0.0002
 1194ERGO    R113566   5.135   4.784   6.930  0.0926  0.2469 -0.0143
 1194ERGO    R213567   5.047   4.612   7.128 -0.2836  0.2933 -0.1360
 1194ERGO    R313568   5.188   4.778   7.289 -0.0511 -0.0186  0.0094
 1194ERGO    R413569   5.069   4.582   7.471 -0.4478  0.0492 -0.1442
 1194ERGO    R513570   5.054   4.798   7.486 -0.0977  0.0871 -0.0233
 1194ERGO    C113571   5.215   4.720   7.823 -0.3252 -0.3859 -0.0124
 1194ERGO    C213572   5.502   4.552   8.091 -0.0791 -0.0051  0.2623
 1195ERGO   ROH13573  12.645   5.344   7.443 -0.0469 -0.1948 -0.1160
 1195ERGO    R113574  12.771   5.234   7.671 -0.0077 -0.0806 -0.0819
 1195ERGO    R213575  12.774   4.963   7.723 -0.1226 -0.0442  0.1258
 1195ERGO    R313576  13.043   5.002   7.738 -0.0957 -0.1657 -0.0159
 1195ERGO    R413577  12.997   4.744   7.871 -0.1653 -0.0672  0.1565
 1195ERGO    R513578  13.103   4.916   7.954 -0.0441 -0.0685  0.0093
 1195ERGO    C113579  13.379   4.653   7.971 -0.1649 -0.1946  0.0414
 1195ERGO    C213580  13.410   4.403   8.152 -0.2219 -0.1394 -0.1874
 1196ERGO   ROH13581   8.936  14.168   6.110  0.1307  0.0647  0.0059
 1196ERGO    R113582   8.797  14.153   6.357 -0.0162  0.0910 -0.0736
 1196ERGO    R213583   8.927  14.123   6.599 -0.1716 -0.1703 -0.0167
 1196ERGO    R313584   8.785  14.345   6.666  0.0324 -0.0467  0.0146
 1196ERGO    R413585   8.856  14.221   6.922 -0.2675 -0.2713 -0.0068
 1196ERGO    R513586   8.656  14.277   6.856 -0.1654 -0.0103 -0.1047
 1196ERGO    C113587   8.682  14.487   7.174 -0.1317 -0.2141  0.0284
 1196ERGO    C213588   8.677  14.586   7.490 -0.1529  0.0856  0.1824
 1197ERGO   ROH13589   6.655  13.658   6.264 -0.1708  0.1814 -0.0749
 1197ERGO    R113590   6.720  13.692   6.538 -0.1998  0.3650 -0.0887
 1197ERGO    R213591   6.531  13.758   6.729 -0.3020  0.0898 -0.0872
 1197ERGO    R313592   6.626  13.535   6.853  0.0977  0.2784 -0.0404
 1197ERGO    R413593   6.483  13.683   7.063 -0.4006 -0.0509 -0.1323
 1197ERGO    R513594   6.689  13.612   7.071 -0.2396  0.4018  0.0193
 1197ERGO    C113595   6.544  13.431   7.374 -0.0827  0.0441 -0.1147
 1197ERGO    C213596   6.511  13.235   7.643 -0.1197  0.1460  0.4379
 1198ERGO   ROH13597   8.686   7.806   6.900 -0.1741  0.0713  0.0540
 1198ERGO    R113598   8.814   7.863   7.146 -0.0420  0.2024 -0.0432
 1198ERGO    R213599   8.782   8.103   7.279 -0.1479  0.1894 -0.0439
 1198ERGO    R313600   8.711   7.942   7.486  0.1366  0.1478  0.0250
 1198ERGO    R413601   8.709   8.213   7.599 -0.2232  0.1875 -0.0605
 1198ERGO    R513602   8.817   8.041   7.677  0.0479  0.3627 -0.0328
 1198ERGO    C113603   8.600   8.125   7.979  0.0000  0.1472 -0.0055
 1198ERGO    C213604   8.482   8.232   8.353  0.1963  0.1826 -0.0346
 1199ERGO   ROH13605   3.633   9.983   6.631  0.2952  0.0514 -0.1558
 1199ERGO    R113606   3.764  10.015   6.881  0.1261 -0.0613 -0.0516
 1199ERGO    R213607   3.661  10.172   7.084  0.0970  0.0174 -0.1284
 1199ERGO    R313608   3.687   9.944   7.230 -0.2040 -0.0056 -0.1102
 1199ERGO    R413609   3.679  10.158   7.429  0.0758  0.0253 -0.1279
 1199ERGO    R513610   3.832  10.005   7.410 -0.1251 -0.1789 -0.1142
 1199ERGO    C113611   3.715   9.937   7.766 -0.2192  0.0084 -0.1104
 1199ERGO    C213612   3.873   9.773   8.020  0.0299 -0.0183  0.1245
 1200ERGO   ROH13613  13.565   2.880   6.758  0.0418 -0.0432  0.0101
 1200ERGO    R113614  13.535   2.892   7.039  0.0933  0.0505  0.0132
 1200ERGO    R213615  13.662   3.082   7.194  0.1017  0.1213 -0.0726
 1200ERGO    R313616  13.410   3.133   7.282  0.1121  0.1213 -0.0477
 1200ERGO    R413617  13.583   3.192   7.512  0.1136 -0.1492  0.0239
 1200ERGO    R513618  13.411   3.057   7.509  0.0701 -0.0913 -0.1168
 1200ERGO    C113619  13.300   3.303   7.780  0.1304 -0.3067  0.1035
 1200ERGO    C213620  13.334   3.412   8.109  0.1192  0.1428  0.1689
 1201ERGO   ROH13621   2.471   2.533   7.013  0.0189 -0.0915 -0.0535
 1201ERGO    R113622   2.335   2.520   7.262 -0.0634  0.1283 -0.0841
 1201ERGO    R213623   2.391   2.327   7.452 -0.3772  0.0634 -0.0542
 1201ERGO    R313624   2.425   2.543   7.613 -0.1093  0.0425 -0.0628
 1201ERGO    R413625   2.431   2.313   7.794 -0.4965  0.0259 -0.0414
 1201ERGO    R513626   2.303   2.488   7.812 -0.2577  0.2276 -0.0916
 1201ERGO    C113627   2.487   2.506   8.146 -0.3145 -0.0155 -0.0420
 1201ERGO    C213628   2.598   2.744   8.392 -0.0717 -0.1943  0.0978
 1202ERGO   ROH13629  16.733  12.496   6.883 -0.0555  0.1549  0.0272
 1202ERGO    R113630  16.855  12.562   7.130  0.0571  0.1200 -0.0197
 1202ERGO    R213631  16.717  12.558   7.370  0.1729  0.0713  0.0400
 1202ERGO    R313632  16.920  12.394   7.446  0.2198  0.0728 -0.0759
 1202ERGO    R413633  16.781  12.459   7.695  0.3285  0.0410  0.0023
 1202ERGO    R513634  16.994  12.482   7.656  0.3134  0.0577 -0.0978
 1202ERGO    C113635  17.009  12.247   7.955  0.4630  0.0246 -0.1285
 1202ERGO    C213636  17.184  12.132   8.216  0.0193  0.1343 -0.3031
 1203ERGO   ROH13637   1.397   8.681   6.769  0.0543 -0.0628 -0.0783
 1203ERGO    R113638   1.342   8.455   6.931 -0.0302 -0.0452 -0.0813
 1203ERGO    R213639   1.110   8.307   6.905 -0.0708  0.0198 -0.1076
 1203ERGO    R313640   1.284   8.100   6.877 -0.1249 -0.0289 -0.0839
 1203ERGO    R413641   1.059   7.988   7.026 -0.0417  0.1079  0.1431
 1203ERGO    R513642   1.269   7.980   7.084 -0.0057  0.1125  0.0071
 1203ERGO    C113643   1.192   7.607   7.070 -0.0756  0.1134  0.3112
 1203ERGO    C213644   1.409   7.283   7.053  0.1249  0.4438  0.0088
 1204ERGO   ROH13645   6.075  12.326   6.430  0.0545  0.2176  0.0450
 1204ERGO    R113646   6.214  12.300   6.676  0.1209  0.1564  0.0016
 1204ERGO    R213647   6.480  12.372   6.704  0.0811  0.3166 -0.0075
 1204ERGO    R313648   6.383  12.523   6.909  0.0177  0.1251  0.1064
 1204ERGO    R413649   6.670  12.500   6.962  0.0089  0.1268  0.1426
 1204ERGO    R513650   6.508  12.451   7.100 -0.0086 -0.0188  0.0700
 1204ERGO    C113651   6.691  12.717   7.305 -0.0925 -0.1635  0.3370
 1204ERGO    C213652   6.927  12.959   7.444  0.1819  0.0116  0.0862
 1205ERGO   ROH13653  11.108   1.849   6.716  0.2122  0.2027  0.1571
 1205ERGO    R113654  10.869   1.870   6.865  0.0863  0.1085 -0.0262
 1205ERGO    R213655  10.859   1.827   7.138 -0.1659 -0.1952 -0.0722
 1205ERGO    R313656  10.746   2.075   7.141 -0.0843 -0.1592  0.0975
 1205ERGO    R413657  10.622   1.933   7.366 -0.1251 -0.2529 -0.0027
 1205ERGO    R513658  10.518   2.035   7.203 -0.0919 -0.1131  0.0746
 1205ERGO    C113659  10.379   2.227   7.502 -0.0248 -0.2528  0.1971
 1205ERGO    C213660  10.473   2.303   7.743 -0.0378  0.0983  0.3447
 1206ERGO   ROH13661   9.087   7.551   6.913  0.2353  0.0735 -0.1122
 1206ERGO    R113662   9.156   7.520   7.185  0.3182  0.1622 -0.1265
 1206ERGO    R213663   9.246   7.730   7.340 -0.0889  0.3089 -0.1095
 1206ERGO    R313664   9.042   7.654   7.504  0.0769 -0.1210 -0.0833
 1206ERGO    R413665   9.212   7.825   7.671 -0.4283  0.6135 -0.2220
 1206ERGO    R513666   9.146   7.622   7.717  0.1546  0.4313 -0.0090
 1206ERGO    C113667   9.002   7.809   8.017 -0.4703  0.3872 -0.2629
 1206ERGO    C213668   8.900   7.842   8.414 -0.0968  0.0814  0.1722
 1207ERGO   ROH13669   2.339  18.433   6.402  0.0128  0.2127 -0.0708
 1207ERGO    R113670   2.302  18.583   6.639 -0.1538  0.0498  0.0090
 1207ERGO    R213671   2.117  18.513   6.833 -0.0356 -0.2908  0.0021
 1207ERGO    R313672   2.334  18.525   6.997 -0.0259 -0.0840 -0.0228
 1207ERGO    R413673   2.104  18.531   7.178 -0.0155 -0.3998  0.0092
 1207ERGO    R513674   2.268  18.674   7.172 -0.1790 -0.2051  0.0262
 1207ERGO    C113675   2.300  18.553   7.532  0.0054 -0.2691 -0.0101
 1207ERGO    C213676   2.362  18.531   7.875 -0.1726 -0.0758 -0.0453
 1208ERGO   ROH13677   1.671  13.496   6.082 -0.1377  0.0795  0.2094
 1208ERGO    R113678   1.681  13.616   6.338 -0.1118  0.0628  0.2164
 1208ERGO    R213679   1.457  13.648   6.497 -0.0573 -0.1848  0.3522
 1208ERGO    R313680   1.608  13.515   6.680  0.1889 -0.0535  0.2490
 1208ERGO    R413681   1.446  13.700   6.838  0.1141 -0.2223  0.3644
 1208ERGO    R513682   1.662  13.680   6.844  0.1366 -0.0147  0.2244
 1208ERGO    C113683   1.580  13.606   7.209  0.4450 -0.1209  0.2747
 1208ERGO    C213684   1.415  13.502   7.518 -0.0835 -0.0967 -0.3038
 1209ERGO   ROH13685  10.013   8.220   7.021  0.2034  0.2518 -0.1265
 1209ERGO    R113686  10.123   8.161   7.275  0.0915  0.1344 -0.1047
 1209ERGO    R213687  10.181   8.357   7.462  0.0646  0.0537 -0.0098
 1209ERGO    R313688  10.024   8.204   7.622 -0.0332  0.0308 -0.1274
 1209ERGO    R413689  10.175   8.374   7.807 -0.1467 -0.0021 -0.0092
 1209ERGO    R513690  10.160   8.157   7.813 -0.1516  0.0001 -0.0512
 1209ERGO    C113691  10.023   8.241   8.159 -0.3616 -0.0560 -0.1193
 1209ERGO    C213692   9.964   8.182   8.506 -0.3558  0.1205 -0.0244
 1210ERGO   ROH13693  14.148  11.218   7.074 -0.0642  0.1993 -0.0938
 1210ERGO    R113694  14.232  11.418   7.256  0.0274  0.1725 -0.1069
 1210ERGO    R213695  14.181  11.403   7.527 -0.0077  0.2287 -0.1105
 1210ERGO    R313696  14.451  11.434   7.547  0.0089  0.0833 -0.0876
 1210ERGO    R413697  14.363  11.382   7.821 -0.0400  0.1139 -0.0980
 1210ERGO    R513698  14.483  11.551   7.753  0.0560  0.0542 -0.0784
 1210ERGO    C113699  14.721  11.399   8.010 -0.0431 -0.0893 -0.0692
 1210ERGO    C213700  14.935  11.197   8.063  0.1945 -0.0055  0.3122
 1211ERGO   ROH13701   8.916   4.583   7.128 -0.1943 -0.1400  0.1178
 1211ERGO    R113702   8.940   4.763   7.346  0.0983 -0.0204 -0.0074
 1211ERGO    R213703   8.779   4.747   7.570  0.0327  0.4279 -0.0121
 1211ERGO    R313704   9.017   4.740   7.701  0.0095  0.0919  0.0189
 1211ERGO    R413705   8.821   4.817   7.906  0.0782  0.2469  0.0205
 1211ERGO    R513706   9.005   4.923   7.855  0.2118  0.0462  0.0877
 1211ERGO    C113707   9.070   4.850   8.224  0.0828 -0.1739  0.0686
 1211ERGO    C213708   8.951   4.925   8.578  0.1310  0.0874  0.2331
 1212ERGO   ROH13709   6.109  17.145   6.196 -0.1178 -0.2362 -0.1423
 1212ERGO    R113710   5.948  17.101   6.424 -0.0555 -0.3568 -0.1201
 1212ERGO    R213711   6.028  16.940   6.634  0.1774 -0.1501 -0.0419
 1212ERGO    R313712   5.975  17.161   6.782 -0.1324 -0.1488 -0.1485
 1212ERGO    R413713   5.991  16.943   6.978  0.1909 -0.0317 -0.0418
 1212ERGO    R513714   5.826  17.084   6.954 -0.0140 -0.2774 -0.1039
 1212ERGO    C113715   5.920  17.153   7.317 -0.0921  0.0386 -0.1418
 1212ERGO    C213716   6.092  17.003   7.588 -0.1493  0.0691 -0.0557
 1213ERGO   ROH13717   7.067  17.434   6.129 -0.1659 -0.1268 -0.1204
 1213ERGO    R113718   6.945  17.379   6.379 -0.1720 -0.0823 -0.1134
 1213ERGO    R213719   6.953  17.129   6.495 -0.1290 -0.0486 -0.0432
 1213ERGO    R313720   7.055  17.265   6.707 -0.1716  0.0313 -0.0737
 1213ERGO    R413721   6.905  17.043   6.826  0.0008 -0.0618 -0.0273
 1213ERGO    R513722   6.882  17.255   6.873 -0.1290 -0.0732 -0.0348
 1213ERGO    C113723   6.973  17.121   7.218  0.0363  0.0056 -0.0468
 1213ERGO    C213724   6.919  17.075   7.587 -0.2333 -0.2479 -0.1049
 1214ERGO   ROH13725   2.699   5.645   6.487 -0.1861 -0.0826 -0.0080
 1214ERGO    R113726   2.821   5.557   6.727 -0.2581 -0.1946 -0.0125
 1214ERGO    R213727   2.935   5.730   6.909  0.1182 -0.3097 -0.1295
 1214ERGO    R313728   2.768   5.605   7.083 -0.0510  0.0607 -0.0140
 1214ERGO    R413729   3.023   5.628   7.227 -0.0242 -0.1392 -0.0325
 1214ERGO    R513730   2.908   5.446   7.194 -0.2601 -0.0232  0.1326
 1214ERGO    C113731   2.918   5.450   7.576 -0.2658  0.3078  0.1323
 1214ERGO    C213732   2.998   5.479   7.804  0.2223 -0.1612  0.0506
 1215ERGO   ROH13733  15.296   6.952   7.344 -0.1750  0.0858  0.0781
 1215ERGO    R113734  15.379   7.086   7.579 -0.0467  0.0041  0.0806
 1215ERGO    R213735  15.332   6.987   7.832 -0.0724  0.0061  0.0788
 1215ERGO    R313736  15.601   7.016   7.859 -0.0472 -0.1771  0.0361
 1215ERGO    R413737  15.509   6.925   8.122 -0.1027  0.1317  0.1244
 1215ERGO    R513738  15.629   7.102   8.081  0.0320  0.0021 -0.0432
 1215ERGO    C113739  15.865   6.916   8.316 -0.0966  0.0328  0.1109
 1215ERGO    C213740  16.034   6.733   8.565  0.1969 -0.2626 -0.1136
 1216ERGO   ROH13741  17.870   6.967   6.803 -0.1214  0.1418 -0.1674
 1216ERGO    R113742  17.853   7.142   7.025 -0.3265 -0.0964  0.0096
 1216ERGO    R213743  17.796   7.053   7.280  0.1553 -0.4805 -0.0031
 1216ERGO    R313744  18.025   7.185   7.342 -0.0904  0.0372 -0.1336
 1216ERGO    R413745  17.876   7.172   7.594  0.1407 -0.4579 -0.0078
 1216ERGO    R513746  17.958   7.351   7.500 -0.3591 -0.2015  0.0131
 1216ERGO    C113747  18.139   7.365   7.836 -0.0984  0.0414 -0.1330
 1216ERGO    C213748  18.375   7.380   8.121  0.1284  0.0460  0.1138
 1217ERGO   ROH13749   8.920   1.155   6.593  0.2858  0.1498  0.1374
 1217ERGO    R113750   8.789   1.184   6.842  0.2811 -0.0869  0.1651
 1217ERGO    R213751   8.514   1.169   6.869  0.2696  0.0537  0.1147
 1217ERGO    R313752   8.576   0.980   7.055  0.1291 -0.2274 -0.1158
 1217ERGO    R413753   8.310   1.075   7.132  0.2844  0.0407  0.1220
 1217ERGO    R513754   8.486   1.066   7.259  0.3463 -0.3220  0.0248
 1217ERGO    C113755   8.249   0.844   7.459  0.1610 -0.2308 -0.0902
 1217ERGO    C213756   8.177   0.833   7.786 -0.1052 -0.1103  0.2008
 1218ERGO   ROH13757  17.171  10.892   6.903 -0.1394 -0.1669 -0.0106
 1218ERGO    R113758  17.200  10.715   7.122  0.1386 -0.1027  0.0089
 1218ERGO    R213759  17.410  10.732   7.301  0.1490  0.2059 -0.0279
 1218ERGO    R313760  17.210  10.743   7.485  0.1624 -0.0414  0.0037
 1218ERGO    R413761  17.441  10.637   7.631  0.3142  0.2181 -0.0392
 1218ERGO    R513762  17.242  10.547   7.619  0.4147 -0.0155 -0.0142
 1218ERGO    C113763  17.271  10.591   7.997  0.4232 -0.0072 -0.0162
 1218ERGO    C213764  17.369  10.642   8.360 -0.0702  0.2917  0.0860
 1219ERGO   ROH13765  16.961   0.273   6.785  0.0792 -0.0056  0.0160
 1219ERGO    R113766  16.943   0.121   7.023 -0.0901 -0.0916 -0.0489
 1219ERGO    R213767  16.970  -0.155   7.027  0.0993 -0.0789 -0.1042
 1219ERGO    R313768  17.161  -0.101   7.212 -0.1492  0.0041  0.1325
 1219ERGO    R413769  17.076  -0.374   7.271  0.0988 -0.1395 -0.1599
 1219ERGO    R513770  17.083  -0.208   7.411 -0.2331 -0.2326 -0.0259
 1219ERGO    C113771  17.316  -0.452   7.588 -0.1349 -0.0969  0.0297
 1219ERGO    C213772  17.516  -0.667   7.708 -0.5610 -0.4157  0.1147
 1220ERGO   ROH13773  10.999   6.656   7.254  0.0459 -0.0489  0.0522
 1220ERGO    R113774  11.111   6.902   7.338  0.0663 -0.0678  0.0794
 1220ERGO    R213775  11.031   7.030   7.570  0.0380 -0.0599  0.0640
 1220ERGO    R313776  11.297   7.022   7.627  0.0252 -0.1006  0.1201
 1220ERGO    R413777  11.208   7.287   7.719  0.0683 -0.0404 -0.0042
 1220ERGO    R513778  11.373   7.245   7.583  0.0867 -0.1354  0.0446
 1220ERGO    C113779  11.560   7.429   7.861  0.0739 -0.0673  0.0087
 1220ERGO    C213780  11.576   7.523   8.216  0.0467 -0.1328  0.3077
 1221ERGO   ROH13781  12.582   4.572   6.959 -0.2038  0.0732 -0.0578
 1221ERGO    R113782  12.406   4.467   7.153 -0.0532  0.0036  0.0400
 1221ERGO    R213783  12.227   4.264   7.097 -0.1634  0.1060  0.0749
 1221ERGO    R313784  12.347   4.143   7.310 -0.0132 -0.0807 -0.1086
 1221ERGO    R413785  12.089   4.004   7.278 -0.2472  0.2239  0.1845
 1221ERGO    R513786  12.166   4.098   7.461  0.1129  0.1030  0.1205
 1221ERGO    C113787  12.120   3.740   7.583 -0.1549  0.1174  0.0761
 1221ERGO    C213788  11.932   3.465   7.742 -0.1320 -0.2236  0.2239
 1222ERGO   ROH13789   7.524   8.667   6.959 -0.1724  0.2039  0.2416
 1222ERGO    R113790   7.357   8.659   7.187 -0.0758  0.1709  0.3119
 1222ERGO    R213791   7.286   8.423   7.311 -0.1770  0.1388  0.1912
 1222ERGO    R313792   7.385   8.547   7.532  0.0039 -0.0689  0.2307
 1222ERGO    R413793   7.188   8.355   7.636 -0.3025  0.1919  0.1653
 1222ERGO    R513794   7.195   8.569   7.677  0.0217  0.1784  0.2249
 1222ERGO    C113795   7.224   8.431   8.032 -0.2057  0.0279  0.1873
 1222ERGO    C213796   7.108   8.272   8.201 -0.1057 -0.1154 -0.3130
 1223ERGO   ROH13797   1.362   6.868   6.724 -0.2401 -0.1570 -0.0088
 1223ERGO    R113798   1.337   6.731   6.971  0.0201 -0.1752  0.0110
 1223ERGO    R213799   1.517   6.764   7.178  0.0745  0.0428 -0.0646
 1223ERGO    R313800   1.294   6.823   7.321  0.0625 -0.2043  0.0232
 1223ERGO    R413801   1.510   6.817   7.519  0.1713  0.1665 -0.0814
 1223ERGO    R513802   1.323   6.705   7.527  0.3248 -0.0854  0.0563
 1223ERGO    C113803   1.295   6.904   7.852  0.2165  0.0066 -0.0088
 1223ERGO    C213804   1.361   7.149   8.107 -0.0788  0.1795 -0.1298
 1224ERGO   ROH13805  14.738  13.287   6.885 -0.1922  0.0567 -0.0895
 1224ERGO    R113806  14.651  13.283   7.154  0.0552  0.0081 -0.0071
 1224ERGO    R213807  14.825  13.307   7.367  0.2297  0.2105 -0.1665
 1224ERGO    R313808  14.659  13.511   7.438  0.0902  0.0590 -0.0491
 1224ERGO    R413809  14.840  13.480   7.667  0.0928  0.0358 -0.0570
 1224ERGO    R513810  14.622  13.479   7.673  0.0930 -0.1112 -0.0716
 1224ERGO    C113811  14.694  13.771   7.907 -0.1178 -0.2080  0.1170
 1224ERGO    C213812  14.598  14.027   8.152 -0.0293  0.1989 -0.2220
 1225ERGO   ROH13813  10.402   8.952   6.576  0.0833 -0.0917 -0.0051
 1225ERGO    R113814  10.457   8.993   6.850  0.0400 -0.0836  0.0001
 1225ERGO    R213815  10.428   9.240   6.973  0.0006 -0.0954 -0.0137
 1225ERGO    R313816  10.270   9.100   7.144 -0.0063 -0.0984 -0.0186
 1225ERGO    R413817  10.282   9.370   7.257 -0.1377 -0.0248 -0.1146
 1225ERGO    R513818  10.328   9.184   7.361 -0.0977  0.0156 -0.0250
 1225ERGO    C113819  10.048   9.316   7.583 -0.2247  0.0132 -0.1780
 1225ERGO    C213820   9.943   9.462   7.873  0.4849 -0.2392  0.0701
 1226ERGO   ROH13821  17.731  18.280   6.392 -0.2706 -0.2130  0.0323
 1226ERGO    R113822  17.908  18.149   6.570 -0.2807 -0.2358  0.0256
 1226ERGO    R213823  18.144  18.263   6.656 -0.1245 -0.3773 -0.2013
 1226ERGO    R313824  18.042  18.210   6.903 -0.0284 -0.1007 -0.0985
 1226ERGO    R413825  18.333  18.188   6.936 -0.0309 -0.4261 -0.2771
 1226ERGO    R513826  18.184  18.038   6.990 -0.1771 -0.2164 -0.0849
 1226ERGO    C113827  18.346  18.094   7.330  0.1137 -0.1949 -0.2247
 1226ERGO    C213828  18.353  18.095   7.652 -0.1763 -0.0053  0.0504
 1227ERGO   ROH13829  17.489   1.624   6.680  0.1186 -0.0762  0.1230
 1227ERGO    R113830  17.449   1.445   6.895 -0.0732 -0.0463  0.1137
 1227ERGO    R213831  17.643   1.395   7.086 -0.0809 -0.3515  0.0446
 1227ERGO    R313832  17.445   1.465   7.259  0.0730 -0.0838  0.1185
 1227ERGO    R413833  17.655   1.350   7.428 -0.0610 -0.4942  0.0257
 1227ERGO    R513834  17.445   1.291   7.423 -0.1688 -0.1493  0.0558
 1227ERGO    C113835  17.476   1.389   7.790  0.0952 -0.3260  0.0842
 1227ERGO    C213836  17.486   1.495   8.057 -0.1226  0.0210  0.1816
 1228ERGO   ROH13837   5.062   9.516   8.436 -0.0112 -0.0486 -0.0625
 1228ERGO    R113838   4.781   9.537   8.466 -0.0102 -0.1149 -0.0064
 1228ERGO    R213839   4.607   9.504   8.255 -0.0316  0.0859 -0.0222
 1228ERGO    R313840   4.494   9.319   8.419  0.0122 -0.1035 -0.2020
 1228ERGO    R413841   4.267   9.448   8.284 -0.0272  0.0999  0.0585
 1228ERGO    R513842   4.294   9.425   8.499  0.0635 -0.1735  0.0195
 1228ERGO    C113843   3.963   9.241   8.455  0.0165 -0.0697 -0.0633
 1228ERGO    C213844   3.577   9.336   8.256 -0.3004  0.3189  0.1222
 1229ERGO   ROH13845   3.877  17.610   6.663 -0.0565  0.2560  0.0047
 1229ERGO    R113846   3.914  17.531   6.932 -0.2100  0.0564 -0.0297
 1229ERGO    R213847   4.003  17.706   7.128  0.0334 -0.1745  0.0748
 1229ERGO    R313848   3.778  17.624   7.257 -0.1131  0.0984 -0.0012
 1229ERGO    R413849   3.951  17.728   7.469  0.0259 -0.2907  0.0816
 1229ERGO    R513850   3.858  17.532   7.463 -0.2805 -0.1458 -0.0429
 1229ERGO    C113851   3.710  17.665   7.788 -0.1161 -0.1022  0.0142
 1229ERGO    C213852   3.549  17.801   7.997 -0.2094 -0.0097  0.1914
 1230ERGO   ROH13853   9.507  13.223   6.186 -0.2711 -0.0975 -0.0084
 1230ERGO    R113854   9.440  13.243   6.460 -0.2058 -0.0057  0.0012
 1230ERGO    R213855   9.620  13.185   6.662 -0.2036 -0.0897 -0.0230
 1230ERGO    R313856   9.555  13.435   6.747 -0.0235 -0.0307 -0.0550
 1230ERGO    R413857   9.709  13.321   6.967  0.0107 -0.0546 -0.0989
 1230ERGO    R513858   9.511  13.410   6.980  0.0693  0.0588 -0.0298
 1230ERGO    C113859   9.700  13.635   7.224  0.3045  0.0211 -0.1732
 1230ERGO    C213860   9.834  13.660   7.448  0.1580  0.3799 -0.1675
 1231ERGO   ROH13861  17.884  12.939   7.004  0.1438 -0.3442  0.0747
 1231ERGO    R113862  17.820  12.886   7.274  0.0935 -0.1601  0.0990
 1231ERGO    R213863  17.934  12.679   7.417  0.0229 -0.0969  0.2426
 1231ERGO    R313864  17.998  12.877   7.592  0.0447 -0.0050  0.1329
 1231ERGO    R413865  18.044  12.629   7.741 -0.0509  0.0661  0.2947
 1231ERGO    R513866  17.920  12.797   7.804 -0.0190  0.1426  0.1698
 1231ERGO    C113867  18.168  12.786   8.093 -0.0732  0.2473  0.2221
 1231ERGO    C213868  18.202  12.802   8.402 -0.2847  0.1659  0.0656
 1232ERGO   ROH13869   0.653  17.689   6.485  0.1080 -0.0537 -0.0325
 1232ERGO    R113870   0.534  17.550   6.700  0.1610 -0.1143 -0.0421
 1232ERGO    R213871   0.681  17.401   6.881  0.2216 -0.0446 -0.0339
 1232ERGO    R313872   0.555  17.557   7.064  0.1326 -0.1082 -0.0402
 1232ERGO    R413873   0.672  17.339   7.221  0.3146 -0.0045 -0.0240
 1232ERGO    R513874   0.464  17.402   7.221  0.2664 -0.1544 -0.0052
 1232ERGO    C113875   0.549  17.450   7.590  0.2854 -0.0407 -0.0241
 1232ERGO    C213876   0.514  17.339   8.022 -0.2054 -0.2581  0.1404
 1233ERGO   ROH13877   2.269  11.069   6.437  0.0515  0.0994 -0.0279
 1233ERGO    R113878   2.057  11.103   6.622 -0.0096  0.0911 -0.0978
 1233ERGO    R213879   2.036  10.953   6.854 -0.0671  0.1062 -0.0986
 1233ERGO    R313880   2.025  11.198   6.972 -0.1321  0.1122 -0.1132
 1233ERGO    R413881   1.901  11.017   7.166  0.3005  0.0113  0.0865
 1233ERGO    R513882   1.815  11.200   7.086  0.0155 -0.0738  0.1793
 1233ERGO    C113883   1.813  11.284   7.458  0.4536 -0.0383  0.1805
 1233ERGO    C213884   1.711  11.112   7.701  0.0744  0.0197  0.0297
 1234ERGO   ROH13885   3.074   7.941   6.551 -0.0906  0.0137  0.0602
 1234ERGO    R113886   3.165   7.986   6.815 -0.0467  0.3588 -0.0119
 1234ERGO    R213887   3.123   8.225   6.948 -0.6440  0.2902 -0.0759
 1234ERGO    R313888   3.014   8.063   7.137 -0.0683  0.0352  0.0631
 1234ERGO    R413889   3.126   8.287   7.288 -0.8002  0.5970 -0.1257
 1234ERGO    R513890   3.165   8.076   7.322 -0.0522  0.7198  0.0409
 1234ERGO    C113891   3.025   8.171   7.663 -0.3506  0.5364 -0.0242
 1234ERGO    C213892   2.756   8.293   7.856  0.2627 -0.2169 -0.0293
 1235ERGO   ROH13893  11.763   9.729   6.834  0.3234  0.2357  0.2052
 1235ERGO    R113894  11.552   9.674   7.015  0.1020  0.2480 -0.0423
 1235ERGO    R213895  11.581   9.502   7.229 -0.2316  0.0650 -0.1311
 1235ERGO    R313896  11.491   9.717   7.371 -0.2181  0.0279 -0.0677
 1235ERGO    R413897  11.366   9.485   7.500  0.0005 -0.0171  0.0510
 1235ERGO    R513898  11.264   9.662   7.424 -0.1467 -0.0738  0.1272
 1235ERGO    C113899  11.157   9.675   7.790  0.1483 -0.0996  0.2166
 1235ERGO    C213900  10.865   9.672   7.977  0.1774 -0.0549  0.0299
 1236ERGO   ROH13901  13.104   3.964   6.610 -0.0670 -0.2311 -0.0061
 1236ERGO    R113902  13.248   3.861   6.831 -0.1170 -0.1209  0.0791
 1236ERGO    R213903  13.273   3.998   7.069 -0.3019 -0.0684  0.0708
 1236ERGO    R313904  13.173   3.768   7.175 -0.2330 -0.1044  0.0586
 1236ERGO    R413905  13.229   3.939   7.407 -0.1823 -0.1439  0.0739
 1236ERGO    R513906  13.300   3.735   7.375 -0.1625 -0.1266  0.0101
 1236ERGO    C113907  13.109   3.689   7.702 -0.0480 -0.2217  0.0643
 1236ERGO    C213908  12.854   3.574   7.940 -0.3119 -0.4305  0.1385
 1237ERGO   ROH13909   3.598  13.304   5.973  0.2287  0.0300 -0.0584
 1237ERGO    R113910   3.510  13.499   6.158  0.2392  0.1334 -0.1620
 1237ERGO    R213911   3.608  13.516   6.415  0.0522  0.0975 -0.0874
 1237ERGO    R313912   3.659  13.774   6.344  0.3140  0.0473 -0.0940
 1237ERGO    R413913   3.722  13.762   6.630  0.0612  0.0486 -0.0354
 1237ERGO    R513914   3.587  13.903   6.532  0.2519  0.1374 -0.1781
 1237ERGO    C113915   3.836  14.147   6.688  0.3122 -0.0269 -0.0113
 1237ERGO    C213916   4.104  14.138   6.984  0.2055 -0.0917  0.1459
 1238ERGO   ROH13917   7.601   4.623   6.836 -0.2778 -0.0700 -0.0134
 1238ERGO    R113918   7.598   4.808   7.049 -0.2053  0.0912 -0.1507
 1238ERGO    R213919   7.407   5.007   7.070 -0.4993 -0.2013  0.0135
 1238ERGO    R313920   7.368   4.899   7.316  0.1001 -0.0792  0.1812
 1238ERGO    R413921   7.352   5.189   7.359 -0.6843 -0.0456 -0.1166
 1238ERGO    R513922   7.480   5.049   7.466 -0.1385  0.4182 -0.1047
 1238ERGO    C113923   7.283   5.193   7.758 -0.2293  0.1597 -0.0349
 1238ERGO    C213924   7.118   5.124   8.178  0.2227  0.1526  0.2598
 1239ERGO   ROH13925   1.083   0.925   6.552  0.0813 -0.0277  0.0380
 1239ERGO    R113926   0.940   0.842   6.781 -0.0191  0.0196 -0.0079
 1239ERGO    R213927   0.923   0.578   6.860 -0.0972  0.0323  0.0088
 1239ERGO    R313928   1.016   0.675   7.096 -0.1686  0.0327  0.0376
 1239ERGO    R413929   0.872   0.431   7.168 -0.0113 -0.0913 -0.0343
 1239ERGO    R513930   0.841   0.630   7.252 -0.1480 -0.1296  0.0197
 1239ERGO    C113931   0.929   0.437   7.570 -0.0283 -0.1629 -0.0324
 1239ERGO    C213932   1.076   0.407   7.804  0.0064  0.2437  0.1807
 1240ERGO   ROH13933  15.301  18.025   6.315 -0.0715  0.1915 -0.1491
 1240ERGO    R113934  15.278  18.027   6.597 -0.0881  0.1522 -0.1502
 1240ERGO    R213935  15.191  18.247   6.738 -0.1950  0.0997 -0.1322
 1240ERGO    R313936  15.011  18.070   6.840 -0.1223  0.0081 -0.1615
 1240ERGO    R413937  15.023  18.287   7.038 -0.2270 -0.0134 -0.1343
 1240ERGO    R513938  15.052  18.075   7.076 -0.1355 -0.0048 -0.1598
 1240ERGO    C113939  14.757  18.145   7.308 -0.1774 -0.1652 -0.1631
 1240ERGO    C213940  14.458  18.100   7.549 -0.1332  0.1159  0.0351
 1241ERGO   ROH13941   3.696   6.547   6.627 -0.2793 -0.1171 -0.0588
 1241ERGO    R113942   3.615   6.433   6.873 -0.3095  0.2374  0.0989
 1241ERGO    R213943   3.767   6.246   7.008 -0.5959  0.0035  0.0820
 1241ERGO    R313944   3.743   6.421   7.214 -0.0251  0.2071 -0.0018
 1241ERGO    R413945   3.866   6.183   7.333 -0.6957 -0.1480  0.0861
 1241ERGO    R513946   3.685   6.284   7.402 -0.4049  0.4482  0.0827
 1241ERGO    C113947   3.901   6.312   7.716 -0.2180 -0.0452  0.0098
 1241ERGO    C213948   4.086   6.077   8.003 -0.2517 -0.0989  0.0536
 1242ERGO   ROH13949  13.191   9.637   6.892  0.2378 -0.2782  0.0902
 1242ERGO    R113950  12.924   9.582   6.965  0.1683 -0.1195 -0.0373
 1242ERGO    R213951  12.858   9.412   7.173 -0.0334 -0.1252 -0.1033
 1242ERGO    R313952  12.717   9.627   7.262  0.0691 -0.0519 -0.1156
 1242ERGO    R413953  12.612   9.400   7.415 -0.3077 -0.0646 -0.3738
 1242ERGO    R513954  12.496   9.542   7.297 -0.0525  0.1238 -0.4100
 1242ERGO    C113955  12.336   9.595   7.639 -0.3713  0.0394 -0.5429
 1242ERGO    C213956  12.219   9.681   7.969 -0.0045 -0.0355  0.1163
 1243ERGO   ROH13957  15.288  10.907   6.885  0.0273  0.2716  0.0101
 1243ERGO    R113958  15.184  10.968   7.141 -0.0653 -0.0090  0.0433
 1243ERGO    R213959  15.047  10.783   7.295  0.2135 -0.2951 -0.0414
 1243ERGO    R313960  15.232  10.850   7.482  0.1188 -0.1033 -0.0145
 1243ERGO    R413961  15.009  10.737   7.635  0.1416 -0.1730 -0.0328
 1243ERGO    R513962  15.103  10.931   7.667  0.0153 -0.1020 -0.0870
 1243ERGO    C113963  15.161  10.773   8.009  0.0108  0.0780 -0.0024
 1243ERGO    C213964  15.231  10.862   8.300 -0.3959  0.0680 -0.3720
 1244ERGO   ROH13965  14.928   3.764   6.646  0.1186  0.3886  0.0113
 1244ERGO    R113966  15.034   3.629   6.871 -0.1493  0.1154 -0.0202
 1244ERGO    R213967  15.287   3.681   6.970 -0.1259 -0.2607  0.1277
 1244ERGO    R313968  15.152   3.721   7.203 -0.1797 -0.2351  0.0922
 1244ERGO    R413969  15.432   3.699   7.283 -0.1979 -0.2741  0.1622
 1244ERGO    R513970  15.265   3.583   7.362 -0.2368 -0.2494  0.1237
 1244ERGO    C113971  15.391   3.747   7.683 -0.2904 -0.2578  0.1490
 1244ERGO    C213972  15.528   3.744   8.015 -0.3153  0.1223  0.2038
 1245ERGO   ROH13973   9.398  10.794   6.582  0.2474  0.1589  0.1879
 1245ERGO    R113974   9.302  10.662   6.814  0.1277  0.0912  0.1014
 1245ERGO    R213975   9.470  10.576   7.016  0.0333 -0.0461  0.1236
 1245ERGO    R313976   9.304  10.724   7.172  0.0265 -0.0590  0.1285
 1245ERGO    R413977   9.421  10.526   7.354  0.1964  0.0761  0.1669
 1245ERGO    R513978   9.209  10.566   7.324  0.1650 -0.0396  0.2370
 1245ERGO    C113979   9.236  10.636   7.698  0.2850  0.1351  0.1967
 1245ERGO    C213980   9.254  10.708   8.082  0.0116 -0.0825 -0.0839
 1246ERGO   ROH13981   2.363  15.912   6.669 -0.3250  0.1672 -0.2309
 1246ERGO    R113982   2.178  15.791   6.845 -0.1671 -0.0069 -0.1824
 1246ERGO    R213983   2.236  15.561   6.988  0.0821  0.0434 -0.2047
 1246ERGO    R313984   2.163  15.714   7.201 -0.0010 -0.0304 -0.1789
 1246ERGO    R413985   2.188  15.443   7.309  0.2482 -0.0237 -0.2028
 1246ERGO    R513986   2.014  15.574   7.326  0.1392 -0.1662 -0.1577
 1246ERGO    C113987   2.090  15.517   7.696  0.2670 -0.1321 -0.1774
 1246ERGO    C213988   2.012  15.385   8.010  0.1265 -0.1164 -0.1491
 1247ERGO   ROH13989  15.327  10.119   6.829  0.0553 -0.0147 -0.1028
 1247ERGO    R113990  15.262  10.053   7.097 -0.0135  0.0626 -0.1004
 1247ERGO    R213991  15.322   9.808   7.209 -0.0615  0.0872 -0.0207
 1247ERGO    R313992  15.444   9.960   7.398 -0.0925  0.1268 -0.0321
 1247ERGO    R413993  15.327   9.737   7.547 -0.0374  0.1079 -0.0166
 1247ERGO    R513994  15.298   9.949   7.587 -0.0859  0.1037 -0.0281
 1247ERGO    C113995  15.444   9.838   7.921 -0.0526  0.1571 -0.0248
 1247ERGO    C213996  15.640   9.978   8.103  0.3166 -0.3001 -0.0705
 1248ERGO   ROH13997   7.081   0.029   6.300 -0.0622  0.1608 -0.3257
 1248ERGO    R113998   6.849   0.190   6.294 -0.0063  0.2480 -0.1809
 1248ERGO    R213999   6.613   0.116   6.416 -0.0207  0.2311 -0.2307
 1248ERGO    R314000   6.636   0.358   6.537  0.0628  0.1267 -0.0325
 1248ERGO    R414001   6.364   0.270   6.600 -0.1543  0.3682 -0.5186
 1248ERGO    R514002   6.421   0.460   6.510  0.2030  0.3775 -0.3112
 1248ERGO    C114003   6.241   0.586   6.821 -0.1537  0.3501 -0.5001
 1248ERGO    C214004   6.065   0.557   6.988  0.1149  0.3212 -0.0898
 1249ERGO   ROH14005   6.896   0.641   6.366 -0.0382 -0.0930  0.0584
 1249ERGO    R114006   6.862   0.772   6.615  0.0059 -0.0147  0.0242
 1249ERGO    R214007   6.618   0.787   6.743 -0.0019  0.1434 -0.0003
 1249ERGO    R314008   6.756   0.680   6.951 -0.0751  0.1192  0.0353
 1249ERGO    R414009   6.549   0.844   7.077  0.0633  0.3320 -0.0184
 1249ERGO    R514010   6.764   0.855   7.114  0.0719  0.1786 -0.0359
 1249ERGO    C114011   6.639   0.776   7.466  0.0325  0.4190  0.0046
 1249ERGO    C214012   6.639   0.852   7.815 -0.3690 -0.1480 -0.0531
 1250ERGO   ROH14013   3.720  17.095   6.702  0.0251 -0.2934 -0.0089
 1250ERGO    R114014   3.822  17.023   6.956  0.0271 -0.0742  0.0537
 1250ERGO    R214015   3.772  17.172   7.184 -0.3233 -0.1034 -0.0015
 1250ERGO    R314016   3.683  16.934   7.281  0.0197 -0.2338  0.0081
 1250ERGO    R414017   3.751  17.090   7.519 -0.3190 -0.0711  0.0072
 1250ERGO    R514018   3.823  16.891   7.470  0.0232  0.0282  0.0709
 1250ERGO    C114019   3.656  16.820   7.805  0.0055 -0.1747  0.0214
 1250ERGO    C214020   3.484  16.701   8.139 -0.3658 -0.3144  0.0644
 1251ERGO   ROH14021   3.783  11.056   6.585 -0.0393  0.0721 -0.0804
 1251ERGO    R114022   3.797  11.001   6.862 -0.1022 -0.1251 -0.1139
 1251ERGO    R214023   3.914  11.175   7.043  0.1108 -0.3760  0.0021
 1251ERGO    R314024   3.674  11.153   7.168  0.0812 -0.1706 -0.0170
 1251ERGO    R414025   3.865  11.205   7.383  0.0980 -0.3030 -0.0064
 1251ERGO    R514026   3.724  11.040   7.373 -0.0319 -0.1887 -0.0019
 1251ERGO    C114027   3.612  11.202   7.700  0.0628 -0.0677 -0.0294
 1251ERGO    C214028   3.534  11.048   7.921  0.2523 -0.0628  0.1739
 1252ERGO   ROH14029  11.604  13.579   6.414  0.1617  0.1546 -0.0545
 1252ERGO    R114030  11.551  13.725   6.651  0.0160  0.0683 -0.0330
 1252ERGO    R214031  11.393  13.626   6.854 -0.0281 -0.0469 -0.1241
 1252ERGO    R314032  11.611  13.681   7.007 -0.1081 -0.0105 -0.0210
 1252ERGO    R414033  11.383  13.702   7.192 -0.1978 -0.0603 -0.1248
 1252ERGO    R514034  11.537  13.853   7.157 -0.2099 -0.0294 -0.0487
 1252ERGO    C114035  11.582  13.798   7.531 -0.3717 -0.0339 -0.0284
 1252ERGO    C214036  11.650  13.627   7.752 -0.3156 -0.3045 -0.0956
 1253ERGO   ROH14037   3.622  16.477   6.723  0.0607 -0.1514 -0.1340
 1253ERGO    R114038   3.614  16.555   6.995 -0.0506 -0.0473 -0.1677
 1253ERGO    R214039   3.418  16.467   7.170  0.0334 -0.1899 -0.1566
 1253ERGO    R314040   3.632  16.389   7.318  0.1037  0.1080 -0.0923
 1253ERGO    R414041   3.411  16.404   7.509 -0.0933 -0.5488 -0.2203
 1253ERGO    R514042   3.604  16.503   7.527 -0.2947 -0.1472  0.0124
 1253ERGO    C114043   3.607  16.295   7.847 -0.1011 -0.4781 -0.1971
 1253ERGO    C214044   3.758  16.263   8.061 -0.2228  0.1769 -0.2617
 1254ERGO   ROH14045   3.242   7.180   8.108 -0.1400  0.1373 -0.1996
 1254ERGO    R114046   3.406   7.399   8.035  0.0395  0.1557  0.2226
 1254ERGO    R214047   3.589   7.513   8.209  0.2137 -0.3853  0.4253
 1254ERGO    R314048   3.763   7.464   8.006  0.0919 -0.1181  0.2516
 1254ERGO    R414049   3.907   7.646   8.184  0.1575 -0.2673  0.3410
 1254ERGO    R514050   3.875   7.672   7.971  0.0049 -0.0504  0.3930
 1254ERGO    C114051   4.256   7.676   7.979  0.0104  0.0523  0.1287
 1254ERGO    C214052   4.671   7.678   8.012 -0.0924  0.0391 -0.4741
 1255ERGO   ROH14053   4.763   7.778   5.904 -0.1264  0.2630 -0.1071
 1255ERGO    R114054   4.810   7.695   6.170 -0.1996  0.1214 -0.1372
 1255ERGO    R214055   5.002   7.813   6.331 -0.0743 -0.1266 -0.1013
 1255ERGO    R314056   4.792   7.846   6.501 -0.0363  0.0247 -0.0826
 1255ERGO    R414057   5.029   7.853   6.673 -0.0084 -0.0548 -0.1146
 1255ERGO    R514058   4.855   7.724   6.697 -0.0733  0.0405 -0.0599
 1255ERGO    C114059   4.849   7.907   7.032  0.0656  0.1290 -0.1047
 1255ERGO    C214060   5.059   7.888   7.324 -0.2574 -0.1294 -0.3566
 1256ERGO   ROH14061  17.240   4.572   6.469  0.0530 -0.1803 -0.1106
 1256ERGO    R114062  17.224   4.687   6.727  0.1269 -0.0803 -0.1492
 1256ERGO    R214063  17.045   4.599   6.918 -0.0601  0.2154 -0.1747
 1256ERGO    R314064  17.269   4.575   7.071 -0.1339 -0.0470 -0.1038
 1256ERGO    R414065  17.053   4.628   7.263 -0.1352  0.1217 -0.1651
 1256ERGO    R514066  17.241   4.738   7.244 -0.0209 -0.0642 -0.0748
 1256ERGO    C114067  17.269   4.622   7.606 -0.2483 -0.1792 -0.0928
 1256ERGO    C214068  17.482   4.577   7.859  0.0729  0.2877 -0.0198
 1257ERGO   ROH14069  16.254  13.542   6.749  0.1460 -0.0398 -0.0943
 1257ERGO    R114070  16.290  13.429   7.006  0.0070 -0.1373 -0.1154
 1257ERGO    R214071  16.477  13.526   7.186  0.0447 -0.3243 -0.0459
 1257ERGO    R314072  16.261  13.543   7.351  0.0187 -0.2056 -0.0929
 1257ERGO    R414073  16.493  13.542   7.531 -0.0256 -0.2746 -0.0455
 1257ERGO    R514074  16.320  13.409   7.540 -0.0814 -0.1974 -0.0589
 1257ERGO    C114075  16.300  13.567   7.886 -0.0908 -0.1343 -0.0893
 1257ERGO    C214076  16.429  13.671   8.070 -0.2112  0.2749 -0.0439
 1258ERGO   ROH14077   4.109  11.994   5.798  0.0111  0.1355  0.0243
 1258ERGO    R114078   4.129  12.068   6.070 -0.0438  0.0672  0.0467
 1258ERGO    R214079   3.960  11.968   6.265  0.0217 -0.1055  0.0125
 1258ERGO    R314080   4.193  11.899   6.386  0.0659  0.0163 -0.0014
 1258ERGO    R414081   4.022  11.996   6.604 -0.0616 -0.2883  0.0448
 1258ERGO    R514082   4.223  12.066   6.556 -0.1121 -0.0725  0.1228
 1258ERGO    C114083   4.277  11.949   6.915 -0.0686 -0.2804  0.0506
 1258ERGO    C214084   4.301  11.956   7.312 -0.0599 -0.0936 -0.2663
 1259ERGO   ROH14085  14.206  14.519   6.696 -0.2406 -0.0921 -0.1466
 1259ERGO    R114086  14.005  14.539   6.895 -0.0230 -0.2073  0.0911
 1259ERGO    R214087  14.062  14.524   7.165  0.3284  0.0020  0.0383
 1259ERGO    R314088  13.929  14.761   7.173  0.0741 -0.1371  0.0610
 1259ERGO    R414089  13.944  14.675   7.453  0.3367 -0.0547  0.0713
 1259ERGO    R514090  13.764  14.732   7.344  0.2082 -0.2750  0.1673
 1259ERGO    C114091  13.752  14.986   7.627  0.1028 -0.2185  0.1119
 1259ERGO    C214092  13.790  15.096   7.968  0.2742  0.2108 -0.0233
 1260ERGO   ROH14093  16.407   2.513   6.464 -0.0227  0.0388  0.1229
 1260ERGO    R114094  16.471   2.471   6.736  0.2012 -0.0378  0.0623
 1260ERGO    R214095  16.661   2.621   6.869  0.1278  0.1044  0.0171
 1260ERGO    R314096  16.458   2.666   7.044  0.1849 -0.2114  0.1719
 1260ERGO    R414097  16.700   2.750   7.187  0.1610  0.2123 -0.0312
 1260ERGO    R514098  16.550   2.609   7.258  0.4501 -0.0314  0.1084
 1260ERGO    C114099  16.532   2.869   7.536  0.2335 -0.0215  0.0860
 1260ERGO    C214100  16.680   3.170   7.682 -0.3720  0.0530  0.1235
 1261ERGO   ROH14101   0.353   0.462   6.684  0.2755 -0.2126  0.1731
 1261ERGO    R114102   0.452   0.479   6.948  0.1478 -0.0485  0.2131
 1261ERGO    R214103   0.342   0.647   7.139 -0.0100 -0.0026  0.0876
 1261ERGO    R314104   0.324   0.417   7.283  0.0176  0.0550  0.1824
 1261ERGO    R414105   0.408   0.620   7.477  0.0091  0.1349  0.0950
 1261ERGO    R514106   0.506   0.430   7.438  0.0217  0.1303  0.1679
 1261ERGO    C114107   0.429   0.389   7.809  0.0461  0.2689  0.1883
 1261ERGO    C214108   0.540   0.397   8.139 -0.4645  0.1019  0.0711
 1262ERGO   ROH14109  12.475  13.174   6.741 -0.1941  0.1710 -0.0427
 1262ERGO    R114110  12.386  13.152   7.009 -0.2257  0.0253 -0.0648
 1262ERGO    R214111  12.209  12.957   7.092  0.0149 -0.2200 -0.1253
 1262ERGO    R314112  12.404  12.904   7.274  0.0468  0.0186 -0.0854
 1262ERGO    R414113  12.156  12.919   7.431 -0.0709 -0.6148 -0.1776
 1262ERGO    R514114  12.340  13.031   7.467 -0.3041 -0.2652 -0.0021
 1262ERGO    C114115  12.307  12.847   7.800 -0.0909 -0.6206 -0.1705
 1262ERGO    C214116  12.570  12.755   8.167  0.0243  0.1268  0.0562
 1263ERGO   ROH14117  16.017  17.345   6.733  0.0362 -0.0449  0.0874
 1263ERGO    R114118  15.892  17.482   6.947  0.0646 -0.0617  0.1153
 1263ERGO    R214119  15.803  17.352   7.175  0.0338 -0.0902  0.0891
 1263ERGO    R314120  15.959  17.535   7.301  0.0747 -0.1511  0.1269
 1263ERGO    R414121  15.766  17.451   7.504  0.0132 -0.0981  0.0887
 1263ERGO    R514122  15.808  17.655   7.442  0.0926 -0.1090  0.1091
 1263ERGO    C114123  15.891  17.681   7.814  0.0397 -0.1598  0.1240
 1263ERGO    C214124  15.872  17.687   8.152  0.0731  0.0398 -0.0056
 1264ERGO   ROH14125   5.653  10.644   6.492  0.1912 -0.0947  0.2133
 1264ERGO    R114126   5.856  10.775   6.641  0.1623 -0.1601  0.3097
 1264ERGO    R214127   5.812  11.011   6.777  0.2180 -0.0520  0.1358
 1264ERGO    R314128   5.910  10.870   6.988 -0.0595 -0.0024  0.3045
 1264ERGO    R414129   5.930  11.152   7.070  0.4351  0.0722 -0.0083
 1264ERGO    R514130   6.091  11.004   7.069  0.1789 -0.2282  0.1704
 1264ERGO    C114131   6.091  11.102   7.438  0.3010  0.1909  0.0662
 1264ERGO    C214132   6.187  11.060   7.645 -0.6882  0.0783 -0.2844
 1265ERGO   ROH14133   0.270  13.196   6.850  0.1571 -0.1359 -0.1388
 1265ERGO    R114134   0.365  12.963   6.979  0.1134 -0.1386 -0.1086
 1265ERGO    R214135   0.246  12.859   7.206  0.0748 -0.1041 -0.1083
 1265ERGO    R314136   0.234  12.632   7.057  0.0582 -0.1134 -0.0939
 1265ERGO    R414137   0.301  12.540   7.327 -0.0200 -0.1065 -0.0737
 1265ERGO    R514138   0.410  12.495   7.143  0.0095 -0.1442 -0.0465
 1265ERGO    C114139   0.323  12.141   7.257 -0.0907 -0.1166 -0.0401
 1265ERGO    C214140   0.595  11.855   7.251 -0.3524  0.0999  0.0082
 1266ERGO   ROH14141   2.246  12.756   6.273  0.2432 -0.1563  0.1494
 1266ERGO    R114142   2.279  12.912   6.507  0.0620 -0.1010  0.1390
 1266ERGO    R214143   2.191  12.828   6.755  0.2060 -0.2124  0.1512
 1266ERGO    R314144   2.448  12.876   6.827  0.1540  0.1414  0.1199
 1266ERGO    R414145   2.292  12.938   7.067  0.0979 -0.1615  0.1690
 1266ERGO    R514146   2.436  13.069   6.969 -0.1052  0.0835  0.1828
 1266ERGO    C114147   2.592  13.047   7.316 -0.0139  0.2004  0.1501
 1266ERGO    C214148   2.537  12.936   7.693  0.1322 -0.3521  0.0347
 1267ERGO   ROH14149   4.758  12.938   6.114  0.0733 -0.0228  0.0096
 1267ERGO    R114150   4.753  12.817   6.370  0.0671 -0.0538 -0.0043
 1267ERGO    R214151   4.981  12.720   6.493  0.0748 -0.0224  0.0146
 1267ERGO    R314152   4.901  12.881   6.696  0.0149 -0.0594  0.0194
 1267ERGO    R414153   5.047  12.663   6.827 -0.0491 -0.0911  0.0272
 1267ERGO    R514154   4.844  12.729   6.873 -0.0577 -0.0877 -0.0309
 1267ERGO    C114155   5.010  12.781   7.213 -0.1776 -0.1660  0.0391
 1267ERGO    C214156   5.125  12.602   7.575 -0.0985  0.2168  0.0323
 1268ERGO   ROH14157   7.581  18.089   6.376 -0.1251  0.0593 -0.0220
 1268ERGO    R114158   7.736  17.967   6.579 -0.1363  0.1122  0.0185
 1268ERGO    R214159   7.631  17.896   6.824 -0.2099 -0.0491 -0.0602
 1268ERGO    R314160   7.733  17.652   6.761  0.0118  0.0484 -0.0868
 1268ERGO    R414161   7.734  17.659   7.054 -0.1245 -0.0320 -0.0805
 1268ERGO    R514162   7.904  17.615   6.925 -0.0293  0.1388 -0.0204
 1268ERGO    C114163   7.890  17.292   7.128  0.1333  0.0693 -0.1173
 1268ERGO    C214164   7.962  17.098   7.379  0.0160 -0.1060  0.0187
 1269ERGO   ROH14165  15.909  11.563   6.877  0.1379  0.0007  0.0326
 1269ERGO    R114166  15.981  11.560   7.150  0.0485  0.0245  0.0548
 1269ERGO    R214167  15.795  11.579   7.353 -0.0160  0.0216 -0.0136
 1269ERGO    R314168  15.913  11.349   7.440 -0.0247  0.0381  0.0496
 1269ERGO    R414169  15.820  11.483   7.684 -0.0646  0.0928  0.0127
 1269ERGO    R514170  16.023  11.413   7.643 -0.0529  0.0854  0.0550
 1269ERGO    C114171  15.945  11.213   7.959 -0.1010  0.1499  0.0874
 1269ERGO    C214172  16.119  11.136   8.227  0.0405  0.1253  0.0525
 1270ERGO   ROH14173  16.219   7.137   6.843  0.3249  0.0381  0.0548
 1270ERGO    R114174  16.337   7.015   7.070  0.1299 -0.0962  0.0857
 1270ERGO    R214175  16.188   6.885   7.263 -0.0491 -0.0936 -0.0492
 1270ERGO    R314176  16.355   6.679   7.209 -0.1132 -0.1544 -0.0161
 1270ERGO    R414177  16.339   6.686   7.501  0.0669  0.0454 -0.0054
 1270ERGO    R514178  16.521   6.689   7.381 -0.0046 -0.0602 -0.1226
 1270ERGO    C114179  16.585   6.376   7.589  0.0746  0.0693  0.0512
 1270ERGO    C214180  16.883   6.167   7.710 -0.1471 -0.1390 -0.0327
 1271ERGO   ROH14181  14.258   4.523   6.727  0.1445 -0.0669  0.1490
 1271ERGO    R114182  14.368   4.392   6.953  0.1691 -0.1899  0.0667
 1271ERGO    R214183  14.329   4.483   7.211  0.3621 -0.2185  0.1063
 1271ERGO    R314184  14.241   4.229   7.252  0.2100 -0.1650  0.0971
 1271ERGO    R414185  14.223   4.359   7.515 -0.0113 -0.0706  0.0401
 1271ERGO    R514186  14.325   4.172   7.469 -0.0415 -0.1299  0.2080
 1271ERGO    C114187  14.077   4.048   7.731 -0.3718  0.0657 -0.0070
 1271ERGO    C214188  14.008   3.955   8.128  0.2067  0.2613 -0.1863
 1272ERGO   ROH14189  14.812   9.253   7.542  0.0989  0.0160 -0.0314
 1272ERGO    R114190  15.081   9.318   7.603  0.1213 -0.0552 -0.0487
 1272ERGO    R214191  15.155   9.431   7.844  0.1520  0.0383 -0.0970
 1272ERGO    R314192  15.326   9.220   7.853  0.0667 -0.0253  0.0148
 1272ERGO    R414193  15.460   9.430   8.008  0.1991  0.0310 -0.1853
 1272ERGO    R514194  15.544   9.319   7.841  0.1040 -0.1299 -0.1222
 1272ERGO    C114195  15.797   9.231   8.112  0.1465 -0.0331 -0.1315
 1272ERGO    C214196  16.114   8.943   8.229 -0.0157  0.1516 -0.0286
 1273ERGO   ROH14197  14.184  12.186   6.935  0.0047 -0.2380  0.0070
 1273ERGO    R114198  14.016  12.271   7.146  0.0302 -0.1190 -0.0203
 1273ERGO    R214199  14.114  12.390   7.376  0.0624 -0.0407 -0.0756
 1273ERGO    R314200  13.937  12.586   7.311  0.0942 -0.0350 -0.1476
 1273ERGO    R414201  14.000  12.633   7.593  0.0639  0.0269 -0.1499
 1273ERGO    R514202  13.801  12.611   7.507  0.0715  0.0295 -0.1705
 1273ERGO    C114203  13.768  12.959   7.658  0.0946  0.0718 -0.2607
 1273ERGO    C214204  13.673  13.141   7.843 -0.1073  0.0292 -0.5401
 1274ERGO   ROH14205   3.843  13.013   6.190  0.0691 -0.1990  0.0940
 1274ERGO    R114206   3.782  13.119   6.446 -0.0187 -0.2170  0.0809
 1274ERGO    R214207   3.818  12.975   6.679  0.1239 -0.1523  0.1011
 1274ERGO    R314208   3.965  13.191   6.752 -0.0709 -0.0041  0.0631
 1274ERGO    R414209   3.934  13.036   6.999  0.0072  0.0542  0.1055
 1274ERGO    R514210   3.885  13.246   6.971 -0.1621  0.0041  0.0264
 1274ERGO    C114211   4.140  13.275   7.253 -0.2437  0.3137  0.0725
 1274ERGO    C214212   4.408  13.242   7.531 -0.2262  0.1829 -0.0319
 1275ERGO   ROH14213   2.392  16.289   6.447 -0.1830 -0.0448  0.0566
 1275ERGO    R114214   2.435  16.435   6.686  0.0757 -0.1474  0.0758
 1275ERGO    R214215   2.230  16.558   6.825  0.3005  0.3341  0.0066
 1275ERGO    R314216   2.328  16.413   7.032 -0.1074  0.0888  0.0368
 1275ERGO    R414217   2.177  16.630   7.159  0.1972  0.3309 -0.0091
 1275ERGO    R514218   2.385  16.576   7.198  0.0772 -0.0607  0.1230
 1275ERGO    C114219   2.238  16.535   7.548 -0.2459  0.0988  0.0101
 1275ERGO    C214220   2.147  16.399   7.930  0.3551 -0.2581 -0.3531
 1276ERGO   ROH14221   2.887   2.653   7.096  0.1142  0.3622  0.0497
 1276ERGO    R114222   2.794   2.605   7.359  0.0308  0.1915 -0.0079
 1276ERGO    R214223   2.901   2.409   7.521 -0.0612  0.0345 -0.1302
 1276ERGO    R314224   2.934   2.616   7.695 -0.0459 -0.0939  0.0383
 1276ERGO    R414225   2.990   2.375   7.854 -0.1090 -0.2393 -0.1423
 1276ERGO    R514226   2.848   2.534   7.902 -0.0937 -0.2433 -0.0338
 1276ERGO    C114227   3.073   2.549   8.210 -0.1225 -0.5193  0.0089
 1276ERGO    C214228   3.260   2.341   8.363 -0.1921 -0.2671 -0.0547
 1277ERGO   ROH14229  12.839   6.945   6.671  0.2062 -0.1240  0.0927
 1277ERGO    R114230  13.035   7.100   6.805  0.1758 -0.0972  0.1078
 1277ERGO    R214231  12.992   7.363   6.878  0.1365 -0.0986  0.1019
 1277ERGO    R314232  13.063   7.272   7.124  0.1247 -0.0897  0.1076
 1277ERGO    R414233  13.108   7.562   7.136  0.2082 -0.1035  0.0727
 1277ERGO    R514234  13.252   7.406   7.185  0.1650 -0.1379  0.0821
 1277ERGO    C114235  13.242   7.592   7.517  0.2387 -0.0979  0.0611
 1277ERGO    C214236  13.133   7.541   7.821 -0.3447  0.2628 -0.0076
 1278ERGO   ROH14237  13.747   8.729   6.632  0.2796  0.0148  0.1244
 1278ERGO    R114238  13.754   8.725   6.915  0.2730 -0.1311  0.1242
 1278ERGO    R214239  13.527   8.745   7.070  0.2876  0.0501  0.1346
 1278ERGO    R314240  13.620   8.514   7.180  0.0312 -0.1126  0.0167
 1278ERGO    R414241  13.421   8.612   7.371  0.2227  0.0626  0.1163
 1278ERGO    R514242  13.627   8.559   7.415  0.1669 -0.2169  0.0289
 1278ERGO    C114243  13.446   8.318   7.649 -0.0557 -0.0829 -0.0050
 1278ERGO    C214244  13.487   8.230   7.996  0.2584 -0.1456  0.0960
 1279ERGO   ROH14245   2.507  13.611   6.337  0.1019  0.0922 -0.2110
 1279ERGO    R114246   2.619  13.772   6.540  0.1239  0.0547 -0.1919
 1279ERGO    R214247   2.486  13.830   6.775  0.0678  0.1722 -0.2467
 1279ERGO    R314248   2.711  13.731   6.890 -0.0354  0.0474 -0.1512
 1279ERGO    R414249   2.680  13.998   7.007  0.1601  0.1286 -0.2934
 1279ERGO    R514250   2.857  13.920   6.907  0.1155 -0.0651 -0.2166
 1279ERGO    C114251   3.005  14.002   7.249  0.1168 -0.0140 -0.2310
 1279ERGO    C214252   3.169  14.015   7.597 -0.1928 -0.1340  0.2244
 1280ERGO   ROH14253   3.171   0.879   6.504 -0.0948 -0.0332  0.0163
 1280ERGO    R114254   3.314   0.825   6.743 -0.2290 -0.1668  0.0665
 1280ERGO    R214255   3.429   1.023   6.896 -0.0450 -0.2799  0.0692
 1280ERGO    R314256   3.283   0.910   7.095 -0.2347 -0.0826  0.0474
 1280ERGO    R414257   3.407   1.146   7.219  0.3308 -0.4045  0.1473
 1280ERGO    R514258   3.417   0.940   7.292 -0.0917 -0.4835  0.0256
 1280ERGO    C114259   3.257   1.111   7.593  0.3716 -0.2919  0.1723
 1280ERGO    C214260   3.296   1.189   7.915  0.3016  0.2179 -0.1195
 1281ERGO   ROH14261  17.670  13.692   6.735  0.0119 -0.1923  0.0899
 1281ERGO    R114262  17.680  13.792   7.000  0.0327 -0.2091  0.0968
 1281ERGO    R214263  17.456  13.881   7.135  0.0656 -0.0438  0.0581
 1281ERGO    R314264  17.538  13.702   7.323 -0.1028 -0.1175  0.0607
 1281ERGO    R414265  17.384  13.903   7.472  0.1130  0.0338  0.0625
 1281ERGO    R514266  17.587  13.837   7.515  0.0442 -0.1673  0.0519
 1281ERGO    C114267  17.419  13.747   7.845 -0.0178  0.0098  0.0675
 1281ERGO    C214268  17.038  13.782   8.054  0.0664  0.1476  0.2137
 1282ERGO   ROH14269  17.018  14.970   6.325 -0.0575  0.3230  0.0114
 1282ERGO    R114270  17.111  15.012   6.589 -0.0862  0.1509  0.0494
 1282ERGO    R214271  17.054  14.838   6.795 -0.0193 -0.0395 -0.0939
 1282ERGO    R314272  17.325  14.835   6.825 -0.0191  0.0534 -0.0816
 1282ERGO    R414273  17.220  14.826   7.099 -0.0377 -0.0260 -0.0832
 1282ERGO    R514274  17.365  14.969   7.019 -0.0819  0.0412 -0.0563
 1282ERGO    C114275  17.570  14.818   7.303 -0.0482  0.0690 -0.0654
 1282ERGO    C214276  17.887  14.760   7.451 -0.0717  0.0153  0.0011
 1283ERGO   ROH14277   0.251   1.915   6.652  0.4371 -0.1812  0.3109
 1283ERGO    R114278   0.282   1.967   6.929  0.1264 -0.1578  0.3445
 1283ERGO    R214279   0.192   2.199   7.048  0.1673 -0.0613  0.1837
 1283ERGO    R314280   0.063   2.026   7.213 -0.1921  0.0785  0.0591
 1283ERGO    R414281   0.132   2.255   7.383 -0.0281 -0.0228  0.1437
 1283ERGO    R514282   0.180   2.045   7.422 -0.3273 -0.0969  0.1577
 1283ERGO    C114283  -0.024   2.126   7.734 -0.4791  0.1309  0.0036
 1283ERGO    C214284  -0.065   2.221   8.098  0.2623 -0.2122 -0.1023
 1284ERGO   ROH14285  15.496   1.287   6.814 -0.0847 -0.0195  0.0142
 1284ERGO    R114286  15.603   1.279   7.076 -0.0447  0.0173 -0.0031
 1284ERGO    R214287  15.485   1.410   7.289 -0.0606 -0.0336  0.0072
 1284ERGO    R314288  15.493   1.163   7.403  0.0512 -0.0289  0.0159
 1284ERGO    R414289  15.523   1.350   7.628 -0.4008  0.0230  0.0597
 1284ERGO    R514290  15.655   1.184   7.579 -0.1668  0.1465  0.2129
 1284ERGO    C114291  15.551   1.084   7.932 -0.4939  0.0604  0.0985
 1284ERGO    C214292  15.632   1.079   8.211  0.1022 -0.1344 -0.1015
 1285ERGO   ROH14293  12.949  10.888   6.963 -0.0778 -0.1852 -0.1889
 1285ERGO    R114294  12.969  10.935   7.242  0.1435 -0.0675 -0.2212
 1285ERGO    R214295  12.919  11.182   7.355  0.0898 -0.0523 -0.2708
 1285ERGO    R314296  12.745  11.041   7.508  0.3131 -0.1075 -0.0617
 1285ERGO    R414297  12.778  11.297   7.649 -0.0561  0.1426 -0.4148
 1285ERGO    R514298  12.805  11.097   7.733  0.2515  0.2937 -0.1401
 1285ERGO    C114299  12.532  11.232   7.964  0.0687  0.2043 -0.3022
 1285ERGO    C214300  12.285  11.192   8.181  0.0265 -0.0297 -0.2318
 1286ERGO   ROH14301   7.455  10.478   9.546  0.0446  0.1302 -0.1295
 1286ERGO    R114302   7.293  10.303   9.393 -0.1919  0.2194  0.0134
 1286ERGO    R214303   7.063  10.386   9.264  0.0262  0.4782 -0.2195
 1286ERGO    R314304   7.184  10.278   9.047 -0.0425 -0.0321 -0.0184
 1286ERGO    R414305   6.906  10.322   8.963  0.0931  0.4675 -0.2524
 1286ERGO    R514306   7.018  10.135   8.951 -0.2872  0.2055  0.0374
 1286ERGO    C114307   6.929  10.182   8.584  0.0674 -0.0178 -0.0829
 1286ERGO    C214308   7.053  10.117   8.222 -0.2029  0.2067  0.2157
 1287ERGO   ROH14309   5.866   8.147   6.708 -0.0241  0.2831 -0.1282
 1287ERGO    R114310   6.056   8.144   6.917 -0.0358  0.1291 -0.1182
 1287ERGO    R214311   6.143   8.374   7.043  0.0604  0.0507 -0.0358
 1287ERGO    R314312   6.066   8.241   7.268 -0.0118  0.0086 -0.0852
 1287ERGO    R414313   6.228   8.466   7.365 -0.0399 -0.0144  0.0095
 1287ERGO    R514314   6.257   8.255   7.413 -0.0582 -0.0226 -0.0225
 1287ERGO    C114315   6.206   8.395   7.764 -0.1661 -0.0917 -0.0105
 1287ERGO    C214316   6.353   8.587   8.005 -0.0416 -0.2050 -0.0965
 1288ERGO   ROH14317  14.647   7.712   6.872  0.0354 -0.1511 -0.1146
 1288ERGO    R114318  14.541   7.634   7.123 -0.0368 -0.0472 -0.1121
 1288ERGO    R214319  14.651   7.430   7.273 -0.1358 -0.0446 -0.0394
 1288ERGO    R314320  14.660   7.621   7.467 -0.1037  0.0024 -0.0861
 1288ERGO    R414321  14.559   7.381   7.603  0.1099 -0.0273  0.0343
 1288ERGO    R514322  14.466   7.578   7.601  0.0044 -0.0730  0.0535
 1288ERGO    C114323  14.513   7.532   7.976  0.2832  0.0268  0.0334
 1288ERGO    C214324  14.584   7.362   8.202  0.0643  0.0397  0.2184
 1289ERGO   ROH14325  14.424   0.339   6.705 -0.1028  0.2244 -0.0261
 1289ERGO    R114326  14.347   0.484   6.936  0.1152  0.1217  0.1129
 1289ERGO    R214327  14.121   0.423   7.082  0.0182  0.3251  0.0447
 1289ERGO    R314328  14.297   0.411   7.289 -0.0004 -0.1425  0.0452
 1289ERGO    R414329  14.034   0.435   7.416  0.0301  0.4069  0.0456
 1289ERGO    R514330  14.207   0.562   7.452  0.3282  0.0139  0.0940
 1289ERGO    C114331  14.148   0.430   7.805  0.0196  0.0156  0.0467
 1289ERGO    C214332  14.193   0.555   8.166  0.1062 -0.2471  0.1350
 1290ERGO   ROH14333   6.523   9.690   6.530 -0.1704  0.0392  0.0233
 1290ERGO    R114334   6.679   9.671   6.766 -0.1459 -0.1170 -0.0032
 1290ERGO    R214335   6.766   9.894   6.904  0.1858 -0.1972 -0.0697
 1290ERGO    R314336   6.644   9.772   7.114  0.0558  0.0139 -0.0201
 1290ERGO    R414337   6.822   9.969   7.237  0.3099 -0.1717 -0.0958
 1290ERGO    R514338   6.814   9.756   7.282  0.0518 -0.1484 -0.0337
 1290ERGO    C114339   6.739   9.898   7.628  0.2603  0.0414 -0.0645
 1290ERGO    C214340   6.767  10.060   7.811 -0.0587 -0.0756 -0.0237
 1291ERGO   ROH14341  14.357  16.753   6.525 -0.3678  0.0798  0.0589
 1291ERGO    R114342  14.415  16.895   6.763 -0.1182 -0.0855  0.0997
 1291ERGO    R214343  14.219  17.019   6.914  0.0841  0.1177  0.1919
 1291ERGO    R314344  14.325  16.870   7.115 -0.0632 -0.0974  0.1146
 1291ERGO    R414345  14.111  17.025   7.242  0.1663  0.1556  0.2195
 1291ERGO    R514346  14.319  17.014   7.305  0.1770 -0.1464  0.1669
 1291ERGO    C114347  14.147  16.888   7.621  0.0758 -0.0241  0.1631
 1291ERGO    C214348  14.003  16.919   7.839 -0.3242  0.0298 -0.0798
 1292ERGO   ROH14349   6.834   9.360   6.497 -0.0563  0.0482  0.0719
 1292ERGO    R114350   7.023   9.352   6.707  0.0121  0.1300  0.0148
 1292ERGO    R214351   7.143   9.580   6.808 -0.1679  0.2004  0.0799
 1292ERGO    R314352   7.049   9.486   7.045 -0.0177  0.0072  0.0656
 1292ERGO    R414353   7.237   9.697   7.119  0.0830 -0.1065  0.1252
 1292ERGO    R514354   7.237   9.492   7.191  0.0888 -0.1722 -0.0625
 1292ERGO    C114355   7.202   9.677   7.523  0.3702 -0.4666  0.1382
 1292ERGO    C214356   7.241   9.895   7.809 -0.1239  0.3969 -0.0107
 1293ERGO   ROH14357   8.890   8.721   6.784  0.0330  0.1027  0.0851
 1293ERGO    R114358   8.980   8.718   7.052  0.0736 -0.0355  0.0718
 1293ERGO    R214359   8.863   8.870   7.250  0.2279  0.0195  0.1319
 1293ERGO    R314360   8.840   8.631   7.377  0.0478  0.0028  0.0686
 1293ERGO    R414361   8.785   8.831   7.585 -0.2215 -0.0425  0.0261
 1293ERGO    R514362   8.933   8.670   7.595 -0.2448 -0.0433  0.1992
 1293ERGO    C114363   8.719   8.583   7.899 -0.6524 -0.0941 -0.0949
 1293ERGO    C214364   8.623   8.695   8.190 -0.1323  0.0069 -0.1581
 1294ERGO   ROH14365  11.471   4.601   6.911  0.2235 -0.0779  0.1957
 1294ERGO    R114366  11.571   4.730   7.143  0.1760 -0.0328  0.1912
 1294ERGO    R214367  11.408   4.868   7.318  0.1399 -0.0119  0.1406
 1294ERGO    R314368  11.520   4.703   7.502  0.1162  0.0278  0.1868
 1294ERGO    R414369  11.440   4.941   7.654 -0.1194 -0.0402  0.1739
 1294ERGO    R514370  11.638   4.850   7.650 -0.0642  0.0757  0.2865
 1294ERGO    C114371  11.564   4.828   8.023 -0.2928 -0.0194  0.2367
 1294ERGO    C214372  11.566   4.783   8.508  0.4128 -0.0844  0.2268
 1295ERGO   ROH14373   6.917   7.205   6.555  0.2949  0.0325 -0.1949
 1295ERGO    R114374   6.808   7.300   6.799  0.0929  0.0381 -0.2859
 1295ERGO    R214375   6.926   7.250   7.044 -0.1075  0.0468 -0.1893
 1295ERGO    R314376   6.915   7.520   7.068 -0.1318  0.0487 -0.2014
 1295ERGO    R414377   7.000   7.426   7.332 -0.1580  0.0601 -0.1839
 1295ERGO    R514378   6.831   7.557   7.289 -0.1655  0.0478 -0.2113
 1295ERGO    C114379   7.032   7.783   7.522 -0.2103  0.0696 -0.1921
 1295ERGO    C214380   7.035   7.882   7.776  0.2044 -0.0473 -0.1275
 1296ERGO   ROH14381   4.462  16.094   6.418 -0.1611 -0.0233  0.0627
 1296ERGO    R114382   4.556  16.056   6.682 -0.0585  0.1611  0.0531
 1296ERGO    R214383   4.509  16.238   6.885 -0.2825  0.1326  0.0199
 1296ERGO    R314384   4.408  16.021   7.013  0.0509  0.0117  0.0898
 1296ERGO    R414385   4.539  16.178   7.224 -0.2977  0.3738  0.0668
 1296ERGO    R514386   4.573  15.968   7.178  0.0978  0.3961  0.1861
 1296ERGO    C114387   4.461  15.939   7.541  0.0065  0.4009  0.1597
 1296ERGO    C214388   4.409  15.712   7.707  0.1967  0.1428 -0.1614
 1297ERGO   ROH14389   9.165  12.287   6.516  0.0031  0.2051  0.0391
 1297ERGO    R114390   9.273  12.305   6.777 -0.0355  0.3712  0.0442
 1297ERGO    R214391   9.172  12.477   6.968 -0.4374  0.0900  0.0968
 1297ERGO    R314392   9.153  12.250   7.117  0.0794 -0.0104  0.0285
 1297ERGO    R414393   9.173  12.467   7.314 -0.4602 -0.0058  0.0947
 1297ERGO    R514394   9.299  12.289   7.303 -0.0291  0.2850  0.0586
 1297ERGO    C114395   9.157  12.247   7.654  0.0117 -0.1558  0.0292
 1297ERGO    C214396   9.026  12.376   7.986 -0.0354  0.0478  0.3064
 1298ERGO   ROH14397  10.540  16.258   6.295 -0.0184 -0.0330 -0.0913
 1298ERGO    R114398  10.636  16.264   6.561  0.0057 -0.0012 -0.0994
 1298ERGO    R214399  10.560  16.460   6.742  0.0522  0.0473 -0.1238
 1298ERGO    R314400  10.490  16.246   6.894  0.0277  0.0827 -0.0867
 1298ERGO    R414401  10.582  16.445   7.087 -0.3773  0.2616 -0.0810
 1298ERGO    R514402  10.652  16.240   7.069 -0.1929  0.3090  0.1281
 1298ERGO    C114403  10.529  16.235   7.430 -0.6502  0.4195 -0.0213
 1298ERGO    C214404  10.604  16.366   7.741 -0.0822 -0.1324 -0.0542
 1299ERGO   ROH14405   7.534   2.617   6.594 -0.0045 -0.1490  0.0621
 1299ERGO    R114406   7.427   2.469   6.810 -0.1050 -0.0660  0.0697
 1299ERGO    R214407   7.584   2.318   6.979 -0.2244 -0.3010 -0.0265
 1299ERGO    R314408   7.463   2.466   7.172  0.0335 -0.1922  0.0561
 1299ERGO    R414409   7.612   2.259   7.319 -0.3631 -0.5772 -0.0604
 1299ERGO    R514410   7.399   2.306   7.339 -0.2859 -0.1876 -0.0542
 1299ERGO    C114411   7.514   2.364   7.698 -0.2016 -0.6359 -0.0026
 1299ERGO    C214412   7.722   2.400   7.975 -0.1332 -0.2703  0.0099
 1300ERGO   ROH14413  15.753  11.114   7.007 -0.0099 -0.2818 -0.0843
 1300ERGO    R114414  15.675  10.966   7.235  0.1508 -0.3252 -0.0568
 1300ERGO    R214415  15.856  10.822   7.388  0.3434  0.0476  0.0775
 1300ERGO    R314416  15.752  10.970   7.591 -0.0001 -0.0440 -0.0237
 1300ERGO    R414417  15.810  10.710   7.711  0.1694  0.0185  0.0440
 1300ERGO    R514418  15.620  10.815   7.716  0.0472 -0.1798 -0.1353
 1300ERGO    C114419  15.686  10.783   8.091 -0.2543 -0.0842 -0.0706
 1300ERGO    C214420  15.620  10.604   8.414  0.0182  0.0640  0.0686
 1301ERGO   ROH14421   5.447   9.241   6.861  0.0451 -0.0294 -0.0863
 1301ERGO    R114422   5.375   9.155   7.121 -0.0420  0.0926 -0.0700
 1301ERGO    R214423   5.561   9.064   7.305 -0.1321 -0.0151 -0.0372
 1301ERGO    R314424   5.451   9.255   7.463  0.0163  0.1104 -0.0879
 1301ERGO    R414425   5.561   9.058   7.650 -0.4118 -0.0964 -0.0353
 1301ERGO    R514426   5.356   9.133   7.647 -0.3062  0.2002 -0.1854
 1301ERGO    C114427   5.458   9.234   8.000 -0.4354 -0.0261 -0.0819
 1301ERGO    C214428   5.475   9.204   8.316  0.0098 -0.1292  0.0014
 1302ERGO   ROH14429   9.814   1.327   6.865 -0.1723  0.0077 -0.0442
 1302ERGO    R114430   9.649   1.447   7.061 -0.0918 -0.0287  0.0463
 1302ERGO    R214431   9.556   1.308   7.281 -0.0156 -0.0745  0.0490
 1302ERGO    R314432   9.668   1.514   7.418  0.0466 -0.1121  0.0552
 1302ERGO    R414433   9.391   1.504   7.513  0.0560 -0.0629  0.0903
 1302ERGO    R514434   9.495   1.678   7.432  0.0828 -0.0762  0.0941
 1302ERGO    C114435   9.402   1.812   7.777  0.1560 -0.0914  0.1202
 1302ERGO    C214436   9.396   2.163   7.870  0.0737  0.0324  0.0167
 1303ERGO   ROH14437   6.942   3.314   6.403  0.1525 -0.1543 -0.0162
 1303ERGO    R114438   6.817   3.363   6.653  0.1554 -0.1014 -0.0245
 1303ERGO    R214439   6.621   3.197   6.756  0.0449  0.0013 -0.0555
 1303ERGO    R314440   6.787   3.190   6.971  0.0247 -0.1121 -0.0441
 1303ERGO    R414441   6.571   3.004   7.038  0.0835 -0.2196 -0.1978
 1303ERGO    R514442   6.640   3.171   7.159  0.0213 -0.2947 -0.0697
 1303ERGO    C114443   6.697   2.884   7.404  0.0869 -0.4547 -0.2700
 1303ERGO    C214444   6.813   2.619   7.425 -0.0767 -0.1267  0.1453
 1304ERGO   ROH14445   1.951   9.546   6.616  0.0466  0.1466  0.1058
 1304ERGO    R114446   1.794   9.534   6.851  0.1084  0.0592  0.1435
 1304ERGO    R214447   1.738   9.297   6.981  0.1167  0.0066  0.0518
 1304ERGO    R314448   1.840   9.428   7.196  0.1893 -0.1017  0.0843
 1304ERGO    R414449   1.719   9.185   7.308  0.0950 -0.0844  0.0198
 1304ERGO    R514450   1.680   9.390   7.370  0.1868 -0.0865  0.0852
 1304ERGO    C114451   1.805   9.243   7.699  0.1505 -0.2390  0.0316
 1304ERGO    C214452   1.877   8.949   7.867  0.0519  0.0781  0.0408
 1305ERGO   ROH14453   0.474   9.050   6.544 -0.3613 -0.0940 -0.0557
 1305ERGO    R114454   0.476   9.130   6.816 -0.2838 -0.1056 -0.0521
 1305ERGO    R214455   0.298   9.029   7.002 -0.1936 -0.1590  0.0094
 1305ERGO    R314456   0.525   8.968   7.138 -0.1281 -0.1091 -0.0777
 1305ERGO    R414457   0.322   9.003   7.346 -0.0308 -0.0644  0.0058
 1305ERGO    R514458   0.514   9.104   7.336 -0.0427 -0.0578 -0.1100
 1305ERGO    C114459   0.549   8.931   7.674  0.1254  0.0375 -0.0780
 1305ERGO    C214460   0.732   8.609   7.815 -0.1297  0.1874 -0.0257
 1306ERGO   ROH14461  10.203   4.287   7.046  0.1337  0.0665  0.0049
 1306ERGO    R114462  10.294   4.174   7.289  0.0549  0.0426  0.0241
 1306ERGO    R214463  10.310   4.320   7.524  0.0834  0.0526  0.0170
 1306ERGO    R314464  10.157   4.118   7.622 -0.0160  0.1194  0.0092
 1306ERGO    R414465  10.258   4.255   7.859  0.1309  0.0101  0.0161
 1306ERGO    R514466  10.275   4.042   7.816 -0.0077  0.0050 -0.0369
 1306ERGO    C114467  10.085   4.027   8.146  0.0653  0.0481  0.0082
 1306ERGO    C214468   9.923   4.055   8.469  0.1931 -0.0382  0.3561
 1307ERGO   ROH14469   8.545   4.324   7.232  0.0950  0.3135  0.0747
 1307ERGO    R114470   8.687   4.192   7.439 -0.0638 -0.0365 -0.0344
 1307ERGO    R214471   8.757   4.317   7.675  0.1915 -0.2840  0.0209
 1307ERGO    R314472   8.628   4.106   7.787 -0.1177 -0.1505 -0.0701
 1307ERGO    R414473   8.693   4.283   8.012  0.2144 -0.3690  0.0184
 1307ERGO    R514474   8.742   4.071   7.995 -0.1197 -0.4453 -0.1115
 1307ERGO    C114475   8.534   4.066   8.315 -0.0626 -0.2933 -0.0685
 1307ERGO    C214476   8.400   4.179   8.693  0.0574 -0.2809  0.0310
 1308ERGO   ROH14477   5.172  15.318   6.241  0.0999  0.1610  0.0206
 1308ERGO    R114478   5.136  15.173   6.481  0.1387  0.0835 -0.0208
 1308ERGO    R214479   4.981  14.944   6.495  0.1074  0.1038 -0.0615
 1308ERGO    R314480   5.208  14.836   6.600  0.1170  0.0309 -0.1547
 1308ERGO    R414481   4.989  14.709   6.748  0.1353  0.0915 -0.0731
 1308ERGO    R514482   5.160  14.813   6.833  0.2018  0.0368 -0.1359
 1308ERGO    C114483   5.206  14.470   6.994  0.1605  0.0157 -0.1676
 1308ERGO    C214484   5.097  14.119   7.177 -0.2147  0.0350 -0.0400
 1309ERGO   ROH14485  12.787   6.355   7.507  0.0451  0.0463 -0.0211
 1309ERGO    R114486  12.846   6.425   7.774  0.0898  0.0539 -0.0329
 1309ERGO    R214487  13.076   6.561   7.845  0.0617  0.1305 -0.0864
 1309ERGO    R314488  12.901   6.734   7.960  0.0311  0.0643 -0.0329
 1309ERGO    R414489  13.166   6.833   8.038  0.0207  0.2345 -0.2131
 1309ERGO    R514490  13.000   6.787   8.172  0.1239  0.1782 -0.1042
 1309ERGO    C114491  13.053   7.154   8.258 -0.0318  0.2329 -0.2366
 1309ERGO    C214492  13.200   7.325   8.347  0.4155 -0.0444  0.0061
 1310ERGO   ROH14493   5.203  13.813   5.737  0.0543 -0.0416 -0.0432
 1310ERGO    R114494   5.237  13.742   6.008 -0.1904 -0.0075 -0.0027
 1310ERGO    R214495   5.471  13.789   6.146 -0.2040 -0.2781  0.1070
 1310ERGO    R314496   5.305  13.915   6.321 -0.1327 -0.0058 -0.0140
 1310ERGO    R414497   5.549  13.861   6.475 -0.1766 -0.0615  0.0561
 1310ERGO    R514498   5.345  13.805   6.530 -0.2310  0.1328  0.0854
 1310ERGO    C114499   5.439  14.020   6.831 -0.0938  0.3203 -0.0872
 1310ERGO    C214500   5.599  14.171   7.160  0.0805 -0.5025  0.3256
 1311ERGO   ROH14501   9.831   3.419   6.919  0.2149 -0.1794 -0.1849
 1311ERGO    R114502   9.929   3.235   7.110  0.1435 -0.0779 -0.0523
 1311ERGO    R214503  10.029   3.315   7.355 -0.1445  0.0338  0.0210
 1311ERGO    R314504   9.845   3.139   7.451 -0.1227 -0.0635 -0.1080
 1311ERGO    R414505  10.026   3.189   7.677 -0.2565  0.0029  0.0099
 1311ERGO    R514506   9.971   2.994   7.595 -0.1232 -0.0229 -0.0516
 1311ERGO    C114507   9.852   2.950   7.954 -0.3012 -0.1064 -0.1176
 1311ERGO    C214508   9.797   3.009   8.341 -0.0449  0.1118 -0.0449
 1312ERGO   ROH14509  10.526  17.631   6.455 -0.1682  0.1382  0.1021
 1312ERGO    R114510  10.591  17.676   6.727 -0.0942  0.0443  0.0985
 1312ERGO    R214511  10.434  17.830   6.895  0.0059  0.0630  0.1635
 1312ERGO    R314512  10.439  17.607   7.051 -0.0519  0.0260  0.1167
 1312ERGO    R414513  10.316  17.813   7.219 -0.3121 -0.0567  0.0478
 1312ERGO    R514514  10.488  17.690   7.270 -0.3019  0.0029  0.1895
 1312ERGO    C114515  10.253  17.595   7.554 -0.5515 -0.1610 -0.0636
 1312ERGO    C214516  10.094  17.378   7.618  0.1295  0.1716  0.1275
 1313ERGO   ROH14517   7.982   8.845   6.814  0.2598  0.2624 -0.0042
 1313ERGO    R114518   7.961   8.762   7.084  0.2451  0.1549 -0.0383
 1313ERGO    R214519   7.991   8.937   7.296  0.0815  0.0997  0.0290
 1313ERGO    R314520   7.748   8.839   7.369  0.1250 -0.0807 -0.0623
 1313ERGO    R414521   7.861   8.949   7.616 -0.0861  0.0916 -0.0373
 1313ERGO    R514522   7.784   8.747   7.587  0.0957  0.0159 -0.0149
 1313ERGO    C114523   7.557   8.863   7.871 -0.1429 -0.0823 -0.1616
 1313ERGO    C214524   7.331   8.909   8.247 -0.1712 -0.1796  0.1571
 1314ERGO   ROH14525  16.586   8.076   6.653  0.1397 -0.2070  0.0064
 1314ERGO    R114526  16.708   7.994   6.895  0.4364 -0.0496 -0.0845
 1314ERGO    R214527  16.981   7.996   6.932  0.4615  0.5887 -0.1943
 1314ERGO    R314528  16.918   8.146   7.150  0.1798  0.3291 -0.0896
 1314ERGO    R414529  17.153   7.990   7.232  0.3353  0.5449 -0.1218
 1314ERGO    R514530  16.961   8.001   7.336  0.2726  0.2215 -0.1934
 1314ERGO    C114531  17.193   8.128   7.612 -0.0028  0.2757  0.0185
 1314ERGO    C214532  17.302   8.102   7.878  0.0548  0.1429  0.2947
 1315ERGO   ROH14533   2.333   9.253   6.617  0.0271  0.2141  0.0016
 1315ERGO    R114534   2.189   9.265   6.860 -0.1178 -0.0672 -0.0649
 1315ERGO    R214535   2.195   9.062   7.048  0.2396 -0.0403 -0.0380
 1315ERGO    R314536   2.269   9.263   7.215 -0.2686  0.1524 -0.0280
 1315ERGO    R414537   2.234   9.030   7.390  0.4047  0.0178 -0.0506
 1315ERGO    R514538   2.140   9.225   7.414 -0.1307 -0.2287 -0.0047
 1315ERGO    C114539   2.326   9.200   7.746  0.0237  0.2326 -0.0486
 1315ERGO    C214540   2.444   9.246   8.079  0.2075 -0.0045  0.3003
 1316ERGO   ROH14541   3.352   0.406   6.433  0.0609 -0.1334  0.0467
 1316ERGO    R114542   3.323   0.317   6.701  0.2456 -0.0673  0.0904
 1316ERGO    R214543   3.486   0.406   6.906  0.1399  0.2879  0.0284
 1316ERGO    R314544   3.249   0.470   7.023  0.0493 -0.0418  0.0347
 1316ERGO    R414545   3.446   0.491   7.238 -0.0032  0.0552  0.0729
 1316ERGO    R514546   3.263   0.374   7.241  0.1249 -0.1526 -0.0179
 1316ERGO    C114547   3.200   0.600   7.542 -0.1716 -0.3898  0.1047
 1316ERGO    C214548   3.118   0.652   7.816 -0.0467  0.2685  0.0208
 1317ERGO   ROH14549   9.604  17.148   6.240 -0.0386  0.3596  0.0482
 1317ERGO    R114550   9.499  17.250   6.482  0.0422  0.1278  0.1844
 1317ERGO    R214551   9.442  17.089   6.699  0.2555 -0.0625  0.1051
 1317ERGO    R314552   9.604  17.264   6.830  0.2347 -0.0670  0.1357
 1317ERGO    R414553   9.400  17.192   7.026  0.0898  0.0843  0.0383
 1317ERGO    R514554   9.455  17.393   6.965  0.1967  0.0392 -0.0077
 1317ERGO    C114555   9.526  17.417   7.339 -0.0263  0.1657  0.0281
 1317ERGO    C214556   9.472  17.547   7.687 -0.1856 -0.3250  0.2589
 1318ERGO   ROH14557  18.181  16.533   6.374  0.0418 -0.0708  0.0127
 1318ERGO    R114558  17.989  16.577   6.578  0.2497 -0.0504  0.2084
 1318ERGO    R214559  17.749  16.440   6.588 -0.0420  0.4297  0.0670
 1318ERGO    R314560  17.831  16.380   6.840 -0.0143 -0.2370 -0.0825
 1318ERGO    R414561  17.539  16.389   6.858  0.0001  0.4360  0.1014
 1318ERGO    R514562  17.680  16.499   6.982  0.3541 -0.1217  0.2309
 1318ERGO    C114563  17.494  16.303   7.251  0.0505 -0.1861 -0.0190
 1318ERGO    C214564  17.339  16.182   7.386  0.0714 -0.2891 -0.1824
 1319ERGO   ROH14565   2.079   3.294   6.941 -0.1183  0.0040  0.0724
 1319ERGO    R114566   2.101   3.404   7.201  0.0187 -0.0475  0.0834
 1319ERGO    R214567   1.907   3.367   7.395  0.0575  0.0239  0.1375
 1319ERGO    R314568   2.117   3.275   7.542  0.0555 -0.1096  0.0580
 1319ERGO    R414569   1.916   3.351   7.740  0.2766  0.2644  0.1463
 1319ERGO    R514570   2.123   3.418   7.734  0.3512  0.0250 -0.0460
 1319ERGO    C114571   2.118   3.255   8.079  0.4023  0.2790  0.0768
 1319ERGO    C214572   2.380   3.187   8.232  0.0995 -0.0991 -0.0933
 1320ERGO   ROH14573  13.211   0.943   6.654 -0.0576 -0.1259 -0.0230
 1320ERGO    R114574  13.088   0.900   6.906 -0.0015 -0.1048  0.0086
 1320ERGO    R214575  13.227   0.807   7.126  0.0858  0.0759  0.0333
 1320ERGO    R314576  13.125   1.030   7.244 -0.0476  0.0587 -0.0485
 1320ERGO    R414577  13.195   0.853   7.467 -0.0807  0.1236  0.0115
 1320ERGO    R514578  13.001   0.947   7.431 -0.0988  0.0465 -0.0888
 1320ERGO    C114579  13.080   1.089   7.776 -0.3028  0.1352 -0.0779
 1320ERGO    C214580  13.296   1.250   7.941 -0.1843  0.1209 -0.1682
 1321ERGO   ROH14581   2.255  17.953   6.365  0.0877 -0.2130 -0.1003
 1321ERGO    R114582   2.459  17.931   6.560  0.0916 -0.1086 -0.0890
 1321ERGO    R214583   2.407  17.948   6.832  0.1103  0.1810 -0.0900
 1321ERGO    R314584   2.536  17.709   6.837  0.0037  0.1241  0.1246
 1321ERGO    R414585   2.554  17.809   7.112 -0.0145  0.3247  0.0463
 1321ERGO    R514586   2.720  17.744   6.987 -0.0161  0.1530  0.1363
 1321ERGO    C114587   2.761  17.504   7.281 -0.1872  0.3554  0.3271
 1321ERGO    C214588   2.846  17.275   7.596  0.1385  0.2492 -0.0719
 1322ERGO   ROH14589  11.759   6.166   6.873 -0.0640  0.1994 -0.0415
 1322ERGO    R114590  11.817   6.181   7.150  0.0139  0.1808 -0.0557
 1322ERGO    R214591  11.619   6.191   7.342  0.0655  0.1323  0.0056
 1322ERGO    R314592  11.753   5.977   7.444  0.1280  0.1410 -0.0593
 1322ERGO    R414593  11.620   6.099   7.676  0.0418 -0.0130 -0.0342
 1322ERGO    R514594  11.832   6.053   7.657  0.0595  0.0773 -0.0139
 1322ERGO    C114595  11.747   5.845   7.965  0.0867 -0.0895 -0.1183
 1322ERGO    C214596  11.646   5.654   8.363  0.0215  0.0868 -0.1311
 1323ERGO   ROH14597   8.869   3.091   7.010  0.0172 -0.2763  0.0812
 1323ERGO    R114598   8.956   3.026   7.272  0.0812 -0.0881  0.1077
 1323ERGO    R214599   9.062   3.213   7.444 -0.1285  0.0910  0.0434
 1323ERGO    R314600   8.869   3.122   7.612 -0.0351 -0.0612  0.0712
 1323ERGO    R414601   9.056   3.268   7.785 -0.1058  0.0639  0.0486
 1323ERGO    R514602   8.987   3.062   7.811  0.0460  0.0095  0.0468
 1323ERGO    C114603   8.870   3.214   8.141 -0.0050 -0.0949  0.0777
 1323ERGO    C214604   8.771   3.300   8.413  0.2337  0.1467  0.1261
 1324ERGO   ROH14605   8.396  16.048   6.134 -0.0637  0.0486 -0.0806
 1324ERGO    R114606   8.356  16.136   6.400 -0.1436  0.0942 -0.1073
 1324ERGO    R214607   8.131  16.069   6.547 -0.0248 -0.1802 -0.0432
 1324ERGO    R314608   8.314  15.980   6.726  0.1429  0.1540 -0.0389
 1324ERGO    R414609   8.106  16.105   6.890 -0.0817 -0.1963 -0.0455
 1324ERGO    R514610   8.319  16.148   6.896 -0.1510  0.1818 -0.0524
 1324ERGO    C114611   8.263  16.041   7.258  0.0428  0.1079 -0.0427
 1324ERGO    C214612   8.352  15.876   7.578 -0.2830 -0.0396 -0.2593
 1325ERGO   ROH14613   8.030   4.044   6.601  0.0206  0.1003 -0.0022
 1325ERGO    R114614   8.105   3.893   6.828 -0.2789  0.0106  0.0392
 1325ERGO    R214615   8.312   3.968   6.995 -0.1259 -0.3530  0.0111
 1325ERGO    R314616   8.121   3.947   7.188 -0.1710  0.0787  0.0257
 1325ERGO    R414617   8.375   3.921   7.332 -0.2030 -0.5037  0.0071
 1325ERGO    R514618   8.207   3.782   7.339 -0.5290 -0.1298  0.0170
 1325ERGO    C114619   8.233   3.874   7.708 -0.2901 -0.1862  0.0185
 1325ERGO    C214620   8.086   3.895   8.082 -0.2080  0.1550  0.5137
 1326ERGO   ROH14621  18.227   4.153   6.548  0.2885 -0.1384  0.0805
 1326ERGO    R114622  18.214   4.305   6.787  0.4873  0.0528 -0.0275
 1326ERGO    R214623  18.051   4.236   6.999  0.1724  0.5701 -0.0846
 1326ERGO    R314624  18.283   4.250   7.140  0.1243  0.1109  0.0569
 1326ERGO    R414625  18.073   4.276   7.341  0.0396  0.6449 -0.0844
 1326ERGO    R514626  18.240   4.412   7.310  0.3665  0.2742 -0.0305
 1326ERGO    C114627  18.303   4.313   7.673 -0.0826  0.2574  0.0485
 1326ERGO    C214628  18.191   4.152   7.932  0.0140  0.0050 -0.1786
 1327ERGO   ROH14629  17.976   1.177   6.883 -0.1153  0.0236  0.1822
 1327ERGO    R114630  17.895   1.030   7.111  0.0365 -0.2060  0.0921
 1327ERGO    R214631  18.066   0.864   7.250  0.2896  0.0841  0.1402
 1327ERGO    R314632  17.988   1.014   7.463 -0.1314 -0.1220  0.1416
 1327ERGO    R414633  18.196   0.836   7.569  0.2090  0.2926  0.1925
 1327ERGO    R514634  17.995   0.862   7.648  0.1092 -0.1548  0.1089
 1327ERGO    C114635  18.199   0.961   7.954 -0.2331  0.2205  0.2243
 1327ERGO    C214636  18.321   0.823   8.328 -0.1108  0.0578  0.0154
 1328ERGO   ROH14637   3.649  18.011   6.623  0.1082 -0.2371 -0.0072
 1328ERGO    R114638   3.637  17.921   6.892  0.2990  0.0490  0.1045
 1328ERGO    R214639   3.723  18.076   7.104 -0.0057  0.4893 -0.0637
 1328ERGO    R314640   3.473  18.027   7.198  0.0831  0.0857 -0.0248
 1328ERGO    R414641   3.623  18.120   7.432 -0.0410  0.3298 -0.0544
 1328ERGO    R514642   3.508  17.935   7.417  0.2557  0.1464 -0.0332
 1328ERGO    C114643   3.330  18.100   7.712  0.0218 -0.1422 -0.0124
 1328ERGO    C214644   3.195  18.209   8.028  0.1356 -0.0934 -0.2347
 1329ERGO   ROH14645  13.865  12.679   6.840 -0.1537  0.0264 -0.0841
 1329ERGO    R114646  13.835  12.922   6.982 -0.0741 -0.0487  0.0622
 1329ERGO    R214647  13.607  13.076   6.966  0.0877  0.1803 -0.0753
 1329ERGO    R314648  13.610  13.053   7.237 -0.2265 -0.0257 -0.0825
 1329ERGO    R414649  13.419  13.270   7.182 -0.0715  0.0957 -0.1349
 1329ERGO    R514650  13.592  13.279   7.315 -0.2153 -0.0772  0.0690
 1329ERGO    C114651  13.313  13.361   7.562 -0.4592 -0.1469 -0.1763
 1329ERGO    C214652  13.197  13.471   7.895  0.0614  0.0203  0.0108
 1330ERGO   ROH14653   4.688  10.214   6.537  0.0466  0.0179  0.0356
 1330ERGO    R114654   4.816  10.092   6.757  0.0824  0.0343  0.0248
 1330ERGO    R214655   5.006  10.223   6.911  0.0269  0.0850  0.0549
 1330ERGO    R314656   4.841  10.153   7.115  0.0410 -0.0065  0.0342
 1330ERGO    R414657   5.100  10.205   7.243  0.0065  0.0936  0.0604
 1330ERGO    R514658   4.980  10.024   7.262  0.0842  0.0403  0.0329
 1330ERGO    C114659   5.000  10.129   7.628  0.0079  0.0127  0.0442
 1330ERGO    C214660   4.926  10.415   7.799  0.3012  0.0281 -0.0197
 1331ERGO   ROH14661  10.270  11.131   6.620  0.2691 -0.0352  0.0112
 1331ERGO    R114662  10.126  11.170   6.860  0.0883 -0.0973 -0.0856
 1331ERGO    R214663  10.248  11.184   7.107 -0.0972 -0.1804  0.0144
 1331ERGO    R314664  10.114  11.420   7.125 -0.0938 -0.1759 -0.0181
 1331ERGO    R414665  10.255  11.394   7.381  0.0742 -0.0381 -0.0966
 1331ERGO    R514666  10.041  11.429   7.353  0.0546 -0.0608  0.0253
 1331ERGO    C114667  10.133  11.737   7.558  0.1773  0.0492 -0.1918
 1331ERGO    C214668  10.280  12.032   7.530  0.1301 -0.1616 -0.0385
 1332ERGO   ROH14669   7.215   9.058   6.347 -0.2989  0.0633  0.0759
 1332ERGO    R114670   7.309   8.989   6.605 -0.1536  0.0757  0.0271
 1332ERGO    R214671   7.570   9.035   6.686 -0.1255  0.1421 -0.0980
 1332ERGO    R314672   7.448   9.165   6.891 -0.0607  0.0987 -0.0319
 1332ERGO    R414673   7.727   9.137   6.976 -0.0678 -0.0566 -0.0574
 1332ERGO    R514674   7.551   9.075   7.088 -0.0880 -0.0345 -0.0775
 1332ERGO    C114675   7.704   9.319   7.338  0.0265 -0.2129  0.0282
 1332ERGO    C214676   7.741   9.463   7.601 -0.0863  0.0257  0.3286
 1333ERGO   ROH14677   6.131  11.417   6.351 -0.0613 -0.1420  0.0447
 1333ERGO    R114678   6.129  11.345   6.624 -0.2905  0.0859  0.1080
 1333ERGO    R214679   6.360  11.294   6.766 -0.4245 -0.3028  0.2051
 1333ERGO    R314680   6.259  11.482   6.935 -0.0668  0.0691  0.0220
 1333ERGO    R414681   6.495  11.376   7.074 -0.1834 -0.1304  0.0571
 1333ERGO    R514682   6.292  11.390   7.153 -0.1341  0.2858  0.1229
 1333ERGO    C114683   6.478  11.601   7.411  0.2929  0.3190 -0.2010
 1333ERGO    C214684   6.751  11.623   7.696 -0.0061 -0.3717 -0.0800
 1334ERGO   ROH14685  14.979   1.861   6.531 -0.0270  0.1192 -0.0227
 1334ERGO    R114686  15.124   1.886   6.773  0.0694 -0.1776 -0.0460
 1334ERGO    R214687  15.002   1.946   7.013  0.2227  0.0264 -0.0195
 1334ERGO    R314688  15.128   1.720   7.097 -0.1806 -0.2260 -0.0646
 1334ERGO    R414689  15.026   1.844   7.342  0.3688  0.1361  0.0052
 1334ERGO    R514690  15.232   1.783   7.303  0.2038 -0.3473 -0.2092
 1334ERGO    C114691  15.158   1.572   7.612  0.0753 -0.0370 -0.0227
 1334ERGO    C214692  15.010   1.553   7.863 -0.0964 -0.0935 -0.2215
 1335ERGO   ROH14693  16.652   3.452   6.669  0.0788  0.0769 -0.1914
 1335ERGO    R114694  16.633   3.705   6.795 -0.0331  0.0326 -0.1181
 1335ERGO    R214695  16.393   3.812   6.880 -0.0651 -0.1582  0.0369
 1335ERGO    R314696  16.523   3.832   7.117  0.0476 -0.1271 -0.0264
 1335ERGO    R414697  16.270   3.974   7.159  0.0722 -0.1124  0.0715
 1335ERGO    R514698  16.470   4.052   7.196  0.0923 -0.1136 -0.0337
 1335ERGO    C114699  16.321   4.087   7.545  0.2577 -0.0566  0.0323
 1335ERGO    C214700  16.410   4.173   7.854  0.0197  0.0533  0.1982
 1336ERGO   ROH14701   7.582  15.010   6.196 -0.0243  0.0039 -0.0170
 1336ERGO    R114702   7.530  14.970   6.471 -0.1247  0.0105 -0.0336
 1336ERGO    R214703   7.510  14.718   6.584 -0.1875  0.0095 -0.0361
 1336ERGO    R314704   7.701  14.814   6.752 -0.2357 -0.0040  0.0248
 1336ERGO    R414705   7.500  14.694   6.929 -0.2880  0.0062 -0.0397
 1336ERGO    R514706   7.578  14.897   6.940 -0.2834 -0.0024 -0.0113
 1336ERGO    C114707   7.673  14.770   7.287 -0.3917 -0.0082  0.0154
 1336ERGO    C214708   7.847  14.819   7.634 -0.1479 -0.1211 -0.1810
 1337ERGO   ROH14709  17.348   2.085   6.590 -0.1082  0.2123  0.2754
 1337ERGO    R114710  17.540   2.050   6.795  0.0105  0.0772  0.1447
 1337ERGO    R214711  17.499   2.139   7.053  0.2227  0.0478  0.1922
 1337ERGO    R314712  17.555   1.881   7.117  0.1367  0.0063  0.1016
 1337ERGO    R414713  17.620   2.034   7.359  0.0462 -0.1219  0.2050
 1337ERGO    R514714  17.752   1.895   7.254  0.0697 -0.0991  0.2081
 1337ERGO    C114715  17.743   1.730   7.598 -0.1376 -0.2597  0.1273
 1337ERGO    C214716  17.966   1.437   7.821  0.1041 -0.0438  0.0760
 1338ERGO   ROH14717  16.442   2.173   7.065  0.1710  0.0951  0.0023
 1338ERGO    R114718  16.358   2.192   7.334  0.1973  0.1306  0.0082
 1338ERGO    R214719  16.190   2.005   7.451  0.0489  0.2510 -0.0080
 1338ERGO    R314720  16.389   1.990   7.636  0.0464  0.0657 -0.0187
 1338ERGO    R414721  16.141   1.991   7.793  0.0563  0.3623 -0.0020
 1338ERGO    R514722  16.311   2.126   7.818  0.2053  0.1824 -0.0360
 1338ERGO    C114723  16.299   1.969   8.165  0.0582  0.2532 -0.0084
 1338ERGO    C214724  16.346   1.822   8.378 -0.1011  0.1330  0.0877
 1339ERGO   ROH14725  12.676  14.244   6.597 -0.2336 -0.1250  0.0277
 1339ERGO    R114726  12.479  14.247   6.801 -0.1799 -0.1271  0.0804
 1339ERGO    R214727  12.477  14.065   7.009 -0.0385 -0.0393  0.1638
 1339ERGO    R314728  12.474  14.289   7.162 -0.0978  0.0289  0.0636
 1339ERGO    R414729  12.473  14.068   7.354  0.1030  0.1189  0.1652
 1339ERGO    R514730  12.331  14.234   7.346  0.0102  0.0361  0.1477
 1339ERGO    C114731  12.467  14.280   7.700  0.1296  0.2749  0.0720
 1339ERGO    C214732  12.522  14.365   8.013 -0.2060 -0.0874  0.2111
 1340ERGO   ROH14733   1.102  15.693   6.598 -0.1060  0.1834 -0.1491
 1340ERGO    R114734   1.158  15.778   6.862  0.0855  0.0849 -0.1552
 1340ERGO    R214735   0.960  15.862   7.037  0.2233  0.1589 -0.0245
 1340ERGO    R314736   1.069  15.672   7.198  0.2004  0.0505 -0.1370
 1340ERGO    R414737   0.925  15.850   7.381  0.4124  0.0796 -0.0075
 1340ERGO    R514738   1.134  15.791   7.396  0.3818 -0.0482 -0.1396
 1340ERGO    C114739   1.006  15.664   7.732  0.5009 -0.0684 -0.1031
 1340ERGO    C214740   0.847  15.613   8.080 -0.2008  0.3563  0.2433
 1341ERGO   ROH14741  10.020   7.596   6.968 -0.2797 -0.1151  0.0406
 1341ERGO    R114742   9.916   7.617   7.231 -0.1465  0.0038  0.0836
 1341ERGO    R214743   9.658   7.543   7.296 -0.1227  0.0715  0.2386
 1341ERGO    R314744   9.784   7.390   7.482 -0.0608  0.1243  0.2420
 1341ERGO    R414745   9.502   7.387   7.562 -0.0391  0.1803  0.3535
 1341ERGO    R514746   9.672   7.442   7.687  0.0206  0.2105  0.2702
 1341ERGO    C114747   9.529   7.153   7.892  0.0679  0.2933  0.4237
 1341ERGO    C214748   9.384   7.066   8.261 -0.3880 -0.1992  0.5224
 1342ERGO   ROH14749   1.991   2.823   6.984  0.0136  0.1350  0.1471
 1342ERGO    R114750   2.041   2.904   7.250  0.0508  0.0586  0.1630
 1342ERGO    R214751   1.847   2.901   7.447  0.0409  0.1428  0.1505
 1342ERGO    R314752   2.030   2.751   7.580 -0.0564  0.0095  0.1380
 1342ERGO    R414753   1.874   2.884   7.791  0.1657  0.2735  0.1485
 1342ERGO    R514754   2.091   2.886   7.768  0.1649  0.0367  0.0525
 1342ERGO    C114755   2.062   2.733   8.116  0.1470  0.2244  0.1356
 1342ERGO    C214756   2.083   2.671   8.346  0.2832 -0.2347 -0.0162
 1343W        W14757  12.661  17.356   0.868  0.2183  0.0490 -0.2398
 1344W        W14758   3.100  15.240   0.382  0.3018  0.1424  0.0868
 1345W        W14759  15.037  15.014   4.552 -0.0861  0.0751 -0.0915
 1346W        W14760  17.132   2.417   2.390 -0.0818  0.0872  0.0176
 1347W        W14761  18.047   1.169   3.057  0.1542  0.3290  0.1709
 1348W        W14762   5.461  14.007   4.999 -0.1119  0.0305  0.0744
 1349W        W14763  10.154   8.725   4.039  0.4234  0.2677 -0.0113
 1350W        W14764  16.825   2.920   0.270  0.0671  0.2089 -0.0454
 1351W        W14765  15.515  11.270   3.062  0.0274  0.0998  0.0490
 1352W        W14766   3.852  16.021  10.914  0.1680  0.0611 -0.2816
 1353W        W14767   3.488   7.623  10.200  0.2509 -0.0574 -0.3799
 1354W        W14768  16.540  10.840   1.763 -0.1134  0.0767 -0.1650
 1355W        W14769  13.446   4.734  10.266  0.1877 -0.0224 -0.1074
 1356W        W14770   5.133  10.410  10.143 -0.3009  0.4253 -0.1757
 1357W        W14771   5.810  13.229  16.091  0.0115 -0.0288 -0.1094
 1358W        W14772   3.642  18.241   0.705  0.1115 -0.0703 -0.0270
 1359W        W14773   4.844   9.689  11.667  0.2389  0.1795  0.1289
 1360W        W14774  16.864  16.568  14.240 -0.0280 -0.2765 -0.2497
 1361W        W14775   0.437   4.709   0.747  0.1584 -0.0311 -0.3189
 1362W        W14776   2.586   5.551  15.375  0.1375  0.0744 -0.0821
 1363W        W14777   6.156   4.684  16.073  0.0096 -0.1034  0.1783
 1364W        W14778  12.452   0.005  12.582  0.4049  0.1225  0.0352
 1365W        W14779   9.524  11.613   1.590 -0.0396 -0.0851 -0.6010
 1366W        W14780   6.599  10.705   0.384  0.0472 -0.3820 -0.0906
 1367W        W14781   9.681   8.422  12.827 -0.2525  0.1747  0.3350
 1368W        W14782   1.564   2.961   4.304  0.0925  0.0166  0.1381
 1369W        W14783  14.937   4.468   0.785  0.1610 -0.1188 -0.0470
 1370W        W14784  15.032  18.298  14.984  0.0048  0.0358  0.2555
 1371W        W14785   6.596   0.873  11.048  0.2124  0.1887 -0.0644
 1372W        W14786  16.771   4.795  11.383  0.0455  0.0629  0.3586
 1373W        W14787  15.415  17.055   4.464 -0.0953 -0.4880  0.1851
 1374W        W14788   0.825   9.426   3.713 -0.0935  0.2978 -0.3010
 1375W        W14789  11.358   3.833  15.749 -0.0473 -0.0888  0.1881
 1376W        W14790  11.004  17.393  15.420  0.0758  0.1624  0.0016
 1377W        W14791  16.643  10.582   5.488 -0.3260  0.1076  0.1689
 1378W        W14792   7.894   5.924   1.431 -0.0905 -0.3673  0.1260
 1379W        W14793  13.554  14.160   1.029  0.4478  0.0687  0.1075
 1380W        W14794  12.984   4.280  12.348 -0.3969 -0.1117  0.0159
 1381W        W14795   7.845  18.306   5.077 -0.3548  0.1049  0.0286
 1382W        W14796  17.375   7.902  15.845 -0.3293  0.2742  0.5374
 1383W        W14797   3.793   7.162  13.217 -0.0567 -0.0710 -0.0407
 1384W        W14798   6.327   5.356   5.497  0.5199  0.1256  0.0325
 1385W        W14799  10.671   9.692  13.009  0.2429  0.2575 -0.0969
 1386W        W14800   3.758   9.306   3.677  0.1579 -0.0404 -0.1373
 1387W        W14801  11.133   9.282  15.859  0.1661  0.1943  0.0997
 1388W        W14802  12.865   2.354   1.460 -0.0074 -0.3129  0.1695
 1389W        W14803   1.392  16.151  15.318 -0.0941 -0.3228  0.0738
 1390W        W14804   0.496   0.900  15.383 -0.0760 -0.2157 -0.0692
 1391W        W14805  15.734   2.205  11.544 -0.3465  0.4030 -0.0923
 1392W        W14806   3.028   8.661   3.900  0.3614 -0.1697 -0.0554
 1393W        W14807   1.798  15.668   5.447 -0.2220 -0.0534 -0.3127
 1394W        W14808   3.176  11.529  10.426  0.0828 -0.0144  0.3297
 1395W        W14809   1.155   1.459  13.124  0.0456  0.2903  0.0496
 1396W        W14810   6.129   2.118   3.543  0.2069  0.0188 -0.1810
 1397W        W14811   7.038  16.017   2.077 -0.2920  0.1467 -0.0004
 1398W        W14812  10.104   0.507   1.523 -0.1305 -0.2377  0.1548
 1399W        W14813   4.635   8.954   1.250 -0.0810 -0.1337 -0.0379
 1400W        W14814  13.003  16.529   0.530 -0.0432 -0.1616 -0.3584
 1401W        W14815  17.247  10.303   5.437  0.2240 -0.0269 -0.1726
 1402W        W14816   0.263  12.532  11.386 -0.1828 -0.2182  0.3893
 1403W        W14817  13.031   6.549   3.613  0.0616  0.2626 -0.0489
 1404W        W14818   7.691  16.544   0.297  0.4314  0.2721 -0.2714
 1405W        W14819   4.174  17.377  16.087  0.1663  0.3035  0.2890
 1406W        W14820   8.459  12.647  11.274 -0.0428  0.0828  0.0564
 1407W        W14821  11.729  15.306   4.261  0.1606 -0.1531  0.3253
 1408W        W14822   1.839  12.869   4.480 -0.0047  0.1259 -0.0095
 1409W        W14823  16.126   7.748   2.711 -0.2138 -0.0334  0.1006
 1410W        W14824  12.039   0.929  11.800  0.0943  0.1998 -0.0532
 1411W        W14825   2.781   6.202   4.711 -0.1550 -0.0585 -0.0671
 1412W        W14826  11.747  18.370  10.901  0.0191 -0.0052 -0.0694
 1413W        W14827   7.512  10.518  12.420 -0.0625 -0.3745 -0.1392
 1414W        W14828  17.944   4.290  11.126 -0.1721 -0.0370  0.1113
 1415W        W14829  16.113   1.471  16.183  0.0515 -0.0359 -0.2217
 1416W        W14830  11.378   2.077   3.113 -0.1499 -0.1754 -0.0837
 1417W        W14831  10.235  14.008   3.957 -0.0998 -0.0286  0.0662
 1418W        W14832   8.899   3.396   3.321 -0.0396 -0.0484  0.1247
 1419W        W14833   5.616  12.631  12.322 -0.3790  0.2544  0.0895
 1420W        W14834   4.372  11.075   9.995 -0.0492  0.0274  0.2659
 1421W        W14835  13.310  12.645   3.994  0.2580  0.4306  0.0167
 1422W        W14836  14.169   8.724   2.295 -0.0421 -0.0991  0.3599
 1423W        W14837  11.385  16.406  10.421 -0.3032 -0.0437  0.2771
 1424W        W14838  18.405   5.150   2.987 -0.0314 -0.0970 -0.1394
 1425W        W14839   6.714  12.420   0.839  0.0775  0.1315 -0.0693
 1426W        W14840  10.101   2.545   1.750 -0.0661  0.0711 -0.0894
 1427W        W14841   1.203  17.318   5.608 -0.2102  0.1379 -0.0104
 1428W        W14842   7.182  14.439   2.597  0.1584 -0.2384 -0.1248
 1429W        W14843  15.522  15.462  15.417  0.2080 -0.2663 -0.1534
 1430W        W14844   4.452   2.759   1.296  0.0821 -0.0012  0.1440
 1431W        W14845  14.668   8.977   5.246  0.0555  0.3630 -0.1644
 1432W        W14846   0.933   1.208   6.146  0.0567 -0.1065 -0.3305
 1433W        W14847  17.922  10.964   4.693  0.1528  0.0642  0.0177
 1434W        W14848  12.393   8.554   4.120 -0.0173 -0.0315  0.2042
 1435W        W14849   9.713  18.426  11.931 -0.1676  0.1699  0.5315
 1436W        W14850  10.037  14.918   2.776  0.0938 -0.1847 -0.0257
 1437W        W14851   4.118   1.416  13.379 -0.0018  0.0147 -0.1414
 1438W        W14852  11.131   6.154  16.125  0.0658 -0.0696 -0.0701
 1439W        W14853  17.172   1.522   0.764 -0.1027 -0.0127 -0.0740
 1440W        W14854  13.666  10.049   1.202 -0.0338 -0.3635 -0.2359
 1441W        W14855   0.847   5.924   4.097 -0.3393 -0.0894  0.2027
 1442W        W14856  18.358   8.015  16.028 -0.4244  0.0535  0.0755
 1443W        W14857  15.269  15.942   5.545  0.1711  0.0344  0.2118
 1444W        W14858  10.877   5.159  11.409  0.3019  0.0022 -0.0346
 1445W        W14859   1.906  12.519   2.704 -0.1112  0.0268 -0.0724
 1446W        W14860   3.589   8.832   3.952  0.1521 -0.3894  0.1414
 1447W        W14861   7.314  12.363   3.281  0.0423 -0.2360  0.1288
 1448W        W14862   5.029  18.366  14.553  0.2232 -0.3301  0.0349
 1449W        W14863  12.861  14.183   5.246  0.4246  0.2519 -0.0299
 1450W        W14864   4.191   1.389   4.109 -0.0041  0.0394  0.1342
 1451W        W14865  13.044   0.234   2.967 -0.0944 -0.3007  0.2585
 1452W        W14866   6.268  11.620  15.105  0.2031  0.3894  0.1880
 1453W        W14867  15.709  10.202   0.329  0.4087  0.0697  0.0171
 1454W        W14868  10.910  16.554  13.259 -0.4514 -0.1026  0.0896
 1455W        W14869  11.230   6.355   1.200 -0.2385 -0.2834 -0.1697
 1456W        W14870   9.033   3.795  13.699 -0.3842 -0.1349  0.3361
 1457W        W14871  12.529  17.120   5.365  0.4566 -0.0392 -0.0521
 1458W        W14872   7.988   5.867   3.433  0.0370  0.1457  0.1049
 1459W        W14873  14.089  17.183  13.845  0.2822  0.2371  0.3952
 1460W        W14874   7.128   1.731   5.864 -0.3334 -0.1479 -0.0081
 1461W        W14875   9.915   6.843  12.082 -0.1200  0.1658  0.0685
 1462W        W14876  14.195  17.033   1.064 -0.1767 -0.1018 -0.2288
 1463W        W14877   9.993   9.679  15.183  0.2586  0.1180  0.1428
 1464W        W14878  11.052   6.778   5.188  0.0104 -0.0971  0.0313
 1465W        W14879  17.993  17.226   2.191 -0.1529  0.0882  0.0201
 1466W        W14880   1.550  17.805   3.697  0.0477  0.0082 -0.3837
 1467W        W14881   5.884   7.189   4.351  0.0392 -0.0435 -0.0840
 1468W        W14882  13.280  16.802  15.559 -0.0421  0.1568 -0.1503
 1469W        W14883   2.183   8.230   4.767 -0.2135  0.2748 -0.1612
 1470W        W14884   8.518   0.750  15.137 -0.1648 -0.2860  0.0524
 1471W        W14885  12.432   7.454   2.219 -0.0204  0.1188  0.1359
 1472W        W14886   2.626   2.532  13.333 -0.0299  0.0231  0.0347
 1473W        W14887  14.654   0.175  15.195 -0.0748 -0.0080  0.0820
 1474W        W14888   6.996   1.619   3.291 -0.3303  0.1058  0.1080
 1475W        W14889  18.166  11.248  14.180  0.1638 -0.0499 -0.0561
 1476W        W14890   5.660  17.581  13.093  0.0144 -0.0858  0.2526
 1477W        W14891  12.525   8.684  11.862  0.0086 -0.0983  0.2448
 1478W        W14892   2.141  15.987   5.682 -0.0762 -0.4570  0.1427
 1479W        W14893   2.664  14.353  10.458 -0.1912 -0.1829  0.2072
 1480W        W14894   7.606   4.501  14.189  0.0494  0.2437  0.0273
 1481W        W14895   6.860   7.121  15.575 -0.2141 -0.2560 -0.1481
 1482W        W14896  12.829  10.828  15.006  0.0922  0.0331  0.0170
 1483W        W14897   1.283   2.146   2.515  0.2145 -0.2648  0.1654
 1484W        W14898   3.177  15.826   5.345 -0.1050  0.3395 -0.0707
 1485W        W14899  10.380   9.687   0.871  0.0425 -0.0260  0.2652
 1486W        W14900  15.474  13.215   5.597  0.1563 -0.0433  0.0751
 1487W        W14901   0.169  11.701   5.610 -0.1398  0.0234  0.4027
 1488W        W14902   5.894   7.675  10.870  0.2542  0.0584  0.1373
 1489W        W14903   6.411   3.801  13.373  0.2337 -0.0788 -0.3213
 1490W        W14904   7.550  14.571   1.829  0.1607 -0.0698  0.2504
 1491W        W14905   4.820  15.135  12.136  0.3078 -0.5753  0.0329
 1492W        W14906   7.339  10.103  14.700  0.1982  0.0261 -0.3101
 1493W        W14907   7.575  12.839  13.617  0.0054 -0.1950 -0.1070
 1494W        W14908   2.916  10.616  16.033 -0.2278 -0.2322  0.0915
 1495W        W14909  11.219   3.281  14.276 -0.0774 -0.2795 -0.1731
 1496W        W14910  17.244   1.508  15.372  0.1160  0.1012  0.0532
 1497W        W14911  14.780   9.481  14.709 -0.2376 -0.0885  0.1650
 1498W        W14912  17.776  10.418   2.125 -0.1141  0.1498 -0.0910
 1499W        W14913  16.626   5.743  15.700  0.1171  0.1875 -0.1539
 1500W        W14914  13.143   7.331   0.182  0.0349  0.0707  0.2640
 1501W        W14915   5.710  13.057   4.759 -0.1059  0.1342  0.1293
 1502W        W14916   4.262  13.849   5.850  0.2423 -0.1580  0.2654
 1503W        W14917   0.243  12.744   5.209 -0.2010  0.2662  0.0571
 1504W        W14918  10.403   3.646  14.603 -0.2706  0.2400 -0.1065
 1505W        W14919  10.000  10.845  14.929  0.1345  0.0218  0.0183
 1506W        W14920  11.987  17.014  10.649  0.0567  0.1356  0.0550
 1507W        W14921   6.817   4.622   5.409  0.0048 -0.3217  0.2076
 1508W        W14922  14.802  15.123   5.560  0.0443  0.1168  0.0690
 1509W        W14923   6.079   6.030  11.155 -0.3770  0.0815 -0.3433
 1510W        W14924   0.132   1.350   0.883  0.0128 -0.0346 -0.0423
 1511W        W14925  15.125   7.756   1.234  0.0243 -0.0781  0.0366
 1512W        W14926  14.167  13.702  11.655  0.0117 -0.3232 -0.0038
 1513W        W14927  12.178   6.040   0.743  0.2449  0.1076  0.0452
 1514W        W14928   8.949   9.887  12.083  0.3762  0.0957  0.0275
 1515W        W14929   1.578  15.297  14.098 -0.2097  0.0110  0.1147
 1516W        W14930  16.478   1.670   0.704  0.0025 -0.2766 -0.0694
 1517W        W14931  14.559   3.078  13.813 -0.2037  0.0121 -0.1993
 1518W        W14932  14.411  15.803   1.179 -0.2712  0.0371 -0.0123
 1519W        W14933  15.065   2.387   3.365  0.1511  0.1895  0.1162
 1520W        W14934   3.097  14.666   2.555 -0.0432  0.3386  0.0294
 1521W        W14935  14.140   8.496   3.639 -0.0232  0.2366 -0.4382
 1522W        W14936   5.646   1.526  11.152 -0.0009 -0.1030  0.1127
 1523W        W14937  14.701   8.752  12.089  0.1815  0.0408  0.2014
 1524W        W14938  14.657   4.825   4.347 -0.1824  0.0008 -0.1009
 1525W        W14939   4.993   5.479   0.264 -0.2226 -0.0201  0.1809
 1526W        W14940   5.191   8.515   3.072  0.0634 -0.0799 -0.2470
 1527W        W14941   3.956   3.027  10.151 -0.3827  0.1667 -0.3304
 1528W        W14942   7.491   0.869  12.974 -0.3193  0.0179  0.1020
 1529W        W14943   5.660   4.091  13.253 -0.2601  0.4367 -0.0416
 1530W        W14944  13.963  14.857  10.373 -0.0995  0.1952 -0.2043
 1531W        W14945   9.255  16.231  13.610 -0.2180  0.1160 -0.0798
 1532W        W14946   5.845   8.232  14.396 -0.2179 -0.0039 -0.0722
 1533W        W14947   6.684  11.538   1.330  0.1942 -0.0911  0.0351
 1534W        W14948  10.595   9.284  13.291  0.0443  0.2057 -0.1761
 1535W        W14949  16.301  15.740  10.427  0.0739  0.3070  0.2290
 1536W        W14950  10.204  17.927   4.265 -0.4644  0.0246  0.0292
 1537W        W14951   9.363  14.736  15.014  0.4154  0.1462  0.0825
 1538W        W14952   6.206  14.414   2.683 -0.4717 -0.1845  0.1995
 1539W        W14953  11.267  13.188  12.826 -0.0315 -0.1307 -0.0273
 1540W        W14954   8.429   9.057   6.114  0.2272 -0.4378 -0.1863
 1541W        W14955  15.390   5.343   4.266 -0.0181 -0.0661  0.0797
 1542W        W14956  16.009  13.478   5.895  0.0090 -0.3584  0.0431
 1543W        W14957  17.384  16.215  13.143  0.1384 -0.0952 -0.0335
 1544W        W14958  13.336   7.924   1.146  0.0903  0.0549  0.0444
 1545W        W14959  10.040   8.609  16.015 -0.1177 -0.1111 -0.2263
 1546W        W14960   1.670   4.743   2.322  0.2028  0.1301  0.0143
 1547W        W14961  11.604   9.217   6.172 -0.2387 -0.1462 -0.1107
 1548W        W14962   0.382  14.739  15.867 -0.0419 -0.2899  0.0107
 1549W        W14963  15.264   2.720   2.137  0.2688 -0.6079 -0.1316
 1550W        W14964  10.598  13.430  12.537  0.1844 -0.0891 -0.1742
 1551W        W14965  16.607  12.041  11.706 -0.1410 -0.0692  0.2489
 1552W        W14966   0.763  12.588   3.694  0.0216 -0.1034 -0.2047
 1553W        W14967  15.537  17.945  10.105  0.0949 -0.2581  0.0685
 1554W        W14968  15.382  11.083  10.565  0.0272  0.1741 -0.0531
 1555W        W14969  18.470   7.164   5.932 -0.1439  0.1883  0.2326
 1556W        W14970   0.875  13.891  14.665  0.0858  0.2910  0.2752
 1557W        W14971  12.886  17.112  10.882  0.1617 -0.3121 -0.0133
 1558W        W14972   4.468   5.256  12.343 -0.0180  0.1599 -0.1648
 1559W        W14973  16.196  14.860   5.645  0.0725  0.0239  0.1717
 1560W        W14974  15.722   8.751  13.381 -0.0696 -0.2727 -0.1240
 1561W        W14975  17.042  15.635   3.443  0.1338  0.3614  0.0068
 1562W        W14976   2.759  16.536   2.066  0.1661 -0.0300  0.3402
 1563W        W14977   1.647  10.070   4.637 -0.2725  0.2048 -0.0481
 1564W        W14978  13.736   6.663  11.555  0.1427  0.0468  0.2384
 1565W        W14979  17.597   1.424   1.051  0.0205 -0.0054 -0.1670
 1566W        W14980   7.555   3.168  12.899 -0.2841 -0.0766  0.0916
 1567W        W14981  11.666   8.231  12.335 -0.0058 -0.2711  0.0939
 1568W        W14982   5.997   6.639   2.055  0.3066  0.1167 -0.4010
 1569W        W14983   3.882   8.397   3.217  0.1511  0.2614  0.1156
 1570W        W14984   2.033  14.920  15.980  0.1000 -0.0657  0.2895
 1571W        W14985   3.181  10.173  10.903 -0.1862  0.1661  0.1535
 1572W        W14986  12.673   8.929  11.374 -0.1067 -0.1385  0.0036
 1573W        W14987   7.538   8.187   3.399  0.1917 -0.2370  0.0990
 1574W        W14988  13.946   6.423  14.420  0.1811  0.0593  0.0148
 1575W        W14989   4.817   3.026  13.296 -0.1083  0.0170  0.0864
 1576W        W14990   3.334   2.430  12.519 -0.1999  0.0618  0.0699
 1577W        W14991   9.864  16.392  10.812 -0.2086 -0.1770 -0.0464
 1578W        W14992   1.648   8.780   1.611  0.1302  0.0384 -0.1628
 1579W        W14993   5.698   6.228   1.479 -0.0845 -0.1646 -0.1235
 1580W        W14994   5.352  14.968   4.980 -0.0519  0.0917  0.0458
 1581W        W14995   6.503   9.892  16.015 -0.2878  0.2106  0.0272
 1582W        W14996   3.703  11.725  13.469  0.0516  0.2847 -0.4563
 1583W        W14997   2.358  12.335   5.205 -0.0093 -0.1964 -0.1302
 1584W        W14998  11.697   6.800   4.452  0.0450 -0.0854 -0.3006
 1585W        W14999  11.642   4.749   3.731 -0.0580 -0.2910 -0.0661
 1586W        W15000   2.433   6.813   6.076 -0.1061  0.1273  0.3494
 1587W        W15001   8.307   3.286   4.311 -0.1589 -0.0284  0.1369
 1588W        W15002  18.048   1.927  11.672 -0.1266  0.0573 -0.1089
 1589W        W15003   6.252   7.658   3.494 -0.0120  0.0358  0.1262
 1590W        W15004   1.565   2.153  14.220  0.1924 -0.6208  0.2705
 1591W        W15005   8.739   6.158   0.910  0.0083  0.2463  0.0722
 1592W        W15006   9.471   1.905   4.941 -0.0971 -0.0877 -0.1784
 1593W        W15007   5.311  12.179   1.353  0.0849 -0.0297  0.2886
 1594W        W15008  13.544  15.008  12.679  0.1219 -0.0392 -0.0397
 1595W        W15009  11.713   9.899   0.425 -0.1466 -0.1690  0.1760
 1596W        W15010  17.976  15.902   4.906  0.1610  0.1006 -0.0371
 1597W        W15011   0.324  17.006   3.185  0.0265 -0.1050 -0.1892
 1598W        W15012   6.591  16.124  14.654 -0.0957 -0.2098 -0.0970
 1599W        W15013   2.148   5.584  16.217 -0.2300 -0.0671 -0.2149
 1600W        W15014   8.049   8.297  15.520 -0.1506 -0.0619 -0.2031
 1601W        W15015  11.936   1.641  10.850 -0.2978  0.0389 -0.1176
 1602W        W15016   0.361   1.186  11.057 -0.0810 -0.1213 -0.1980
 1603W        W15017   9.835  16.363   2.547 -0.0333 -0.1505 -0.0600
 1604W        W15018  17.956  11.116   3.703 -0.1883 -0.1954  0.4725
 1605W        W15019  11.327   5.847   0.868 -0.2788 -0.0419  0.2962
 1606W        W15020   2.454   8.904   6.177 -0.0244 -0.0445 -0.0229
 1607W        W15021  10.897  15.713  11.517  0.0760  0.0780 -0.0710
 1608W        W15022   8.632  10.812   5.495 -0.1069 -0.2490  0.0150
 1609W        W15023   1.204   8.593  15.063 -0.0447  0.2060  0.0011
 1610W        W15024   7.659  17.435  15.853  0.1890  0.4448 -0.2813
 1611W        W15025  17.705  17.362   4.388  0.1856  0.2210 -0.1475
 1612W        W15026   3.542  13.682  13.249 -0.0793  0.0522 -0.2003
 1613W        W15027   3.145   5.775  10.081 -0.0167  0.1220  0.1203
 1614W        W15028   7.566  17.123   2.095 -0.4435 -0.2855  0.4439
 1615W        W15029   4.510   2.865   0.116 -0.1182 -0.3540  0.0227
 1616W        W15030   8.663  10.429   6.277  0.0483 -0.1869 -0.0867
 1617W        W15031   1.077  10.036   6.581  0.0761 -0.0343 -0.1043
 1618W        W15032   3.190   0.809   1.120 -0.1039 -0.0986  0.3682
 1619W        W15033   3.830   1.295   1.927  0.1028 -0.2869  0.3828
 1620W        W15034  16.172   8.344  13.375  0.1400  0.0986  0.1051
 1621W        W15035  17.874   6.590   0.964 -0.0064  0.1651 -0.1145
 1622W        W15036   2.895   1.739  15.045 -0.1531  0.4252  0.1051
 1623W        W15037   7.605   8.521  15.651  0.3708  0.2745 -0.0516
 1624W        W15038   7.686  16.980   0.638  0.2754 -0.0757  0.3244
 1625W        W15039  11.911   6.535   6.162 -0.2116 -0.3592 -0.2483
 1626W        W15040   9.270   8.278  11.263  0.2709 -0.4070  0.0046
 1627W        W15041  11.494  16.026  11.046  0.0348 -0.2536  0.2068
 1628W        W15042   8.108   3.909   3.080  0.4321  0.1377  0.0185
 1629W        W15043   3.990  11.183  13.848  0.2932 -0.1941 -0.0282
 1630W        W15044  17.201   5.494   2.628 -0.2432  0.0700  0.1781
 1631W        W15045  14.522  10.107   6.050  0.0279  0.0755 -0.0669
 1632W        W15046   5.351   8.360   1.400  0.3133  0.1303 -0.1026
 1633W        W15047  18.131   7.552  12.677  0.0494 -0.2243  0.1660
 1634W        W15048   7.341  17.095   4.630 -0.1965  0.2954 -0.1839
 1635W        W15049   7.014   5.742  12.069  0.1348  0.0527  0.0910
 1636W        W15050   3.886  14.897   3.991 -0.2919 -0.2952  0.1567
 1637W        W15051  14.486   8.202   3.839  0.2497 -0.1762  0.0646
 1638W        W15052  14.521  13.912   3.743 -0.0999 -0.2250 -0.0606
 1639W        W15053  14.866   0.728   5.024  0.2000  0.0328 -0.1259
 1640W        W15054  16.157   6.285   5.017  0.1749  0.0751  0.0447
 1641W        W15055  17.676   8.946  14.319 -0.0795  0.2959  0.0026
 1642W        W15056   7.171   2.236  12.801 -0.0755 -0.0607  0.0678
 1643W        W15057   5.047   0.736  13.481  0.2741  0.2398  0.0707
 1644W        W15058   0.566   7.644  15.078  0.1109 -0.0906 -0.1519
 1645W        W15059   9.753  18.346   6.080 -0.4418 -0.1649  0.1875
 1646W        W15060  16.655  16.313   9.871 -0.1673  0.0302 -0.1985
 1647W        W15061   1.796   8.023   4.008  0.0405  0.0926  0.1902
 1648W        W15062   8.226   6.199  13.614 -0.2375 -0.0104  0.1092
 1649W        W15063  11.039   3.461  12.006 -0.1207  0.3935  0.0056
 1650W        W15064  12.883   7.942  13.985  0.4374  0.2115  0.0531
 1651W        W15065   0.600  10.452   3.766  0.1087 -0.0124  0.1090
 1652W        W15066   2.767   2.368   1.555 -0.2410 -0.1777  0.0558
 1653W        W15067  11.059  10.554  15.795 -0.0382  0.0659  0.0068
 1654W        W15068  10.577  13.464   0.296 -0.0147 -0.2908  0.3330
 1655W        W15069   6.013   0.358   4.613  0.1495 -0.1914  0.0155
 1656W        W15070   3.043   9.802   2.065  0.1551  0.3280 -0.1716
 1657W        W15071   3.514   2.784  11.477  0.2304 -0.0173  0.0647
 1658W        W15072   6.821  14.608  15.037  0.2178  0.2894 -0.3081
 1659W        W15073  11.804   0.628   4.982  0.1145 -0.1489 -0.2997
 1660W        W15074   9.146   8.426  14.741 -0.3935 -0.0642 -0.1089
 1661W        W15075   1.124   2.289  12.378 -0.0790  0.2456 -0.1326
 1662W        W15076  17.883  16.346   0.083 -0.3675 -0.0946 -0.3660
 1663W        W15077   5.817   7.599   1.357  0.0175  0.0448  0.4178
 1664W        W15078   6.477   6.647   3.487 -0.4513  0.4224  0.0990
 1665W        W15079  15.382  15.355  12.183 -0.0744 -0.1514  0.1133
 1666W        W15080  12.277   8.818  14.806  0.1072 -0.0090 -0.3003
 1667W        W15081   0.316  16.997  10.949  0.0937 -0.2730 -0.2417
 1668W        W15082   4.732   9.399   0.270 -0.0626  0.0472  0.1196
 1669W        W15083  17.252  13.116  11.207 -0.2953  0.0027  0.2435
 1670W        W15084   3.605   7.258   3.432 -0.0469  0.0334 -0.0568
 1671W        W15085  12.165   7.832   1.970  0.1061  0.2393  0.2769
 1672W        W15086   2.033  10.870   4.151 -0.1258  0.1309  0.4359
 1673W        W15087  13.595   5.528  11.930 -0.1489 -0.0590 -0.2500
 1674W        W15088   3.030   6.954   5.341 -0.2380  0.1832  0.2661
 1675W        W15089  14.976   9.301   4.897  0.1289  0.2730  0.2172
 1676W        W15090   6.563   1.940   1.066 -0.0844 -0.0025  0.3607
 1677W        W15091  12.150  16.558   3.387  0.1494  0.1738 -0.1250
 1678W        W15092  17.353   1.126   0.153 -0.0136 -0.0022 -0.1637
 1679W        W15093   6.570   0.817  13.715 -0.1165 -0.0819  0.2051
 1680W        W15094  17.562   1.863   6.229  0.1158  0.3243 -0.1502
 1681W        W15095  16.463   0.930   0.144  0.0870  0.3709 -0.1797
 1682W        W15096  15.520   5.550   5.925 -0.2078 -0.1157 -0.2482
 1683W        W15097   8.742  17.429  10.178  0.3667  0.2465 -0.1299
 1684W        W15098   4.330   0.381   0.320  0.0652  0.1546 -0.1883
 1685W        W15099   3.324   7.859  15.529  0.1085 -0.2581 -0.1396
 1686W        W15100  12.473  17.583   1.710  0.0910 -0.0774 -0.0316
 1687W        W15101   3.896   2.691  13.678 -0.1434 -0.2811  0.1203
 1688W        W15102  15.671   2.864   1.899 -0.2641 -0.1599 -0.2986
 1689W        W15103  10.616  15.877  14.400 -0.0319  0.2763  0.0655
 1690W        W15104   9.074   4.767   2.615 -0.0269  0.2893  0.1071
 1691W        W15105   2.415   4.709   3.767  0.0241  0.0598 -0.3645
 1692W        W15106  15.641  16.798   5.272 -0.0213 -0.1674 -0.0595
 1693W        W15107   2.241  13.444   9.652  0.0426  0.3113 -0.0522
 1694W        W15108  13.808  16.086  13.799  0.1159 -0.0398  0.0997
 1695W        W15109   5.641   1.891  16.183  0.2431  0.0287  0.1831
 1696W        W15110   6.830   6.024  14.327 -0.0429 -0.2230 -0.3558
 1697W        W15111  16.411   9.962   0.742  0.0775 -0.0694 -0.1000
 1698W        W15112   1.248   7.256   5.095 -0.1540  0.3561  0.1748
 1699W        W15113   0.476   8.405  14.243  0.1360  0.0731  0.0088
 1700W        W15114   2.851  10.440  11.703  0.3130  0.1577  0.2612
 1701W        W15115  13.222   7.843   0.372 -0.0756 -0.1250  0.2828
 1702W        W15116  18.000   6.206   2.375 -0.0136 -0.3238  0.3550
 1703W        W15117  15.895   6.607  12.277  0.0570 -0.1499 -0.0630
 1704W        W15118  13.753  17.661   2.894 -0.0541  0.2471  0.2598
 1705W        W15119  12.083   2.421  15.076 -0.2007  0.0792  0.1234
 1706W        W15120   2.626  17.578   5.009  0.0278  0.0747 -0.0859
 1707W        W15121  11.454   1.210   5.713 -0.2165  0.0658 -0.1011
 1708W        W15122   8.156   2.957   2.615 -0.2327 -0.0756  0.3105
 1709W        W15123  14.120  12.774  14.880  0.3430  0.2688  0.0170
 1710W        W15124   0.383   5.999  12.948  0.1391 -0.2911 -0.3232
 1711W        W15125  17.033  15.779   6.424  0.0473  0.3139 -0.1490
 1712W        W15126   8.888   9.953  10.446 -0.0899 -0.3530 -0.1881
 1713W        W15127   0.708  12.755  12.447 -0.2641  0.0177  0.4165
 1714W        W15128   5.168   4.164  13.006 -0.3318 -0.4090  0.0290
 1715W        W15129   3.335   7.716  14.617 -0.1247 -0.0455 -0.0265
 1716W        W15130   1.569  13.004   0.394 -0.1625  0.3230 -0.2818
 1717W        W15131  16.953  15.204  11.607 -0.1607 -0.0131 -0.0247
 1718W        W15132   9.872   9.810   2.470  0.3024  0.1474  0.0769
 1719W        W15133   9.036   4.071  14.921  0.3450 -0.2845 -0.0731
 1720W        W15134  12.489  10.580   3.814  0.2003 -0.1138 -0.1454
 1721W        W15135   1.945  13.628  11.725 -0.3128  0.1113  0.0768
 1722W        W15136   1.527  14.190   1.625  0.0597  0.1124  0.2572
 1723W        W15137  13.531  10.496   4.678  0.3051  0.0190  0.0289
 1724W        W15138  17.073  16.395   4.431 -0.2692 -0.2321 -0.3063
 1725W        W15139   8.385  12.562   0.499  0.1242  0.2275  0.1199
 1726W        W15140  18.436   3.681  15.942  0.2258 -0.0058 -0.0207
 1727W        W15141  13.046   0.623   3.314  0.1152  0.1243  0.0214
 1728W        W15142   0.788  18.281  11.640  0.1651 -0.1917  0.0043
 1729W        W15143  12.072   9.474   2.215  0.2273 -0.1144  0.1614
 1730W        W15144  13.570  12.082   4.750 -0.3619  0.0931  0.0575
 1731W        W15145   1.691   9.938   1.550  0.1496 -0.1227 -0.0946
 1732W        W15146   9.779  14.398   9.948  0.1508 -0.0431 -0.1201
 1733W        W15147   4.519   8.932   3.710 -0.2650  0.0135 -0.0361
 1734W        W15148   9.245   7.673  10.595 -0.2182 -0.1241 -0.3144
 1735W        W15149   4.398   1.791   5.154  0.1695  0.0086  0.1034
 1736W        W15150   0.789   6.320   4.336 -0.3844 -0.0821 -0.0031
 1737W        W15151   0.472   2.529  16.098 -0.2662  0.0034 -0.1448
 1738W        W15152  13.185   5.269  12.249 -0.4090  0.2135 -0.3686
 1739W        W15153  12.742   8.778   2.469 -0.2552 -0.1589  0.2408
 1740W        W15154  13.145   7.111   2.682 -0.1575  0.2490  0.1442
 1741W        W15155   4.495   9.677  13.717 -0.2749 -0.0349  0.0878
 1742W        W15156   3.925  14.914   5.216 -0.3237  0.0421 -0.0041
 1743W        W15157   3.421   2.782  12.831 -0.2559 -0.0473 -0.0437
 1744W        W15158   1.870   3.362   2.043 -0.2562  0.0983  0.1081
 1745W        W15159  17.756  13.390   3.378  0.1663 -0.0933  0.0796
 1746W        W15160  17.626  15.038   0.612  0.1940  0.0799  0.1100
 1747W        W15161  12.015  15.133  15.547  0.2337 -0.0150  0.2832
 1748W        W15162   3.458  17.184  13.490 -0.1809  0.0209 -0.2604
 1749W        W15163   5.083  10.561  11.132 -0.2345  0.1675 -0.1769
 1750W        W15164  13.916   7.170  10.685  0.1467 -0.2762  0.2065
 1751W        W15165   5.239   4.692  12.408 -0.0908 -0.3225 -0.0113
 1752W        W15166   2.474   7.831  14.976 -0.1668 -0.1573 -0.0976
 1753W        W15167  14.716   4.385  11.611 -0.2384 -0.1268  0.1603
 1754W        W15168  17.233   3.558   4.769  0.1604 -0.0888 -0.0878
 1755W        W15169   1.416   5.918   4.969  0.1006 -0.2899  0.0919
 1756W        W15170  11.354  17.783  10.236  0.0684  0.0902 -0.2948
 1757W        W15171   9.469   9.253  15.477  0.0016  0.2559  0.1138
 1758W        W15172   4.691   7.662  11.734  0.0242 -0.2332 -0.1366
 1759W        W15173   5.500  16.873  16.020  0.1318  0.3247  0.0541
 1760W        W15174   7.805   5.574  11.462  0.2929 -0.1608  0.0597
 1761W        W15175  10.772   6.016   5.390 -0.0463  0.1821  0.0334
 1762W        W15176  11.755  11.946  11.940  0.2290  0.1383  0.3133
 1763W        W15177  17.565  12.350   1.878  0.0475 -0.2732 -0.0719
 1764W        W15178   6.950   1.450  10.797 -0.4063 -0.1179 -0.1216
 1765W        W15179  16.641  10.505  10.921  0.2567  0.0789  0.0468
 1766W        W15180   0.603   5.226  10.907  0.0474 -0.0275  0.2402
 1767W        W15181   8.253  13.801   0.969  0.0332  0.2533 -0.0738
 1768W        W15182  13.877  16.211  16.239  0.0566 -0.2089 -0.0764
 1769W        W15183   2.097  17.709  16.126 -0.1388 -0.1167 -0.2299
 1770W        W15184   9.702   4.894  10.509 -0.1230  0.2473 -0.0934
 1771W        W15185   7.070   1.580   0.351 -0.0750  0.2634  0.0408
 1772W        W15186   0.882   7.317  10.695 -0.0389 -0.1216  0.0108
 1773W        W15187  10.528  18.074   1.097  0.0710  0.0319  0.3716
 1774W        W15188  17.080  11.249   2.756  0.0746  0.1810 -0.2165
 1775W        W15189   6.315   9.220  15.795  0.1733  0.3992  0.4622
 1776W        W15190   5.385   0.439   3.850 -0.1246  0.1308  0.0311
 1777W        W15191  16.975   7.942   5.308 -0.0530  0.1953  0.0932
 1778W        W15192  13.120   3.103   0.914 -0.2394 -0.1417  0.0712
 1779W        W15193   0.305   1.577   2.759  0.0884 -0.1837 -0.1794
 1780W        W15194  18.475   8.115  13.287 -0.0587 -0.0194  0.6591
 1781W        W15195   8.305   9.966   4.369 -0.1953  0.1081  0.2562
 1782W        W15196  16.680   3.316   6.107 -0.1161 -0.0569  0.1484
 1783W        W15197  10.682  18.408   9.937  0.1674 -0.0195 -0.0704
 1784W        W15198   2.303  16.546  14.774  0.1206  0.0624  0.2742
 1785W        W15199   4.075  14.371  15.837 -0.3086 -0.1740 -0.1463
 1786W        W15200   9.501  13.697  14.096 -0.0406 -0.2090 -0.1709
 1787W        W15201   4.895  14.626  15.474  0.0975 -0.2183  0.1386
 1788W        W15202   9.270  17.016  15.491 -0.1440 -0.1458  0.1974
 1789W        W15203  14.914   5.732  15.169 -0.2964  0.0680  0.0907
 1790W        W15204  10.196   6.797  13.567 -0.1347  0.1251 -0.0497
 1791W        W15205   7.141  15.269  12.133  0.0916  0.0849 -0.1708
 1792W        W15206   7.897   9.760   5.486  0.1267 -0.2732  0.0601
 1793W        W15207  13.359   3.424  13.086 -0.0077  0.1244 -0.1144
 1794W        W15208  10.539   0.931   0.731 -0.1678  0.4212 -0.0995
 1795W        W15209  15.950   8.479   3.184  0.1296  0.0701 -0.0276
 1796W        W15210   1.927  15.861  13.246  0.0509 -0.0902  0.2932
 1797W        W15211   1.343  17.555  12.102 -0.1831 -0.2899 -0.0534
 1798W        W15212  15.739  16.933   1.731  0.0683 -0.1567 -0.2122
 1799W        W15213  15.859   1.660   1.506 -0.3645 -0.1215 -0.1415
 1800W        W15214  18.158   0.813  14.188  0.3051  0.2437  0.1088
 1801W        W15215  17.450   2.119  14.003  0.2893 -0.2384  0.0149
 1802W        W15216   3.170  13.574   1.478 -0.0082 -0.0107 -0.0686
 1803W        W15217   7.828   1.090  10.531 -0.1668 -0.0109  0.0405
 1804W        W15218   5.179   8.387  15.549 -0.2252  0.1283 -0.0199
 1805W        W15219  17.895   1.114   5.143 -0.2194 -0.0422  0.2101
 1806W        W15220   2.420  15.805  13.699  0.0883  0.0694  0.1718
 1807W        W15221   1.052  12.232   2.759  0.1037  0.1417 -0.3212
 1808W        W15222  17.004  10.268  15.894 -0.3308 -0.0224  0.0370
 1809W        W15223   1.712   5.916   5.379 -0.1781  0.0036  0.1093
 1810W        W15224   4.810  14.973   0.993 -0.1515  0.0248  0.1935
 1811W        W15225  13.088   1.384   5.379 -0.1500 -0.1057 -0.0105
 1812W        W15226   7.796  14.989  13.004  0.1788  0.3729  0.0531
 1813W        W15227   6.224   9.694  15.612 -0.1928  0.1256  0.0884
 1814W        W15228  13.328  12.949   2.231  0.2029 -0.0272  0.0810
 1815W        W15229   3.777  11.399   4.062 -0.0709  0.3279 -0.1017
 1816W        W15230   8.006  13.664  13.570  0.2708 -0.2211 -0.1085
 1817W        W15231   8.168  17.149  12.467 -0.2525 -0.2914  0.0211
 1818W        W15232  17.714   3.973   3.382 -0.0306  0.0803  0.0308
 1819W        W15233  16.615  15.315  14.591  0.0365  0.0569 -0.0406
 1820W        W15234   3.224   1.377  15.490  0.0821 -0.1880  0.1640
 1821W        W15235   3.625  15.277   3.070  0.1657 -0.2054 -0.0497
 1822W        W15236   6.454   0.167   0.176  0.1484 -0.2208 -0.2256
 1823W        W15237  10.910   2.507  15.907 -0.1733 -0.1611  0.0173
 1824W        W15238  18.416  15.963  15.074  0.1141 -0.2746  0.1225
 1825W        W15239   3.178  14.376  13.823 -0.1419 -0.4471 -0.1076
 1826W        W15240  18.168  17.143   0.474 -0.3975  0.2200 -0.0627
 1827W        W15241   8.749   0.442  11.902 -0.0575 -0.6086  0.0536
 1828W        W15242   6.054   7.383   5.439  0.0641  0.2022 -0.0749
 1829W        W15243  17.876  18.089   1.480 -0.1816  0.0443  0.4604
 1830W        W15244   5.844  16.999  11.716 -0.0398  0.3990 -0.0189
 1831W        W15245   7.916   1.180   0.127 -0.1763 -0.2277 -0.1512
 1832W        W15246  17.910   3.048  14.794 -0.2482 -0.2548  0.1025
 1833W        W15247   9.018  16.146   2.196 -0.0260 -0.4529  0.1972
 1834W        W15248   9.564   6.209  13.537  0.0121  0.0786  0.3630
 1835W        W15249   0.466   3.142   0.912  0.1208  0.0616 -0.2420
 1836W        W15250  12.833   5.422   3.375  0.0250 -0.3431 -0.2186
 1837W        W15251  11.917   5.022  11.702 -0.2293 -0.1282 -0.1398
 1838W        W15252  16.737  10.085   2.115 -0.2113  0.0988 -0.0476
 1839W        W15253  15.387   4.172   1.588  0.0399 -0.0265  0.1709
 1840W        W15254  15.790  15.244   1.219 -0.0706 -0.1417 -0.1494
 1841W        W15255   2.526  16.832  10.256 -0.0599 -0.1643 -0.0923
 1842W        W15256  15.096   7.200  16.190 -0.2879 -0.0972  0.3581
 1843W        W15257  12.201  12.033  11.156  0.0464  0.0406 -0.3988
 1844W        W15258  16.254   5.929   4.291  0.1423 -0.0161 -0.0706
 1845W        W15259  18.463   6.517   1.284  0.0507  0.0753 -0.1123
 1846W        W15260  18.017   1.068   1.328 -0.0471 -0.2664 -0.2541
 1847W        W15261   0.971  17.810  16.129  0.2459  0.0192 -0.4982
 1848W        W15262  16.570   9.598   3.997 -0.2032 -0.2420  0.1688
 1849W        W15263   8.534  16.182   1.723 -0.5803  0.0484 -0.0060
 1850W        W15264   0.984   2.819  12.194  0.2282 -0.1950  0.0739
 1851W        W15265   3.389   6.961   3.847  0.0335  0.6028 -0.1462
 1852W        W15266   0.220  14.090   1.301  0.2733  0.2702 -0.1704
 1853W        W15267   3.663   4.003  11.337  0.1376 -0.3455 -0.1739
 1854W        W15268   0.807   7.183   6.200 -0.0188  0.4264  0.3053
 1855W        W15269  15.140   7.126  14.842 -0.0871  0.0636  0.2457
 1856W        W15270   8.572   0.863   3.119  0.2464  0.1898 -0.0517
 1857W        W15271  17.337  10.851  14.560  0.0224 -0.2068 -0.0175
 1858W        W15272  17.118   8.257   1.689 -0.1610 -0.3220  0.3083
 1859W        W15273  16.350   6.707   2.330 -0.2270  0.0237  0.1111
 1860W        W15274   7.802   4.542   4.524  0.2471 -0.3483 -0.2549
 1861W        W15275  16.151  13.992   0.034  0.0782  0.0161 -0.0129
 1862W        W15276   2.292  10.604  16.178  0.1291  0.4458 -0.2909
 1863W        W15277   3.939  17.003  14.894 -0.1113  0.0563 -0.2280
 1864W        W15278   6.276   6.925   4.036  0.1794  0.0595  0.1618
 1865W        W15279  10.227   9.026   5.875  0.1447 -0.1337 -0.3077
 1866W        W15280  15.660   2.539   2.413 -0.1471  0.0947 -0.1133
 1867W        W15281  18.064  12.990  13.035 -0.2909 -0.0779  0.0355
 1868W        W15282  10.417  16.745  14.174  0.0190  0.0918  0.0159
 1869W        W15283   4.861  15.634  12.029  0.3617 -0.0332  0.0828
 1870W        W15284  14.818   4.100   5.897 -0.2312 -0.1749  0.2142
 1871W        W15285  17.848  12.377   3.803  0.0808  0.0771  0.1193
 1872W        W15286   3.991  15.356  12.560 -0.0930  0.0131 -0.1192
 1873W        W15287   6.535   1.956   4.500  0.3060 -0.0430  0.1569
 1874W        W15288   1.285   5.712  11.532  0.0866  0.1780 -0.0358
 1875W        W15289   2.301  17.915  13.064  0.1184 -0.1078  0.0939
 1876W        W15290   5.014  16.203  13.752  0.1930  0.0456  0.0655
 1877W        W15291  14.063   0.575  12.275  0.2531 -0.2750 -0.1370
 1878W        W15292   6.400  13.384   9.744  0.3080 -0.0760 -0.1632
 1879W        W15293   0.036   7.957   3.893 -0.0213  0.2458 -0.2402
 1880W        W15294  11.770  10.385  12.228 -0.2149 -0.1705 -0.2877
 1881W        W15295   9.977   6.859   6.159 -0.2844 -0.1664  0.0844
 1882W        W15296   8.834   7.214  11.697  0.1870 -0.0019 -0.2098
 1883W        W15297   4.322  16.773  13.512 -0.1633  0.4437  0.1243
 1884W        W15298  14.591  16.197   3.931  0.2383  0.1552  0.0043
 1885W        W15299  16.812  10.207   6.295  0.0442 -0.1250  0.0501
 1886W        W15300  18.395  17.132  10.931  0.1374  0.1137 -0.1570
 1887W        W15301   4.958   2.888   1.001 -0.2869  0.1819  0.0669
 1888W        W15302  15.469  10.615  15.331 -0.0331  0.0233 -0.0359
 1889W        W15303   3.063   5.517   0.075  0.0546 -0.0081  0.1215
 1890W        W15304   0.842   3.795  12.742 -0.2002  0.2812 -0.0098
 1891W        W15305  11.821  17.124  14.820 -0.2561  0.1079  0.1697
 1892W        W15306  13.087  13.034   4.578 -0.2321  0.2030 -0.1451
 1893W        W15307  13.206   7.809   2.038 -0.2586 -0.2527  0.0468
 1894W        W15308   4.072   8.447  10.601 -0.3571  0.1622  0.3873
 1895W        W15309   9.261  10.162  15.081 -0.1030 -0.1902  0.1003
 1896W        W15310   6.346   3.770   2.816 -0.1791 -0.2909 -0.1527
 1897W        W15311   9.331   8.670   3.136 -0.4147 -0.0845  0.1247
 1898W        W15312  15.910   4.716   4.762 -0.0065 -0.1293  0.4587
 1899W        W15313  14.706   6.938   0.909  0.0302  0.3110 -0.0827
 1900W        W15314   7.862   5.350  15.631 -0.1610  0.0222  0.1266
 1901W        W15315   4.576   8.805  10.457  0.0195  0.0834  0.3070
 1902W        W15316   4.739   5.526   5.572  0.0968 -0.0092  0.1322
 1903W        W15317  12.768  12.878  12.013  0.0107 -0.0335 -0.1849
 1904W        W15318   9.715   9.454   2.855  0.3577  0.1739  0.1152
 1905W        W15319  13.953  16.694   2.710  0.1291  0.2799  0.1042
 1906W        W15320   7.173  13.878   5.370 -0.2746 -0.0467 -0.2909
 1907W        W15321  15.321   3.528   0.466 -0.1235 -0.1695  0.3953
 1908W        W15322   7.158   9.864  11.030 -0.0949  0.2016 -0.0307
 1909W        W15323   8.401   6.834   2.370  0.0939  0.1430 -0.1209
 1910W        W15324   9.348  15.495   5.383  0.1459 -0.0659  0.0817
 1911W        W15325   7.639  16.604  11.012  0.3162  0.0812 -0.0440
 1912W        W15326   6.499   6.748  11.563  0.1568 -0.1038 -0.2519
 1913W        W15327  17.187  12.062  15.009 -0.0212  0.0169 -0.0277
 1914W        W15328   2.222   5.576   0.830 -0.1229  0.0352 -0.0063
 1915W        W15329  14.328  16.250  12.698  0.0557  0.1738  0.0982
 1916W        W15330  13.542  15.037   1.141  0.1713 -0.1066 -0.1519
 1917W        W15331   5.384  12.840   0.363  0.1244  0.0448 -0.0578
 1918W        W15332   4.487   7.011   2.491  0.2822 -0.0193  0.1822
 1919W        W15333   7.596  15.760   3.166 -0.0865 -0.1764  0.0745
 1920W        W15334   0.818   0.237   5.485  0.1611 -0.1043 -0.0164
 1921W        W15335   8.038   7.543   5.288 -0.1560 -0.0875  0.0315
 1922W        W15336  15.708   5.187  13.876  0.1402 -0.1684 -0.1277
 1923W        W15337   6.717   8.635   0.488 -0.2335  0.1480 -0.3446
 1924W        W15338  16.410   1.989   3.869  0.0122  0.0231  0.0293
 1925W        W15339  18.378  17.073  15.384 -0.3280  0.0401 -0.1513
 1926W        W15340   9.198   9.869   3.702 -0.1111  0.1394 -0.2648
 1927W        W15341  13.190   0.875  12.034 -0.2509  0.2189  0.0517
 1928W        W15342   9.619  12.815   3.179  0.1315  0.1116 -0.0452
 1929W        W15343   6.751  10.257   2.336  0.0772  0.2015 -0.3820
 1930W        W15344   4.644  14.158  16.176  0.1673 -0.0847 -0.1516
 1931W        W15345   1.760   7.281  13.652 -0.4021  0.0596  0.1462
 1932W        W15346  16.313   3.851   3.705 -0.0921 -0.0012  0.1538
 1933W        W15347  12.767   2.709   4.611  0.2141  0.5440 -0.0596
 1934W        W15348  10.585  16.981  11.368 -0.0313  0.2301 -0.0466
 1935W        W15349  10.936  15.040  12.286  0.4616 -0.2640  0.2378
 1936W        W15350  10.805  11.129   4.498  0.0738  0.1157  0.0801
 1937W        W15351  12.625   7.955  10.297 -0.3403  0.3778 -0.1618
 1938W        W15352  13.404   3.266  12.586  0.0888 -0.0078 -0.0620
 1939W        W15353   8.305  15.633   5.654  0.1338  0.0889 -0.1280
 1940W        W15354   2.150   4.907  14.014 -0.2816  0.0911 -0.1709
 1941W        W15355   8.798   0.842   2.193  0.1552  0.1266  0.0102
 1942W        W15356  11.962  14.695   0.105  0.1675 -0.0474  0.0270
 1943W        W15357   7.530  16.486  13.564  0.1010 -0.3641 -0.0688
 1944W        W15358   0.522  15.264  13.064  0.2594 -0.2333  0.1862
 1945W        W15359   5.407   1.960  11.265 -0.2747  0.0526 -0.0391
 1946W        W15360  10.006  15.935   2.688 -0.0592  0.1278  0.0683
 1947W        W15361  18.101  12.593  10.319 -0.1644  0.0672 -0.0855
 1948W        W15362   0.481   4.480  15.176 -0.3809  0.0357  0.0671
 1949W        W15363  13.227   8.524   0.791 -0.1309 -0.2407  0.0313
 1950W        W15364   9.031   5.526   0.179 -0.0127 -0.1012  0.3483
 1951W        W15365  17.312  11.983   5.952 -0.2865  0.3671 -0.3297
 1952W        W15366   2.428  16.024   0.534 -0.5008  0.0016  0.1085
 1953W        W15367  11.521  12.005  12.900 -0.2129  0.1297  0.1721
 1954W        W15368   0.948  17.213   3.777  0.2204 -0.0665  0.0800
 1955W        W15369  17.752  10.507  15.546 -0.0129 -0.2780 -0.1028
 1956W        W15370  10.557   0.250  12.909  0.3356  0.0732  0.0998
 1957W        W15371  13.455  14.692  14.620 -0.0009 -0.0189  0.1806
 1958W        W15372  12.623  17.866   1.236 -0.1173 -0.0795  0.1142
 1959W        W15373  11.542  10.150  10.364 -0.3673 -0.3359  0.0601
 1960W        W15374   2.640  17.517  12.969  0.0453 -0.0619  0.0663
 1961W        W15375   6.250   8.873   6.527  0.3337 -0.1940  0.4467
 1962W        W15376   9.434  10.179   1.873  0.0799 -0.0807 -0.1443
 1963W        W15377  12.875  12.625   3.029  0.1604 -0.0844  0.0884
 1964W        W15378   7.969   7.074  12.763  0.2197  0.1960  0.0248
 1965W        W15379   7.306   9.264  12.814 -0.0485 -0.2761 -0.1416
 1966W        W15380   9.319  11.880  15.296 -0.0307 -0.0509  0.1177
 1967W        W15381   5.753  14.125  15.561 -0.0865  0.1506 -0.1879
 1968W        W15382   6.276   1.724   1.495  0.1786  0.2406  0.0440
 1969W        W15383   9.632  13.456  15.618 -0.0159 -0.0380 -0.0972
 1970W        W15384   9.970  12.940   2.837  0.1746  0.1467  0.0651
 1971W        W15385   1.454  12.256  10.705 -0.2216  0.0378  0.1671
 1972W        W15386  15.906   5.087  15.122  0.1248  0.2752  0.1389
 1973W        W15387  10.236  15.487  10.434 -0.2058  0.4655 -0.2132
 1974W        W15388   4.966   4.299   2.478  0.0953 -0.1331 -0.0297
 1975W        W15389   1.849  17.025  15.486 -0.0039 -0.2439 -0.1492
 1976W        W15390  12.224   4.768  12.605 -0.2629  0.0138 -0.4834
 1977W        W15391   5.136  18.407  13.095  0.0722  0.0256  0.2906
 1978W        W15392  10.098  17.929  15.087  0.1290  0.0163 -0.0003
 1979W        W15393  15.505  13.189   4.266 -0.3229  0.0676 -0.0279
 1980W        W15394  15.920   9.561   5.253  0.3615  0.1270 -0.1817
 1981W        W15395   5.463   0.936   5.541  0.1250 -0.0986  0.0272
 1982W        W15396  18.068   0.041  13.710  0.2436  0.2037  0.0312
 1983W        W15397   8.783   4.719  13.823 -0.0949 -0.0458 -0.0520
 1984W        W15398  11.030  12.079  12.309 -0.1683 -0.1027  0.2769
 1985W        W15399   0.665  16.485   5.332 -0.1478  0.1228  0.2769
 1986W        W15400  11.312  14.842   4.595  0.1147  0.0293  0.3561
 1987W        W15401  18.076  15.227   0.406  0.0618  0.1270 -0.0562
 1988W        W15402   1.421  18.336   1.308  0.0661  0.2322 -0.0589
 1989W        W15403  14.904  14.190   1.595 -0.0445  0.1037  0.0706
 1990W        W15404   5.901   3.983  14.138 -0.0404 -0.2549 -0.1324
 1991W        W15405  17.042   1.433  11.479  0.2364  0.1754 -0.2498
 1992W        W15406   3.368   4.385  11.464  0.1655 -0.1461 -0.0940
 1993W        W15407   7.623   7.350  14.687 -0.3909  0.0675 -0.1602
 1994W        W15408   2.297  10.233   6.076  0.0762 -0.1074  0.1264
 1995W        W15409   7.605   1.555   4.558  0.1660  0.0033 -0.0384
 1996W        W15410  13.800  13.182   2.777 -0.0728 -0.2421  0.1100
 1997W        W15411  13.189   4.269  11.563  0.1079  0.1002 -0.1773
 1998W        W15412   8.462  13.562   4.252 -0.3602  0.0478 -0.3354
 1999W        W15413   5.847  16.604  15.313  0.1892  0.1590 -0.0435
 2000W        W15414  11.942  18.440   5.432  0.0341 -0.0592 -0.1312
 2001W        W15415  10.280  12.612   1.402  0.1280  0.0756 -0.1715
 2002W        W15416   0.066  11.747   0.041 -0.0200  0.0887  0.0384
 2003W        W15417   8.215   2.394  10.297 -0.0635  0.1067  0.1136
 2004W        W15418   1.034   5.265   6.176 -0.2228 -0.0007  0.1027
 2005W        W15419   5.356   3.819   3.652  0.0012  0.0686  0.0680
 2006W        W15420  11.338  14.472  10.590 -0.1339  0.1003  0.0446
 2007W        W15421   1.698  15.464  10.381 -0.0971 -0.3544 -0.2027
 2008W        W15422  17.603  14.637  15.593  0.1375  0.1780  0.2462
 2009W        W15423   3.501  15.077   2.594  0.1041 -0.0624  0.3758
 2010W        W15424  10.083   1.288   2.030  0.0866  0.1289 -0.0189
 2011W        W15425   1.160   8.471  12.285 -0.4201  0.1247  0.1523
 2012W        W15426   5.197   0.243   5.028 -0.0147 -0.2226  0.1165
 2013W        W15427   5.915   7.943   4.746 -0.1000 -0.1475  0.1297
 2014W        W15428  15.063  12.152  15.705  0.1147 -0.0109 -0.1084
 2015W        W15429  14.812   3.642  13.775  0.1368  0.4316 -0.2567
 2016W        W15430  16.767   8.648  11.355  0.0135  0.2140 -0.1628
 2017W        W15431   0.293   4.436  11.684  0.2529  0.3225  0.2459
 2018W        W15432   2.277   2.333   1.507  0.3800 -0.2734 -0.0176
 2019W        W15433   6.668   1.310  12.737 -0.0092 -0.0753  0.2959
 2020W        W15434  10.471   8.922   1.062  0.0526 -0.2033  0.2172
 2021W        W15435  10.772   9.162  11.625 -0.0499 -0.0448 -0.0194
 2022W        W15436   8.005   5.653  12.455  0.1282 -0.1551  0.3053
 2023W        W15437  13.085  11.113  13.466  0.1938 -0.1988  0.0293
 2024W        W15438   8.135   7.255  14.595  0.2119  0.1434 -0.1534
 2025W        W15439   0.191  12.619  12.115  0.1458 -0.2818 -0.0539
 2026W        W15440  12.941  17.635  12.342 -0.5616 -0.3141 -0.1080
 2027W        W15441   8.033   1.633   5.618  0.1056  0.1782 -0.0645
 2028W        W15442  14.507   0.264  14.258 -0.3065  0.0499  0.0041
 2029W        W15443   2.382  14.741   1.906 -0.1070 -0.0670 -0.0258
 2030W        W15444  11.329   9.762   4.395  0.0069 -0.3256 -0.1899
 2031W        W15445   7.350   9.579   3.237 -0.2707  0.2819  0.1952
 2032W        W15446  10.506  11.511   1.344  0.1120 -0.0233 -0.1307
 2033W        W15447  17.743   7.168  15.987 -0.1540 -0.0861  0.1393
 2034W        W15448  16.700  18.516   1.426  0.2027  0.0288 -0.3215
 2035W        W15449   5.066  12.009  11.185  0.0205 -0.0959 -0.1953
 2036W        W15450  15.119   7.144   1.167  0.0899 -0.0960 -0.0941
 2037W        W15451   1.054   5.936  11.061  0.1282 -0.2197  0.0479
 2038W        W15452  15.813  17.682   5.684  0.0138 -0.0318  0.0169
 2039W        W15453   9.336   2.583  11.715 -0.0173  0.2237  0.2555
 2040W        W15454  13.147   8.061  12.730  0.3267 -0.1089 -0.2742
 2041W        W15455   1.246   9.544   4.250 -0.1039  0.0097 -0.4591
 2042W        W15456   8.585   4.497   5.122 -0.1063 -0.0212 -0.0477
 2043W        W15457  18.204   1.646   2.090  0.0201  0.4527 -0.0521
 2044W        W15458  16.274  16.925   1.455  0.1981 -0.0271  0.2260
 2045W        W15459   5.551   3.336  12.552 -0.1174 -0.2704  0.2742
 2046W        W15460   4.296  10.293   6.110 -0.0677 -0.0966  0.2182
 2047W        W15461   3.339   3.644   1.843  0.2580  0.0464  0.0682
 2048W        W15462   4.264   2.739  12.713 -0.1298  0.1154  0.0611
 2049W        W15463   4.603   2.372  15.550  0.3213  0.0107  0.3185
 2050W        W15464   5.940   8.028   2.210 -0.0830  0.0014 -0.1597
 2051W        W15465   8.377   9.824   6.577  0.1612 -0.1169  0.1342
 2052W        W15466   4.433   4.270   4.023 -0.1591  0.2469 -0.0070
 2053W        W15467   8.825  12.233  15.528 -0.2637 -0.2591 -0.0976
 2054W        W15468  12.541   0.109   1.556 -0.0052 -0.0286  0.1682
 2055W        W15469   7.765  17.665   5.527 -0.0198  0.3501 -0.1277
 2056W        W15470   5.437  16.905   0.263  0.1894  0.0807 -0.2690
 2057W        W15471  14.431   6.237   6.671  0.1221  0.0137  0.0366
 2058W        W15472   7.975  17.754   0.036  0.0594  0.1821  0.2642
 2059W        W15473   4.373  18.024   4.975  0.3096 -0.1484  0.2563
 2060W        W15474   9.234  17.705  10.343 -0.3024 -0.2546 -0.0431
 2061W        W15475   8.779  12.163   0.545  0.0147  0.0018 -0.0264
 2062W        W15476   9.277   5.876  13.904 -0.4900 -0.2498  0.1643
 2063W        W15477  15.461   3.920  13.192  0.1895  0.0508  0.4589
 2064W        W15478   6.423   4.498   2.579 -0.0568  0.0201  0.1962
 2065W        W15479  14.139  15.378   4.515 -0.1458  0.2019  0.0047
 2066W        W15480  14.560  16.637  15.956  0.0079  0.1739  0.2838
 2067W        W15481   2.655   7.555  10.503  0.0797 -0.1081  0.1021
 2068W        W15482   7.874  12.489   0.316  0.2171  0.3725  0.0316
 2069W        W15483   3.545  14.242   1.074 -0.0316  0.2041 -0.1107
 2070W        W15484   7.943  17.666   4.193  0.0547  0.0367 -0.0311
 2071W        W15485   0.840  13.877  15.322  0.1418  0.1334  0.0919
 2072W        W15486  11.779  15.043   1.656  0.1397 -0.0225  0.1188
 2073W        W15487   6.492   6.904   6.263  0.2441 -0.2736  0.1561
 2074W        W15488   6.479  10.199   5.106 -0.1041 -0.0459  0.3012
 2075W        W15489  10.300   8.823  13.504  0.1386  0.0555  0.0078
 2076W        W15490   5.732   2.321  13.849 -0.1543  0.0517  0.0210
 2077W        W15491  11.220  15.097  14.407  0.0593 -0.0308 -0.0165
 2078W        W15492   2.217  16.569   1.885 -0.0827 -0.4513 -0.0577
 2079W        W15493   0.807  14.738   3.579 -0.1321 -0.1557  0.1419
 2080W        W15494   4.514   9.719  15.684 -0.1527 -0.0662  0.0864
 2081W        W15495  16.908  14.920   2.716  0.0945 -0.3044  0.0337
 2082W        W15496   9.338   4.729   4.358  0.0741  0.1750  0.3254
 2083W        W15497   5.592   0.604   2.948 -0.0014  0.1868 -0.2467
 2084W        W15498   4.149   3.530   6.141  0.0489 -0.3436 -0.2043
 2085W        W15499  16.774   3.852  10.501 -0.1374 -0.3244  0.2597
 2086W        W15500  17.539   4.824   5.390  0.2239 -0.2456  0.2992
 2087W        W15501   3.985   1.128  15.898 -0.0431  0.3481  0.0791
 2088W        W15502   2.521   7.837  12.191 -0.2801 -0.0555 -0.0396
 2089W        W15503  13.221  17.425  15.592  0.1801  0.0571 -0.0681
 2090W        W15504   3.504   2.838   5.987  0.1876  0.0879  0.0311
 2091W        W15505  16.196   9.190   6.308  0.0657 -0.4061 -0.1079
 2092W        W15506  15.000   9.086   3.273 -0.2681  0.3374 -0.1746
 2093W        W15507   7.477   3.886  10.959  0.1801  0.1061 -0.1236
 2094W        W15508  14.854   3.378   1.742 -0.4298  0.1215  0.0825
 2095W        W15509   9.453   5.919   2.382 -0.3577 -0.2052 -0.1770
 2096W        W15510  11.356  14.029   4.037 -0.0490 -0.1053 -0.1173
 2097W        W15511   4.094   5.600   1.318 -0.3452 -0.1289  0.1916
 2098W        W15512   7.939   9.181  12.249  0.2603 -0.0326 -0.0674
 2099W        W15513  10.585   7.045  10.933 -0.2932  0.1527  0.1369
 2100W        W15514   6.130  12.173  14.046  0.0495 -0.0030 -0.1914
 2101W        W15515   6.279   7.472  12.310 -0.0399 -0.1544 -0.3284
 2102W        W15516   0.606  15.519   4.282 -0.2561  0.0891 -0.1006
 2103W        W15517   9.997   2.602  11.052  0.0771  0.2860 -0.0561
 2104W        W15518  14.905  17.278  13.216  0.0130 -0.1515  0.4104
 2105W        W15519   7.503  11.523  14.519  0.0382 -0.2026 -0.0723
 2106W        W15520  14.617   9.647  15.235  0.0282 -0.2495 -0.0643
 2107W        W15521   2.534   1.577  13.446  0.0160  0.0679 -0.2973
 2108W        W15522  16.172   1.781   5.639  0.1137 -0.0085  0.0271
 2109W        W15523  10.561   9.418  14.615  0.2743 -0.2192 -0.3670
 2110W        W15524   0.639   6.108   3.181  0.0571 -0.0742 -0.0467
 2111W        W15525   7.950  17.508  11.449  0.2819 -0.1246  0.0520
 2112W        W15526   1.914   6.325   0.284 -0.0899  0.0583  0.1062
 2113W        W15527   5.206  10.447  12.304  0.0057 -0.2664  0.0099
 2114W        W15528  17.670   9.646   0.214 -0.0404  0.0687 -0.0165
 2115W        W15529   9.267   9.733   5.140  0.1749 -0.0717  0.0651
 2116W        W15530   7.221   2.601  11.266 -0.1140  0.3102 -0.1249
 2117W        W15531   0.304   0.928   2.613 -0.0696 -0.0988  0.0567
 2118W        W15532  14.123  12.982   4.560 -0.2560  0.0812 -0.0264
 2119W        W15533   4.576  15.058   3.446 -0.1344  0.1392  0.1228
 2120W        W15534  10.140   8.228  15.747 -0.3431  0.0290  0.0692
 2121W        W15535   6.812  16.531   2.705 -0.2507 -0.1369 -0.1012
 2122W        W15536   1.298   3.664  12.937 -0.0539 -0.2482 -0.2128
 2123W        W15537  17.199  11.884   0.394  0.0357 -0.0565 -0.0867
 2124W        W15538  13.390  12.056   5.830 -0.0211  0.0947 -0.2683
 2125W        W15539  17.845   5.450  12.763  0.0686 -0.1517  0.0912
 2126W        W15540   2.048  16.421   4.785 -0.2195 -0.2110 -0.2252
 2127W        W15541   9.951  17.334  12.990 -0.1888  0.1470 -0.3339
 2128W        W15542   8.224   7.225  15.471  0.0759  0.3770 -0.1100
 2129W        W15543  15.189   4.559   0.328 -0.2046  0.4816  0.3113
 2130W        W15544   6.683  10.901  16.104 -0.1307  0.0010 -0.1128
 2131W        W15545   3.445  17.546   4.388 -0.1042  0.1678 -0.2337
 2132W        W15546  12.114  11.199  11.246  0.1481 -0.2362 -0.1381
 2133W        W15547   8.303   0.655   1.489 -0.1390  0.1168  0.1219
 2134W        W15548  16.939   5.409  16.152 -0.2381 -0.2426  0.1956
 2135W        W15549   5.495   4.265   0.131 -0.2483 -0.1468 -0.2949
 2136W        W15550   3.510   3.346  10.516  0.1012 -0.1265 -0.0699
 2137W        W15551  18.362  17.727  14.215  0.5183 -0.1908 -0.0780
 2138W        W15552  18.042   9.719  13.577 -0.1262  0.1875  0.1663
 2139W        W15553  11.179  12.626  15.576  0.0148 -0.2514  0.0346
 2140W        W15554  16.617   0.978  15.904  0.1038  0.0720 -0.1637
 2141W        W15555   3.469   4.128   3.748  0.0358  0.1351  0.1338
 2142W        W15556   5.333   8.975  13.674  0.0361  0.1103  0.1043
 2143W        W15557   1.532   3.626  10.768  0.0118 -0.0702 -0.1131
 2144W        W15558   9.787   0.799  13.175 -0.2938 -0.0367 -0.0253
 2145W        W15559   0.857   3.661   4.512  0.0221 -0.2946  0.0381
 2146W        W15560   1.874   1.907   4.418 -0.0344  0.1586  0.1093
 2147W        W15561   0.217   3.630  11.622 -0.2497 -0.2642  0.0864
 2148W        W15562   9.906  18.476  13.643  0.1197 -0.2218 -0.0542
 2149W        W15563  16.682   0.797  12.204  0.1250  0.0782  0.0688
 2150W        W15564  15.806  14.782   4.192 -0.1924  0.1075  0.0504
 2151W        W15565   4.467  13.818  13.245  0.0114  0.1997 -0.0447
 2152W        W15566  14.222  14.794   3.704 -0.1840  0.2507 -0.4083
 2153W        W15567  12.325  15.339  11.891 -0.2589 -0.1120  0.0094
 2154W        W15568  12.441  18.324  15.481  0.0936  0.3542  0.1736
 2155W        W15569  11.698   7.475   2.978 -0.0120  0.1282  0.2417
 2156W        W15570   0.994  11.886   4.121 -0.2302  0.0672 -0.0165
 2157W        W15571   2.848  17.274   1.628  0.2638 -0.3851 -0.2658
 2158W        W15572  12.852   4.907   2.512  0.2805 -0.0524  0.0342
 2159W        W15573   4.710  10.660   6.343  0.0552 -0.0721 -0.0614
 2160W        W15574  11.733   6.419  12.932  0.2080 -0.0275  0.0061
 2161W        W15575   6.128  15.039  15.045 -0.0053  0.2312 -0.2702
 2162W        W15576   0.789   9.352  12.392  0.0855 -0.2411  0.4241
 2163W        W15577   2.407   2.156  12.785  0.1630  0.1681  0.0249
 2164W        W15578   4.957   1.989  12.546  0.0137 -0.0290 -0.0777
 2165W        W15579   1.449  15.414   6.222 -0.0066 -0.0040 -0.2242
 2166W        W15580   9.471   5.961  15.086  0.0005  0.2045  0.0782
 2167W        W15581   8.481  14.941  14.811 -0.0095  0.0498 -0.1114
 2168W        W15582   1.727   4.404  11.290 -0.0978  0.1177 -0.2292
 2169W        W15583   3.958   3.533  10.365 -0.1630 -0.0775  0.1025
 2170W        W15584   9.477   6.069   1.194 -0.3598  0.0953 -0.1194
 2171W        W15585  17.406   7.458  11.134 -0.0127 -0.3281 -0.0611
 2172W        W15586   0.787   4.910   1.035 -0.0474 -0.3119  0.1060
 2173W        W15587  17.735  16.663  14.093 -0.3176 -0.0479  0.0576
 2174W        W15588  15.132  11.899  12.457 -0.0855 -0.0338  0.2315
 2175W        W15589  13.726   0.600   1.576 -0.1814  0.2259 -0.2992
 2176W        W15590  11.084   3.670   5.393  0.1767 -0.1633  0.2246
 2177W        W15591   1.871  13.085  14.607 -0.1230 -0.1692  0.2643
 2178W        W15592  17.684   8.328  12.915 -0.0818  0.0984 -0.2189
 2179W        W15593  17.440   9.094   2.571 -0.1234 -0.0776  0.2126
 2180W        W15594  17.112   9.102  11.198 -0.1963  0.0778  0.1922
 2181W        W15595   1.931   2.375   1.836  0.1697  0.0918 -0.1375
 2182W        W15596  13.802   8.215  10.469  0.1368 -0.0347  0.1502
 2183W        W15597   5.366  15.679  14.187 -0.2871 -0.0428 -0.2008
 2184W        W15598  11.138  14.642  12.849  0.1623 -0.1171 -0.2961
 2185W        W15599  14.146   8.196  13.243 -0.0370  0.2132 -0.0379
 2186W        W15600  11.660  17.298   2.976  0.1451 -0.2407  0.1170
 2187W        W15601   0.894   2.749   3.287 -0.3946 -0.3762 -0.1244
 2188W        W15602   5.824  10.199  13.630  0.0061 -0.1949 -0.3770
 2189W        W15603  16.212   5.897  14.872 -0.0517  0.0435 -0.1576
 2190W        W15604   4.230  12.531   2.382 -0.1733  0.4001 -0.1414
 2191W        W15605   6.293   1.423   6.166  0.3484 -0.1314  0.2545
 2192W        W15606   5.805   3.262   4.905  0.0930 -0.4570 -0.1900
 2193W        W15607   1.774  17.184   3.615 -0.0859 -0.1819  0.0491
 2194W        W15608  13.254  12.556   4.550 -0.5410 -0.1734 -0.2155
 2195W        W15609  13.177   7.681   4.125 -0.5706 -0.2172 -0.1097
 2196W        W15610  15.579   2.563  15.068 -0.2429 -0.0349 -0.1202
 2197W        W15611   3.999  12.241  14.320  0.1575 -0.1725  0.2592
 2198W        W15612   5.288  12.795  11.314 -0.4508  0.3223 -0.0886
 2199W        W15613  16.772   5.190  11.725 -0.0547  0.1989 -0.1729
 2200W        W15614   2.224   4.632  13.610  0.3603  0.0364  0.2532
 2201W        W15615   2.231   6.818   2.459  0.1173  0.1947  0.0191
 2202W        W15616  18.353   5.717   5.088 -0.0016  0.3348  0.3015
 2203W        W15617  10.626  15.610  12.806  0.0334 -0.2356  0.1845
 2204W        W15618   2.552   4.668   5.700 -0.3131  0.1853  0.1101
 2205W        W15619   4.190   2.666  10.480  0.2063  0.1682  0.3648
 2206W        W15620  12.157  15.846   4.099  0.2080 -0.0107 -0.1672
 2207W        W15621   8.591   2.094   3.820 -0.1675 -0.1195 -0.1409
 2208W        W15622   7.030   9.921   0.706 -0.1448 -0.0707  0.1578
 2209W        W15623  13.674  10.064  13.780  0.2451  0.1218 -0.0134
 2210W        W15624   0.768  15.909  13.909 -0.1446  0.0950 -0.2570
 2211W        W15625  12.628   4.566  11.379  0.0084  0.0367  0.3261
 2212W        W15626   7.754  13.351  15.732  0.1623  0.2631 -0.1297
 2213W        W15627  15.976   0.347  11.829 -0.0248  0.3017  0.2469
 2214W        W15628  15.966   0.611  15.382  0.1356 -0.4918 -0.0007
 2215W        W15629   1.241   5.431  15.905  0.2431 -0.1086  0.2441
 2216W        W15630  14.590   0.210   1.896 -0.0925 -0.1115 -0.1037
 2217W        W15631   4.630   4.469  16.244 -0.0635  0.0742 -0.2470
 2218W        W15632   9.223  18.089  13.843  0.0295  0.3367  0.6444
 2219W        W15633   1.267  10.690   2.567 -0.2090 -0.1259 -0.2991
 2220W        W15634   4.296   8.551   3.973 -0.0419  0.2520 -0.2057
 2221W        W15635   8.255   1.187   2.324 -0.0484 -0.1653  0.1274
 2222W        W15636  11.473   3.419   3.645 -0.1608  0.1133  0.0619
 2223W        W15637   1.834   2.039   3.889 -0.0709 -0.2024 -0.1588
 2224W        W15638   9.353   0.449  10.571 -0.1651  0.0165 -0.2769
 2225W        W15639  14.298  11.852   1.573  0.1392 -0.0993  0.0372
 2226W        W15640  12.606  14.426  15.144 -0.1559 -0.1630 -0.1637
 2227W        W15641   5.090  16.631   5.754  0.1494  0.4293  0.2037
 2228W        W15642   1.968   4.077   5.139 -0.0137  0.0620 -0.0219
 2229W        W15643  12.316   4.575  10.001 -0.1243  0.0067 -0.0813
 2230W        W15644  11.243   7.965   5.197 -0.0765 -0.0567 -0.4808
 2231W        W15645   2.619   9.148  13.753 -0.4410  0.1881 -0.2399
 2232W        W15646   9.761  18.132   1.421  0.6147  0.2712 -0.1668
 2233W        W15647  15.818   9.163   0.255  0.1644 -0.2349  0.0885
 2234W        W15648   8.877   1.826   3.493 -0.1333  0.1902  0.2575
 2235W        W15649   6.968  18.208  11.759  0.1711  0.1609 -0.1447
 2236W        W15650   1.833  14.183   2.557 -0.0699  0.0239  0.0611
 2237W        W15651   6.861   3.048   3.523 -0.0309  0.2538 -0.0056
 2238W        W15652  10.819  17.870  12.376  0.2698 -0.0682 -0.2315
 2239W        W15653   7.551  16.111  11.251  0.0272 -0.1581  0.0180
 2240W        W15654   1.609  18.218  14.444  0.3531 -0.0083  0.1853
 2241W        W15655  12.224   8.749  11.327 -0.1470 -0.0207 -0.1088
 2242W        W15656  10.769   5.015   4.323  0.3328 -0.1918 -0.0687
 2243W        W15657   9.656   4.580  14.851  0.2901  0.3537 -0.0352
 2244W        W15658   1.399  10.767  12.572 -0.0059  0.1540  0.2251
 2245W        W15659   4.874   5.905  11.171 -0.0087 -0.2805  0.2302
 2246W        W15660   7.226  17.456   2.985  0.0713  0.2402 -0.1477
 2247W        W15661   6.390   9.014  14.370  0.2606  0.2918  0.3354
 2248W        W15662   7.135   5.512   0.990 -0.0686 -0.0075  0.0960
 2249W        W15663  12.931  14.412  12.635  0.0203  0.1802  0.0055
 2250W        W15664  11.822  17.180   1.940 -0.1180 -0.2815  0.2953
 2251W        W15665   5.773  10.570   2.927  0.1513 -0.2509  0.2936
 2252W        W15666   0.187   6.996  11.027  0.0851  0.0862  0.4275
 2253W        W15667   6.228   0.575   5.099 -0.0361  0.3243  0.0505
 2254W        W15668  11.661  15.859   4.283  0.1884  0.2625 -0.2113
 2255W        W15669  16.357   7.653  14.919 -0.1255 -0.1769  0.0932
 2256W        W15670   3.581  14.062  10.801 -0.1882 -0.0184 -0.1096
 2257W        W15671  17.816  18.161   0.000  0.1305 -0.4346  0.0110
 2258W        W15672   2.883  14.938   2.188 -0.2409 -0.2355 -0.1568
 2259W        W15673  12.232   6.186  15.250 -0.0554 -0.1530 -0.0211
 2260W        W15674   0.934  17.372   5.168 -0.1617  0.0031 -0.1721
 2261W        W15675   2.779   7.805  15.480  0.0045 -0.2720 -0.3181
 2262W        W15676  16.708  10.730  11.815 -0.1224  0.0429 -0.0509
 2263W        W15677   7.095  12.377  11.977  0.1125 -0.2116 -0.0201
 2264W        W15678  11.920  10.405  15.332 -0.1263  0.2251  0.1542
 2265W        W15679   2.505   4.523   0.240 -0.1523 -0.4292 -0.0310
 2266W        W15680  15.616   4.502   5.637  0.0624  0.0181  0.2857
 2267W        W15681   5.087   2.455   1.454 -0.0076  0.0332  0.0616
 2268W        W15682   5.298   8.395  14.974 -0.5305  0.0792  0.2269
 2269W        W15683   0.372  13.756  14.571  0.0773  0.2350  0.1131
 2270W        W15684   7.104  13.738  12.470 -0.0456 -0.2734 -0.2922
 2271W        W15685  16.461  16.549  16.147  0.1328  0.2381  0.1481
 2272W        W15686  18.095   7.227  14.821  0.3676 -0.0491  0.2118
 2273W        W15687   3.799  12.154  12.945 -0.1967  0.1467 -0.1994
 2274W        W15688  10.334  17.237   9.870 -0.0521 -0.0718 -0.0573
 2275W        W15689  16.504   2.422   4.161 -0.0980 -0.0006 -0.3502
 2276W        W15690   9.494   3.357  10.624  0.1723 -0.0322 -0.3666
 2277W        W15691  15.553   6.493   3.408  0.2431 -0.1256 -0.1750
 2278W        W15692  18.032  15.654   4.459 -0.0221 -0.2841 -0.0559
 2279W        W15693  15.417   6.564   4.388 -0.3208  0.0596  0.0774
 2280W        W15694   4.501   1.034   1.474  0.0817 -0.1629  0.1756
 2281W        W15695   4.975  11.571  10.935 -0.0770  0.2711 -0.2145
 2282W        W15696   3.488  14.798  11.929 -0.3103  0.3133 -0.1438
 2283W        W15697   9.154  12.839   5.332 -0.0106  0.0927 -0.0469
 2284W        W15698   5.961   7.220   2.798 -0.2153 -0.3567 -0.2148
 2285W        W15699   6.413  13.574   3.428  0.2168  0.1772  0.1081
 2286W        W15700  11.115   5.257   5.371  0.0845 -0.0424 -0.0533
 2287W        W15701   2.344  12.253  10.978 -0.5792 -0.0444 -0.2365
 2288W        W15702   5.291  10.622  16.215  0.1225  0.0363 -0.4285
 2289W        W15703   3.174  11.864  12.139  0.2489 -0.2202  0.0558
 2290W        W15704   9.613  16.641  13.633  0.0714  0.0222 -0.0245
 2291W        W15705   3.902  12.736   0.995  0.0383  0.1757 -0.1303
 2292W        W15706   0.040   5.768   3.920  0.1474  0.0086  0.0512
 2293W        W15707   2.381  13.965  12.764  0.0748  0.0856  0.1293
 2294W        W15708  10.870   2.588   0.904  0.0181  0.0921 -0.2459
 2295W        W15709   6.538   3.639  11.292  0.2918  0.2117 -0.3132
 2296W        W15710  17.656   3.873  13.337 -0.2745  0.1779  0.2140
 2297W        W15711   7.288  12.709   0.068  0.1745 -0.1572  0.2083
 2298W        W15712  10.503   1.998  13.996 -0.1660 -0.0062 -0.3149
 2299W        W15713  14.378   4.698   5.165  0.1872 -0.0573  0.1077
 2300W        W15714   6.824  13.668   0.073 -0.0608 -0.0397  0.0397
 2301W        W15715   7.488   7.372   5.787  0.2818 -0.1957  0.1622
 2302W        W15716  10.350  15.794   0.974  0.1233  0.2877 -0.0385
 2303W        W15717   6.044   0.096   5.339  0.1301  0.1277  0.1163
 2304W        W15718  14.337  16.256   0.234 -0.2232 -0.0157  0.2588
 2305W        W15719   1.454  10.592   3.996  0.0379 -0.2628  0.0782
 2306W        W15720  11.233   1.527   2.406  0.0914  0.0911  0.1212
 2307W        W15721   7.430   4.061   3.855 -0.5370  0.2218 -0.0495
 2308W        W15722  14.519   7.819  10.119 -0.0133  0.2008  0.2207
 2309W        W15723  17.023  17.739   0.519  0.4002  0.2596 -0.1225
 2310W        W15724   1.418  12.330   1.173 -0.2683  0.2206  0.3838
 2311W        W15725   6.784  15.217  10.270 -0.0369  0.0221 -0.0021
 2312W        W15726  13.035   9.984  13.545  0.1780  0.1541 -0.0669
 2313W        W15727  17.929   3.179  12.801  0.4090  0.0621  0.0113
 2314W        W15728  17.393  15.118  14.862 -0.0151 -0.2417  0.0854
 2315W        W15729  12.134   9.165  11.753 -0.0429  0.3818 -0.0738
 2316W        W15730  18.462   7.608   3.277  0.0977  0.4030  0.0102
 2317W        W15731  11.034  15.720  15.940 -0.0123  0.2234 -0.1909
 2318W        W15732  13.035  16.189  12.141 -0.2295 -0.0054  0.3115
 2319W        W15733   3.192  15.850   1.389 -0.1172  0.0692  0.2710
 2320W        W15734   1.098   5.625  12.492 -0.0256  0.0125 -0.1348
 2321W        W15735  12.983   6.598   0.853 -0.3971  0.2492  0.2401
 2322W        W15736   5.079   9.455   4.055  0.1431 -0.2544  0.3961
 2323W        W15737   3.368   3.681   5.626  0.0649  0.4139  0.0519
 2324W        W15738  15.953   0.933   0.819  0.2467  0.1331  0.0737
 2325W        W15739   1.961  16.367  11.613  0.3710 -0.1164  0.2664
 2326W        W15740  10.441  18.211   0.353  0.2399  0.1153 -0.1428
 2327W        W15741   7.897  17.194   3.368 -0.0813 -0.0635  0.1797
 2328W        W15742   3.279  12.599   4.368  0.2160  0.0272 -0.1086
 2329W        W15743  18.094   0.601  14.809 -0.1713  0.2252  0.2821
 2330W        W15744   5.258   0.545   6.140  0.1469  0.0992 -0.0408
 2331W        W15745  15.831   9.702   0.196  0.3674 -0.0878 -0.0500
 2332W        W15746  17.601  16.014  12.198 -0.0702  0.2084  0.0956
 2333W        W15747  16.705  15.643   4.648 -0.4510 -0.1578 -0.1079
 2334W        W15748  17.883   0.723   2.979 -0.1544 -0.1846 -0.1558
 2335W        W15749   1.798   2.278   0.482 -0.1691 -0.1036 -0.3431
 2336W        W15750  16.453  12.803   4.358  0.0193 -0.0389  0.0316
 2337W        W15751  16.657   4.383  15.096 -0.0530 -0.0458 -0.0592
 2338W        W15752   9.272   7.589   0.026 -0.0849  0.0965 -0.1037
 2339W        W15753   2.264   0.402   3.254  0.1304 -0.1002  0.1818
 2340W        W15754  18.064   6.309  13.193 -0.1852  0.0279 -0.0137
 2341W        W15755   6.705  13.082   0.887  0.1687  0.0626 -0.0065
 2342W        W15756   0.054  14.825  14.545 -0.1786 -0.2266  0.1600
 2343W        W15757   4.719   3.783   1.435 -0.2649 -0.1513  0.1050
 2344W        W15758  17.017  12.377   0.384 -0.0045  0.2809 -0.1724
 2345W        W15759   9.249  13.302   4.440 -0.0471  0.1416  0.0282
 2346W        W15760  13.045  11.772   5.526 -0.0313 -0.0975  0.2135
 2347W        W15761   1.023  12.725  14.148  0.3184 -0.0650 -0.0262
 2348W        W15762   4.656  13.617   1.293  0.0649  0.0924 -0.0129
 2349W        W15763   6.626  12.159  10.912 -0.1229 -0.0720  0.3924
 2350W        W15764   8.646   8.641   2.142 -0.4253  0.1065  0.2603
 2351W        W15765  15.496   7.641  13.195  0.4563 -0.1936 -0.0077
 2352W        W15766   2.677   8.713  12.608 -0.5541  0.0373 -0.2830
 2353W        W15767   6.104  10.177  14.817  0.0831  0.1042 -0.1824
 2354W        W15768  12.792   2.155  13.760 -0.0121 -0.0734  0.0072
 2355W        W15769   9.331   0.015  10.979  0.1655 -0.0826  0.2479
 2356W        W15770  11.482   2.927  12.739  0.0432  0.1313 -0.0416
 2357W        W15771   6.022   2.392  13.448  0.0593  0.5062  0.1108
 2358W        W15772   4.243  13.570   3.998 -0.0396 -0.1863 -0.2651
 2359W        W15773  16.587  14.287   0.929 -0.1259  0.0874  0.0896
 2360W        W15774  17.578  12.765   1.508 -0.0956 -0.1126 -0.0769
 2361W        W15775  17.640   1.155   3.355 -0.1588 -0.2756  0.0690
 2362W        W15776  15.033   7.874   0.339 -0.0666  0.4351 -0.0197
 2363W        W15777  16.286   3.728  10.538  0.0168 -0.1717 -0.0359
 2364W        W15778   3.656  13.397   1.440  0.0159 -0.3808 -0.2873
 2365W        W15779   9.327  15.154   4.058 -0.1399 -0.1277 -0.0616
 2366W        W15780  10.751   8.252  11.513  0.0704  0.0173  0.4807
 2367W        W15781  17.081   6.704  15.740  0.1625 -0.0086  0.1019
 2368W        W15782  14.525   5.807   5.409  0.1230  0.1845 -0.0823
 2369W        W15783   3.714   5.704  13.617 -0.1501  0.1786 -0.4136
 2370W        W15784   5.568   9.823  16.131 -0.0586  0.0564  0.1550
 2371W        W15785   3.321   3.078   1.141  0.2722 -0.3544  0.1060
 2372W        W15786   6.569  12.318   3.966 -0.2349 -0.0412  0.0227
 2373W        W15787  12.951  16.468   2.697 -0.1551  0.1849  0.1676
 2374W        W15788   9.703   5.722  11.881 -0.2603 -0.0851 -0.1629
 2375W        W15789  17.648  13.191   5.452 -0.1130  0.1252  0.0460
 2376W        W15790  15.129  10.290   3.001 -0.0637  0.0965 -0.1257
 2377W        W15791   3.042   9.643  11.011 -0.2974  0.0188  0.0644
 2378W        W15792   7.399   5.194  13.609 -0.0727  0.1849  0.2542
 2379W        W15793   6.126   7.318  15.526  0.0876 -0.1069  0.1544
 2380W        W15794   0.738  10.656  11.881  0.0748 -0.1854 -0.3013
 2381W        W15795  12.581  14.529  14.351 -0.2110  0.4473  0.0951
 2382W        W15796   7.001   3.730   2.077 -0.1122  0.0515  0.0255
 2383W        W15797   6.002   7.950   3.818  0.1209 -0.1313  0.1199
 2384W        W15798  12.056   2.742   1.744  0.1933 -0.0992 -0.1063
 2385W        W15799  17.593  17.827   0.241  0.2111  0.4407 -0.2903
 2386W        W15800   3.079   2.105   0.158  0.0421  0.1614  0.0181
 2387W        W15801   8.596   3.436   0.867  0.3059 -0.1197 -0.2694
 2388W        W15802   1.916   8.514  14.768 -0.2900 -0.0002  0.0287
 2389W        W15803  18.203   8.114   3.167  0.0387  0.0456 -0.3901
 2390W        W15804   3.242  13.897   4.720  0.0551  0.1338 -0.0630
 2391W        W15805   3.117   0.768   4.085 -0.0865  0.1821  0.0210
 2392W        W15806   3.590   7.653  13.019 -0.0360 -0.2136  0.3276
 2393W        W15807   2.592  10.974   0.089 -0.0278 -0.0784 -0.1066
 2394W        W15808  18.157   4.471  11.498 -0.1219 -0.1270  0.0992
 2395W        W15809   4.504   9.828  12.968  0.1486  0.0061  0.2212
 2396W        W15810   4.135  17.993  14.963  0.1828 -0.0634  0.4109
 2397W        W15811   3.692   0.249   1.278  0.1388 -0.1431 -0.0755
 2398W        W15812   6.458  15.151  14.287  0.0107 -0.1950  0.4418
 2399W        W15813   9.977  11.916  14.951  0.2408  0.1267 -0.1672
 2400W        W15814   0.899   7.388  13.334  0.0746  0.1151  0.2174
 2401W        W15815  13.856   2.280  10.594  0.3344  0.2750  0.2375
 2402W        W15816   3.261   8.034  13.033 -0.0446  0.3147  0.1847
 2403W        W15817   6.339   1.615  11.200  0.2266 -0.0539  0.0866
 2404W        W15818  17.886  14.543  16.012 -0.2573 -0.0755 -0.2446
 2405W        W15819  12.279  12.497   1.267  0.0794  0.3384 -0.0807
 2406W        W15820  17.217  10.787   5.301  0.1676  0.2168  0.2313
 2407W        W15821  13.083   7.492  12.728  0.0767  0.1405 -0.2738
 2408W        W15822   2.877   6.302   3.983  0.0546  0.0157 -0.1137
 2409W        W15823   9.990   5.626   3.141  0.0801  0.2420  0.1286
 2410W        W15824   8.933   6.253  16.006 -0.1869 -0.1804  0.1798
 2411W        W15825  14.350   9.655  13.191 -0.2792 -0.0025  0.0369
 2412W        W15826  12.408   0.045  14.580  0.2134 -0.0821  0.3864
 2413W        W15827   5.591   0.006  15.884 -0.1398 -0.2747 -0.0081
 2414W        W15828  17.344   0.838  11.456  0.0777 -0.0440 -0.0591
 2415W        W15829  10.634   1.832   2.378  0.2071  0.0678  0.0119
 2416W        W15830   9.785  15.280  11.574  0.1221  0.0994 -0.0146
 2417W        W15831  14.718  16.786  13.527 -0.1836  0.1084  0.0697
 2418W        W15832   9.896   0.797   4.177  0.0384  0.2240 -0.0400
 2419W        W15833  12.867  15.430   5.259 -0.0801  0.2746  0.0062
 2420W        W15834   7.094  16.859   1.465  0.2045  0.1380 -0.2051
 2421W        W15835   3.553  13.355   0.049  0.0293 -0.1597  0.3663
 2422W        W15836   7.821   0.010   4.638 -0.0161  0.1164  0.1976
 2423W        W15837  12.478  13.253   1.721  0.0789  0.0577  0.1814
 2424W        W15838  16.119   5.106   1.752  0.2365  0.0194 -0.6663
 2425W        W15839   8.757  13.060   4.553  0.0537  0.1043  0.2752
 2426W        W15840   8.050   2.304  15.277  0.0672 -0.1048 -0.0568
 2427W        W15841   3.333  15.515  15.677  0.0567 -0.0862  0.2497
 2428W        W15842   5.645  17.494  11.531 -0.0835  0.1185  0.0517
 2429W        W15843   4.335   0.455  11.903  0.0147 -0.0436 -0.0451
 2430W        W15844   6.849   7.689   1.178  0.1294 -0.1332  0.1045
 2431W        W15845   6.034  17.318  12.111  0.1777 -0.1935 -0.2550
 2432W        W15846  17.333  14.188   4.945  0.2410  0.1480  0.1390
 2433W        W15847   9.624   6.825  12.962  0.3536 -0.1820  0.4565
 2434W        W15848  11.620   5.688   1.783 -0.2266  0.1636  0.1878
 2435W        W15849  11.493   4.357   1.415  0.0806  0.0487  0.0355
 2436W        W15850  12.966   7.085  14.315  0.0551  0.0599 -0.0825
 2437W        W15851   1.205  11.048   1.874  0.2088  0.3060  0.0075
 2438W        W15852  11.845  16.659  11.772 -0.1991  0.0280  0.1820
 2439W        W15853  17.676  14.293   3.068 -0.1291  0.2430 -0.1308
 2440W        W15854   3.933   6.257  11.661 -0.0416  0.1578 -0.1270
 2441W        W15855   5.539  18.244  16.264  0.1501 -0.0309  0.0372
 2442W        W15856  14.652   6.553   4.972 -0.1564 -0.2131 -0.1304
 2443W        W15857  10.146   7.747  15.835  0.0533 -0.1537 -0.1722
 2444W        W15858   5.165   3.259   1.333  0.2084 -0.0281  0.1566
 2445W        W15859   7.502   6.802   1.168  0.2119  0.0714 -0.0217
 2446W        W15860   2.083   4.390  14.036 -0.0539  0.1179 -0.0198
 2447W        W15861   3.416   6.878   4.851  0.0681 -0.2479 -0.1254
 2448W        W15862   8.936   3.173  15.271  0.0874  0.0025  0.1319
 2449W        W15863   6.670  13.827  13.052  0.0073  0.0328 -0.0795
 2450W        W15864   7.919   5.379  13.619 -0.2655 -0.3652 -0.0369
 2451W        W15865  14.551   9.943  12.123  0.1234 -0.0128 -0.5033
 2452W        W15866   7.794   5.186  14.758  0.0062  0.0086 -0.1029
 2453W        W15867   2.899   4.474  12.216 -0.2124 -0.0381 -0.2288
 2454W        W15868  13.499   4.820   5.938  0.3334  0.0926  0.1450
 2455W        W15869  17.485  11.695  12.940  0.2336  0.0246  0.3515
 2456W        W15870  18.318  11.105   0.287  0.3280  0.1097  0.2591
 2457W        W15871  10.605  13.369   2.103  0.1808 -0.0478  0.0692
 2458W        W15872  17.947  15.104   1.028 -0.0732  0.0623 -0.1799
 2459W        W15873   4.237  13.824  11.483 -0.3020 -0.0430 -0.0040
 2460W        W15874   6.994   2.666   1.546  0.1886  0.2609  0.0942
 2461W        W15875   4.888  12.313   4.798  0.0693 -0.2392 -0.1520
 2462W        W15876  10.166  11.692   5.750  0.1420  0.0906 -0.2996
 2463W        W15877   4.680   6.521   6.179 -0.1221  0.1523  0.0352
 2464W        W15878  14.514  14.534   1.612 -0.0187  0.1094 -0.6233
 2465W        W15879   6.913   3.387   3.926 -0.0986 -0.1461 -0.2195
 2466W        W15880  10.771  16.715  10.591 -0.0467 -0.1139 -0.0598
 2467W        W15881   5.158   6.394   5.872  0.0158  0.1043  0.1534
 2468W        W15882   6.105  18.433  15.794 -0.0019 -0.0886  0.4779
 2469W        W15883   0.493  13.397   1.791  0.1493 -0.2337  0.0742
 2470W        W15884   3.040  11.257  10.960  0.1214  0.0336  0.1561
 2471W        W15885   7.066  15.310   4.383 -0.0748 -0.0187  0.3505
 2472W        W15886   4.080   1.329   5.002 -0.4419  0.1447 -0.4243
 2473W        W15887   6.703   8.391   5.597  0.1566  0.0446  0.1989
 2474W        W15888  11.653  15.217  15.141 -0.5203 -0.2093  0.2295
 2475W        W15889   9.248   4.718  10.662  0.1801 -0.2074  0.2845
 2476W        W15890   1.987   6.486   3.455  0.2413  0.0510 -0.0406
 2477W        W15891   2.531   4.822  14.909  0.0519  0.2496  0.0023
 2478W        W15892   5.386  14.933  16.172  0.0878  0.3273  0.0796
 2479W        W15893   0.254  15.393   3.363  0.1373  0.0723  0.2710
 2480W        W15894   0.222  11.534   5.112 -0.2744 -0.2001  0.3820
 2481W        W15895  12.579   6.056   0.450  0.2006  0.2038  0.1364
 2482W        W15896   8.069  12.182   2.068  0.0301 -0.2006  0.0233
 2483W        W15897   8.785  14.057   2.210  0.0398 -0.0467 -0.2639
 2484W        W15898   3.644  12.679  11.339 -0.1045  0.0649  0.0902
 2485W        W15899  12.736   7.733  13.536 -0.0515  0.2144  0.0643
 2486W        W15900   6.359   6.417   0.091  0.1088 -0.0925 -0.1678
 2487W        W15901  10.966  11.581  14.268  0.0723  0.2950  0.2383
 2488W        W15902   6.314   3.468  11.785  0.1055 -0.2293  0.0323
 2489W        W15903   9.490   0.448  11.172 -0.0251 -0.2442  0.3093
 2490W        W15904  11.220  10.576  12.958 -0.0467  0.0238 -0.4442
 2491W        W15905  17.849   9.356   2.389 -0.0055  0.0013  0.3298
 2492W        W15906   7.800  16.387   2.529 -0.0309  0.1056  0.0706
 2493W        W15907   6.955  17.538  15.200 -0.2632 -0.1989  0.3935
 2494W        W15908   9.398  14.303   4.093 -0.1568  0.2667 -0.1301
 2495W        W15909  17.749  10.847   4.020 -0.0234  0.0995  0.3197
 2496W        W15910   5.631   6.944   3.077  0.0720 -0.2627  0.2057
 2497W        W15911   9.390   3.249  15.043  0.0108 -0.0597 -0.1735
 2498W        W15912   3.361   9.529  15.871  0.0121  0.1100  0.0928
 2499W        W15913  12.148  14.502  12.037  0.2177 -0.1066  0.0273
 2500W        W15914   8.520   5.591   5.477 -0.2366 -0.1809 -0.0349
 2501W        W15915   3.091   6.910   1.929  0.0188  0.1940 -0.1847
 2502W        W15916  18.047   4.664   0.734 -0.0825 -0.3743  0.0220
 2503W        W15917  16.656   3.856   5.302  0.0302 -0.2389 -0.1335
 2504W        W15918   1.035  11.061  12.778 -0.4046  0.2199 -0.1174
 2505W        W15919  13.249   1.747  15.224  0.1206 -0.0455 -0.4188
 2506W        W15920   3.371  13.244  12.393 -0.1198 -0.1203 -0.0695
 2507W        W15921   9.485   3.865   2.108 -0.2191  0.1681 -0.1447
 2508W        W15922  12.148  10.217   5.496 -0.0961  0.0029  0.0492
 2509W        W15923  18.365   2.648  12.876  0.1472 -0.1475  0.1817
 2510W        W15924   9.816  15.306   0.510  0.0796 -0.3757  0.3610
 2511W        W15925  12.472  14.560   3.374 -0.0030  0.2551 -0.0099
 2512W        W15926  17.347  17.289   1.231  0.2636  0.0803 -0.3376
 2513W        W15927  10.609   8.728  11.591 -0.1636 -0.0628 -0.1098
 2514W        W15928  18.228   8.630   5.603 -0.1098 -0.3562 -0.0181
 2515W        W15929   5.915  11.009   4.160  0.2952  0.0714 -0.1443
 2516W        W15930  10.446   5.047   4.825  0.1143  0.0282  0.2034
 2517W        W15931  13.913   6.484   3.725  0.2698 -0.0718 -0.0517
 2518W        W15932   7.611  14.758  10.638 -0.0115  0.1347 -0.1962
 2519W        W15933  11.002   2.739   0.048 -0.0661  0.1623  0.0237
 2520W        W15934   8.505  12.651  11.845 -0.2409 -0.1144  0.0461
 2521W        W15935  11.873  13.933   5.413  0.3518 -0.0273  0.0852
 2522W        W15936  11.539   8.542  15.204  0.0728 -0.0902  0.1857
 2523W        W15937   2.273  15.328   5.963 -0.2503  0.0341  0.2394
 2524W        W15938   9.252  10.589   0.466  0.0318  0.2333  0.1567
 2525W        W15939  15.730  11.731  14.559  0.1711 -0.0011  0.6322
 2526W        W15940  14.779   9.680   0.385 -0.3890  0.2451  0.0665
 2527W        W15941  17.121  16.813  15.193  0.2039  0.0320 -0.0503
 2528W        W15942   4.845   5.999   1.846 -0.0051 -0.3644  0.2767
 2529W        W15943  18.178   3.596   0.814 -0.2709 -0.1581 -0.1390
 2530W        W15944  10.810  12.547  12.231  0.0579 -0.0841  0.3947
 2531W        W15945   9.524  14.588  11.515 -0.2947  0.2785 -0.0159
 2532W        W15946  16.694  17.482   2.067  0.2318  0.1518  0.0746
 2533W        W15947   6.777  16.598   0.403 -0.1022  0.0769 -0.0286
 2534W        W15948  16.675  12.610   4.995 -0.0181 -0.0249  0.3099
 2535W        W15949  12.568   8.981  13.467 -0.1223  0.2662  0.0329
 2536W        W15950  15.174   2.891   4.204  0.1760 -0.3835  0.0454
 2537W        W15951   7.829   6.846   3.218  0.0441 -0.0979 -0.1074
 2538W        W15952   0.466   7.219  14.170 -0.0542  0.0468  0.0680
 2539W        W15953  18.189   1.986   1.650 -0.2308 -0.0642 -0.1546
 2540W        W15954   5.590   3.782  12.291  0.2394 -0.2382  0.0970
 2541W        W15955  16.206  15.739  15.841 -0.3040 -0.0177  0.0288
 2542W        W15956   0.759   5.238   0.530 -0.3375 -0.2831 -0.0310
 2543W        W15957  15.477   5.840   2.022  0.1402  0.2392  0.1397
 2544W        W15958   4.945   2.446  14.753 -0.2000 -0.0309 -0.1500
 2545W        W15959  16.565  14.568   5.539 -0.4289  0.1205 -0.4084
 2546W        W15960   8.473   8.354  13.844  0.0150  0.1251  0.2490
 2547W        W15961   9.364  15.297   4.543 -0.0761 -0.1570 -0.2352
 2548W        W15962  17.453   5.919  13.176 -0.3220  0.0097 -0.2664
 2549W        W15963  16.902   7.530   6.691  0.2131 -0.0488  0.2904
 2550W        W15964  14.244  13.386   2.399  0.0126  0.1410  0.1647
 2551W        W15965  11.240   5.119  12.466 -0.1531  0.2399  0.0896
 2552W        W15966   2.766   4.952   1.645  0.1154  0.0523  0.1336
 2553W        W15967  12.408   8.730   6.566 -0.0916 -0.1152  0.1665
 2554W        W15968   7.283   2.963   0.649  0.2174  0.2079 -0.0120
 2555W        W15969   7.219   8.565   1.924 -0.4389  0.2983 -0.0193
 2556W        W15970  17.227  13.677   1.953  0.0713 -0.1856  0.1291
 2557W        W15971  10.234   3.053  11.771 -0.0965  0.1777 -0.2477
 2558W        W15972   5.004  16.089   0.105  0.1787 -0.3030 -0.0372
 2559W        W15973  16.634  14.189   4.502 -0.0674  0.0438 -0.1632
 2560W        W15974   3.820   6.536  15.812  0.3275  0.3101  0.0135
 2561W        W15975   8.402   5.200  13.218 -0.0496  0.0208 -0.1368
 2562W        W15976  12.644   4.270  15.455 -0.1019 -0.2714 -0.0799
 2563W        W15977   8.159  10.322   4.742 -0.0631  0.0381 -0.1216
 2564W        W15978   4.940  17.114   4.039 -0.0627 -0.2330 -0.0324
 2565W        W15979  15.063  13.992   2.287 -0.4718  0.2247 -0.0113
 2566W        W15980   4.261  11.173   0.088 -0.0682  0.2742  0.1223
 2567W        W15981   6.257   9.500   5.261  0.1141 -0.0236  0.0366
 2568W        W15982  11.285  11.355  13.385  0.1188 -0.1854  0.0835
 2569W        W15983  10.901   5.156   2.889  0.0158  0.3001  0.2586
 2570W        W15984   0.433   4.866   3.496  0.0451  0.3615  0.1961
 2571W        W15985   7.611   2.052   4.608  0.1930  0.0786 -0.4607
 2572W        W15986  12.826   9.152  15.467 -0.2699 -0.1792 -0.1423
 2573W        W15987   1.495  13.015   3.482  0.3366  0.0890  0.0151
 2574W        W15988  14.607  17.136  13.918 -0.0967  0.2635  0.0084
 2575W        W15989   8.663  11.771  13.941 -0.0900  0.1681 -0.3456
 2576W        W15990   1.974  14.457   4.930 -0.1302 -0.0187  0.3014
 2577W        W15991  17.926  10.459   0.894  0.0935  0.1090  0.1420
 2578W        W15992  10.320   7.378  11.250  0.1538  0.2092 -0.5350
 2579W        W15993   9.903  13.314   2.508  0.0820  0.0458  0.1927
 2580W        W15994  17.822  14.356   0.253 -0.0666 -0.0593  0.0061
 2581W        W15995   9.532   0.922  14.220 -0.2373  0.0193  0.1743
 2582W        W15996  10.121  11.452   3.742  0.0808  0.1928  0.0563
 2583W        W15997  13.202  18.063   2.117 -0.1982  0.2625 -0.2048
 2584W        W15998   8.044  14.251  15.207 -0.2099  0.0921  0.1147
 2585W        W15999  11.713   4.186  12.168 -0.2135  0.1253 -0.0446
 2586W        W16000   1.985   5.592   1.411 -0.2342  0.0892  0.2523
 2587W        W16001   3.263   2.083  11.609  0.1434 -0.1228  0.2593
 2588W        W16002  14.065  17.050   5.670 -0.3398  0.0242 -0.1698
 2589W        W16003   3.767  17.096   1.572  0.0793 -0.0286  0.1320
 2590W        W16004  12.560  16.249  15.931  0.1567  0.0014 -0.0877
 2591W        W16005  16.306   3.475  12.568  0.0964  0.2676  0.0125
 2592W        W16006   7.811  16.006  12.122  0.0656  0.3501  0.0725
 2593W        W16007  15.227   5.512   1.463  0.3315 -0.1187 -0.1020
 2594W        W16008   7.471  18.097   3.425 -0.0473 -0.1536  0.0691
 2595W        W16009  13.003  17.248  13.883  0.1937  0.1173 -0.0583
 2596W        W16010   0.830   2.353   2.206 -0.0606  0.0032 -0.0043
 2597W        W16011  12.376   7.316   1.059 -0.2623  0.5019  0.1702
 2598W        W16012  16.258   9.961  14.055  0.0824 -0.1278  0.0738
 2599W        W16013  11.370   9.379   0.638  0.2060 -0.0611  0.3392
 2600W        W16014   1.626   3.912  11.214 -0.3528 -0.2048  0.0188
 2601W        W16015   8.954  14.603  15.403  0.0644 -0.0065  0.1192
 2602W        W16016   4.854  17.919  12.823 -0.0100  0.2392  0.0691
 2603W        W16017  12.812   5.888  15.928  0.0023 -0.1386  0.1582
 2604W        W16018  10.255   9.909   1.306  0.0283  0.0510 -0.1984
 2605W        W16019   6.153  14.600   0.449  0.1739 -0.0680 -0.1152
 2606W        W16020   5.988   7.167   0.313 -0.2471 -0.2497 -0.3466
 2607W        W16021   0.074   7.827   0.169  0.1859  0.2650 -0.2647
 2608W        W16022   6.148   6.220  10.694  0.5302 -0.1048  0.0401
 2609W        W16023   6.972   8.520   1.426 -0.2077  0.1362 -0.0356
 2610W        W16024   9.825   8.756  13.753  0.2363  0.2958  0.0069
 2611W        W16025   9.802   5.277   6.057  0.2284 -0.1803 -0.0274
 2612W        W16026  14.921  12.697  13.837 -0.1808  0.2668 -0.0015
 2613W        W16027  12.824  10.886  13.064 -0.0552  0.3034 -0.1611
 2614W        W16028  14.307  14.937  11.915 -0.1444  0.0660  0.2722
 2615W        W16029  14.987   6.167   1.203  0.4590 -0.0389 -0.1738
 2616W        W16030  11.521   2.267   1.741 -0.0584 -0.0823  0.1473
 2617W        W16031  12.498   3.287  15.716  0.2754 -0.0819  0.0709
 2618W        W16032  13.468   1.772   1.054 -0.0672 -0.2596  0.1009
 2619W        W16033   5.493   1.038   4.940 -0.1050 -0.4840  0.2954
 2620W        W16034  14.449   2.341  12.005  0.0880  0.1727 -0.1212
 2621W        W16035  14.130  15.821   0.189 -0.0361  0.1440  0.0633
 2622W        W16036  16.391   9.616   4.900  0.2954  0.0015 -0.0376
 2623W        W16037  16.891   6.648   5.498  0.0986  0.2025  0.1124
 2624W        W16038   5.503   8.044  15.297 -0.2077  0.0291 -0.0570
 2625W        W16039  17.864  13.982   3.457 -0.0704 -0.0710  0.1328
 2626W        W16040   2.128   9.124  15.294  0.4028 -0.1973 -0.5354
 2627W        W16041   2.562   1.772  10.981  0.3380 -0.0633 -0.5454
 2628W        W16042   2.356   4.295   1.219  0.2387  0.2065 -0.0836
 2629W        W16043   4.783  10.674  16.217 -0.0145 -0.0288 -0.1007
 2630W        W16044  17.333  16.771   3.171 -0.2510 -0.2134 -0.1972
 2631W        W16045  17.650   6.986   3.752  0.2670  0.0791  0.0148
 2632W        W16046  16.382   3.875   4.414 -0.3519  0.0158 -0.2862
 2633W        W16047  10.677  13.674   3.940  0.0464 -0.0358  0.0486
 2634W        W16048  18.513   3.242   1.732  0.1882 -0.2547 -0.0477
 2635W        W16049  13.090  11.845   5.025 -0.5156 -0.2376  0.3606
 2636W        W16050   8.067   2.820   4.113  0.0235 -0.0892  0.0945
 2637W        W16051  16.595  15.049  11.901 -0.5795  0.1539 -0.1781
 2638W        W16052   8.250   6.261   3.730 -0.0700  0.1676 -0.1690
 2639W        W16053  16.342  15.367  11.055  0.0204  0.0111  0.0741
 2640W        W16054  12.155  13.579   4.035  0.0898  0.1483  0.1493
 2641W        W16055   6.321   2.293  12.345 -0.1275  0.0516 -0.1107
 2642W        W16056  13.889   8.814  16.122 -0.1567 -0.4891 -0.2768
 2643W        W16057   9.782  12.073  15.458 -0.0203 -0.1269 -0.0673
 2644W        W16058   0.625  11.412   0.994 -0.2475  0.1563 -0.1392
 2645W        W16059  13.996  16.984   3.866 -0.0388 -0.3250  0.3231
 2646W        W16060  11.365   6.166   1.688  0.0660  0.2105 -0.0643
 2647W        W16061  12.355  13.432  14.520 -0.2554 -0.0958 -0.1914
 2648W        W16062   6.555   2.799   2.244  0.0978 -0.0617 -0.1589
 2649W        W16063  15.602   7.400   3.193  0.1760  0.2662  0.1284
 2650W        W16064  15.885   2.593   1.464  0.0421 -0.0062 -0.0014
 2651W        W16065  10.935   4.210  15.778 -0.0393  0.2197  0.1637
 2652W        W16066   2.562  14.081  14.625  0.0632  0.0026  0.0513
 2653W        W16067  15.999  15.606  11.400 -0.0188 -0.2288  0.3286
 2654W        W16068   0.570   2.327   0.791  0.0755  0.2402 -0.2449
 2655W        W16069  18.145   0.314   4.126 -0.3096 -0.2241  0.0405
 2656W        W16070   4.451  18.270   1.029 -0.2248 -0.0544 -0.0881
 2657W        W16071   1.630   9.073  13.701 -0.3846  0.2072 -0.0167
 2658W        W16072   9.430  13.950  14.715  0.3000 -0.2883 -0.0893
 2659W        W16073   8.517   7.961  11.306  0.2483 -0.0006 -0.3030
 2660W        W16074   6.045   0.507   0.236 -0.0621  0.0210 -0.0518
 2661W        W16075  10.035   7.347  15.462 -0.3039 -0.1648  0.1818
 2662W        W16076   3.176  14.687   5.634  0.1803  0.0926  0.1820
 2663W        W16077  10.890   7.878  13.235 -0.0882  0.0241 -0.2291
 2664W        W16078  16.441   3.405   1.923  0.0173  0.2409  0.3220
 2665W        W16079   9.176  13.012  16.022  0.1489 -0.1297  0.1315
 2666W        W16080  11.602   8.864   5.340  0.2688  0.0715 -0.2321
 2667W        W16081   0.722  14.976   1.419 -0.2836  0.0725  0.0853
 2668W        W16082  15.363   0.602  12.961 -0.0755  0.4363  0.0139
 2669W        W16083  14.559  11.293   5.073  0.0637  0.2789  0.0688
 2670W        W16084  13.921   9.583   4.979 -0.0821  0.0888  0.2152
 2671W        W16085   1.957   3.464  14.808 -0.0102 -0.0996  0.4502
 2672W        W16086   2.409   4.970  16.246 -0.0724 -0.0845  0.1394
 2673W        W16087   3.241   6.099   4.300  0.0068 -0.0156 -0.1381
 2674W        W16088   8.799   2.883  11.664 -0.2623 -0.1031  0.2013
 2675W        W16089  17.676   9.033  16.176 -0.0826 -0.0736 -0.1413
 2676W        W16090   0.712  11.250   4.366 -0.0715  0.0597 -0.0483
 2677W        W16091   9.533  15.345   6.065 -0.1769 -0.2268 -0.2019
 2678W        W16092  16.693   7.734   0.590 -0.0286  0.2520  0.0750
 2679W        W16093   0.350   2.251  15.646  0.0258  0.0391 -0.0876
 2680W        W16094  11.896  11.201  13.413 -0.2728  0.2932 -0.0778
 2681W        W16095   9.888   4.392  13.961  0.0267  0.1659 -0.0782
 2682W        W16096   5.873   8.759  13.682  0.0783 -0.0038 -0.1496
 2683W        W16097  11.595  10.550   5.498 -0.0992  0.0613  0.0527
 2684W        W16098  18.225   8.990  11.723 -0.1047 -0.0169  0.1372
 2685W        W16099   7.008   7.923  15.831  0.2285  0.1164 -0.2473
 2686W        W16100  10.298   5.262  12.350 -0.0067 -0.0791 -0.2511
 2687W        W16101   6.696   6.717   4.281 -0.0917  0.1798 -0.0651
 2688W        W16102   2.636   4.452   4.168  0.4546  0.0584  0.1143
 2689W        W16103  15.557  14.356  10.951 -0.1052 -0.1214 -0.2053
 2690W        W16104  16.108   7.232   1.531 -0.1966  0.0262 -0.2235
 2691W        W16105   2.052  17.280   2.356  0.1001  0.0928  0.2212
 2692W        W16106   1.887  16.023  13.721  0.1191 -0.1867  0.1351
 2693W        W16107   8.541   4.681   1.541  0.0778  0.2497 -0.1447
 2694W        W16108  16.071  16.483   5.112 -0.0023  0.0936 -0.2046
 2695W        W16109   1.444  18.456  14.045 -0.1383  0.0099 -0.0803
 2696W        W16110   7.595   8.048  13.458 -0.0150  0.1730  0.1557
 2697W        W16111  14.371  13.975  10.548  0.0479  0.0428 -0.2305
 2698W        W16112  11.302   1.381   0.809 -0.2011 -0.2724  0.1975
 2699W        W16113   7.920  13.846   4.406 -0.0136 -0.0475 -0.0640
 2700W        W16114  18.374  12.176  14.185 -0.1295  0.1945  0.0938
 2701W        W16115  18.032  15.735  11.134 -0.1788 -0.2357  0.3516
 2702W        W16116   0.797  15.118   5.264 -0.1920  0.0583  0.2302
 2703W        W16117   2.628   7.526   2.531 -0.2226 -0.0901  0.1376
 2704W        W16118   0.684   1.487  15.415 -0.4187 -0.0567  0.2989
 2705W        W16119   1.245   6.896  14.306  0.1642  0.1450 -0.1333
 2706W        W16120   3.684   8.595   5.519  0.2389 -0.0115  0.0700
 2707W        W16121  15.157  10.065  10.997  0.0818 -0.1538  0.2504
 2708W        W16122  12.947   1.323   2.750  0.0230  0.0873  0.2468
 2709W        W16123   9.473  18.466   1.901 -0.0496  0.0956  0.0070
 2710W        W16124   8.474   8.881   3.397  0.0707  0.3494 -0.2146
 2711W        W16125   5.391   8.788  16.232  0.0371 -0.1396 -0.2004
 2712W        W16126  16.247   7.481  13.348 -0.0797 -0.1438  0.1332
 2713W        W16127  16.582   8.100  14.612 -0.2614  0.0991 -0.1920
 2714W        W16128  18.413   9.744   0.868  0.2892  0.1573 -0.1952
 2715W        W16129  10.679   2.139   0.743  0.1098 -0.1991  0.0645
 2716W        W16130  15.611  10.992  11.028 -0.0472  0.3381  0.2013
 2717W        W16131  12.192  17.991   5.526 -0.1459 -0.0578  0.0654
 2718W        W16132   3.860  17.374  11.191  0.0674  0.2561  0.3093
 2719W        W16133   2.064   3.028  13.268  0.3281 -0.2141  0.1150
 2720W        W16134   1.330   5.722   2.719  0.2715  0.0430 -0.2241
 2721W        W16135  14.816   4.922   2.022  0.1779  0.2383  0.1030
 2722W        W16136  12.264   1.547  15.804 -0.3234  0.2935 -0.1268
 2723W        W16137   6.734  10.160   4.675  0.1680  0.1797 -0.0270
 2724W        W16138   8.661   2.603   2.982  0.1937 -0.2042  0.1525
 2725W        W16139   6.588   0.689  12.120 -0.3915 -0.0855  0.0505
 2726W        W16140  15.326  11.015   2.114  0.0033 -0.1044  0.2567
 2727W        W16141  10.068  17.347  15.268  0.2105  0.4702 -0.0061
 2728W        W16142  12.241  17.299   0.636 -0.0381 -0.0825  0.1073
 2729W        W16143  13.928   8.438  15.104 -0.1489  0.0352  0.0037
 2730W        W16144   6.342  16.247  12.825 -0.0702 -0.1672 -0.0563
 2731W        W16145   8.689   5.095  11.327 -0.0444 -0.1305  0.0892
 2732W        W16146  10.136   9.769  12.291 -0.0119 -0.0160 -0.2123
 2733W        W16147   5.797   1.394   5.125  0.2054 -0.2015 -0.2339
 2734W        W16148  12.769   8.766  12.414  0.2951 -0.0476  0.2506
 2735W        W16149   5.718   9.458  11.295 -0.1160  0.4677 -0.2562
 2736W        W16150   9.680   6.023  16.015  0.3149  0.0657 -0.2516
 2737W        W16151  16.187   0.977   5.659 -0.1095  0.1068  0.0371
 2738W        W16152  15.537   8.787   1.433  0.0787 -0.1622  0.0450
 2739W        W16153  13.734   9.924  14.652 -0.1603 -0.0264 -0.1561
 2740W        W16154  18.078   1.656  15.028 -0.1275  0.1763 -0.1050
 2741W        W16155   0.900  12.962   3.361  0.3908  0.0571  0.3294
 2742W        W16156   7.790   9.635   0.001  0.2090  0.0917 -0.1188
 2743W        W16157   3.834  14.858   4.594  0.0032 -0.1199 -0.1345
 2744W        W16158  15.111  13.154   3.320 -0.1906  0.0891  0.0598
 2745W        W16159   5.192   5.174  13.045  0.0948 -0.0447 -0.1208
 2746W        W16160   9.417  11.716  10.905 -0.3660  0.1023 -0.1307
 2747W        W16161  11.993  12.506  12.899  0.0090 -0.1035 -0.1169
 2748W        W16162   4.273  11.012   3.289  0.2282  0.0923 -0.1382
 2749W        W16163  11.688  14.117  12.083 -0.0434  0.1145  0.1861
 2750W        W16164   1.117   7.915   1.739 -0.0966 -0.2152  0.0264
 2751W        W16165  15.590  10.482  12.688  0.1243 -0.0278 -0.0327
 2752W        W16166  15.984   9.606  12.808 -0.4674  0.1682  0.2044
 2753W        W16167  10.417   4.634   1.430 -0.0217 -0.1258 -0.1472
 2754W        W16168   4.483   3.163   2.393  0.2919 -0.1171  0.1324
 2755W        W16169  12.149   4.848  15.600  0.0393 -0.1851 -0.0202
 2756W        W16170   3.344   4.139   6.142 -0.1574 -0.1314  0.0295
 2757W        W16171  14.331   4.210   0.777  0.0853 -0.0336 -0.1537
 2758W        W16172  16.191  12.036  11.419 -0.4621 -0.0927 -0.0846
 2759W        W16173  16.664   8.760  13.429  0.0121  0.0093  0.1207
 2760W        W16174   8.038  16.733   1.302 -0.0649  0.0366 -0.1610
 2761W        W16175  10.112  14.863  10.532  0.1035  0.0628  0.0826
 2762W        W16176   4.360  14.333   6.013 -0.0658  0.0669 -0.0825
 2763W        W16177   1.051   0.965   5.645 -0.0469  0.0585  0.1952
 2764W        W16178  16.259  14.418   5.916 -0.0085  0.3650 -0.1409
 2765W        W16179   2.503  13.088  11.222  0.0115  0.5164  0.1391
 2766W        W16180   3.070   4.230   1.148 -0.0607  0.0482  0.0644
 2767W        W16181  13.751   4.182  15.166 -0.1491  0.0182  0.2083
 2768W        W16182  16.668  14.417  11.258 -0.0993 -0.1594 -0.0341
 2769W        W16183   3.495  11.848   1.076 -0.1043 -0.1332  0.0133
 2770W        W16184  11.810  14.880   4.586 -0.0408 -0.0116 -0.0532
 2771W        W16185   7.173   5.820   4.257  0.1568  0.3516  0.2025
 2772W        W16186   5.858  17.770   5.519  0.2142  0.0721 -0.0112
 2773W        W16187  11.678   7.982   3.794  0.2083  0.1502 -0.1259
 2774W        W16188   6.230   3.492   4.934 -0.1946 -0.5132 -0.1073
 2775W        W16189   4.043   5.781   2.702 -0.0375 -0.1933  0.0325
 2776W        W16190  16.144   4.515   1.657  0.0620 -0.1508 -0.1681
 2777W        W16191   8.126   9.326   3.739  0.2621  0.0977 -0.1107
 2778W        W16192  17.623  15.527  14.619 -0.0478  0.0796 -0.0559
 2779W        W16193   6.394   5.296  13.296  0.3418 -0.0717  0.3147
 2780W        W16194   8.836  14.671   0.069  0.0979  0.0943 -0.0413
 2781W        W16195   9.374   8.480  10.274 -0.3298  0.3007  0.1657
 2782W        W16196  16.115   4.257   3.526  0.2719  0.4154 -0.0756
 2783W        W16197  17.724  18.487  13.227 -0.0102 -0.0358 -0.0859
 2784W        W16198  13.726   2.538  14.652  0.3875  0.3496 -0.0883
 2785W        W16199   6.416   1.181   2.170 -0.1747  0.3655  0.1087
 2786W        W16200  12.031  17.789   1.587  0.0488 -0.1593 -0.2337
 2787W        W16201  18.485  14.433  14.219  0.2138  0.1190 -0.0402
 2788W        W16202   9.616  11.732  12.523 -0.1847 -0.2138 -0.4585
 2789W        W16203   8.734   4.447   2.390 -0.2897 -0.0419 -0.2459
 2790W        W16204  13.375   0.167   5.638  0.0086  0.2823  0.3924
 2791W        W16205  12.852   4.988   1.913  0.2355 -0.0619  0.1625
 2792W        W16206   4.129   2.026   2.970 -0.0785  0.1309 -0.1379
 2793W        W16207  10.511  17.376  11.639  0.3794  0.3003  0.0103
 2794W        W16208   0.943   8.980  14.793 -0.2744  0.0526 -0.2075
 2795W        W16209   1.815   4.918  12.781 -0.2321 -0.1882  0.2859
 2796W        W16210   9.572  15.345  13.473  0.0868 -0.1110  0.2420
 2797W        W16211  16.906   9.123   4.749  0.0921  0.0361  0.2513
 2798W        W16212   0.418   6.149   3.986  0.3591 -0.1691  0.3874
 2799W        W16213   8.802   0.664   1.709 -0.0739 -0.2483  0.3619
 2800W        W16214   7.688  18.299  12.433  0.2205 -0.2625 -0.0672
 2801W        W16215   0.075  16.964  14.555 -0.2734 -0.1705 -0.0189
 2802W        W16216   8.117   0.298  15.292 -0.0526  0.1168 -0.1901
 2803W        W16217   3.894   9.684  10.490 -0.0156  0.1177  0.1859
 2804W        W16218  17.201   0.127   4.014 -0.0767  0.0580  0.1076
 2805W        W16219   3.030  11.776  11.679  0.0527  0.2738 -0.0573
 2806W        W16220   0.906  10.736   4.558 -0.0884 -0.0026  0.3122
 2807W        W16221   2.679   6.191  15.574 -0.2958 -0.0448  0.2242
 2808W        W16222   2.286  18.432   3.338 -0.1344 -0.0544 -0.4755
 2809W        W16223   1.827   2.589  10.675  0.2061  0.0832  0.1094
 2810W        W16224   0.190   1.829  14.329 -0.0810 -0.0189 -0.2903
 2811W        W16225   4.625  11.943   3.339 -0.0023 -0.0497  0.0401
 2812W        W16226   6.650   3.686   0.336  0.1622  0.1418 -0.0450
 2813W        W16227  12.185  12.436   6.367  0.1864  0.1142  0.1563
 2814W        W16228  18.260  15.397   3.310  0.0651 -0.1751  0.4639
 2815W        W16229   2.003  15.880  11.755  0.0157  0.4177  0.1872
 2816W        W16230  10.189   1.676   2.271 -0.0868 -0.1274  0.0413
 2817W        W16231  13.050  18.236   0.888 -0.1003 -0.1748 -0.0303
 2818W        W16232   3.754  18.243  12.634 -0.1961  0.2492 -0.0179
 2819W        W16233   3.221   9.283   0.796 -0.0212  0.1495  0.0852
 2820W        W16234   5.563  15.608  11.570 -0.2488  0.0044  0.0254
 2821W        W16235   0.562  11.844  13.073 -0.2157 -0.3671 -0.2576
 2822W        W16236   5.858  10.946  15.533  0.0539  0.1696 -0.1264
 2823W        W16237   7.403  15.224  11.154  0.3023  0.1280  0.0135
 2824W        W16238   6.412  15.580  15.144 -0.3265  0.1997 -0.2157
 2825W        W16239   5.045  17.543  14.937  0.0126 -0.2746  0.1762
 2826W        W16240  12.768  15.312   2.672 -0.1308  0.2459 -0.0376
 2827W        W16241  17.184  11.307   0.653  0.3930 -0.0449 -0.0337
 2828W        W16242  11.913  14.511   1.960 -0.1630 -0.1106 -0.1168
 2829W        W16243   2.428   4.075  13.899  0.0325  0.0772 -0.0155
 2830W        W16244  13.698   7.791   2.109  0.0256  0.1092 -0.0616
 2831W        W16245  16.350   1.329   1.313  0.3438  0.0051 -0.1328
 2832W        W16246   0.345  12.773   3.395 -0.1573 -0.2250 -0.2418
 2833W        W16247  11.547   7.145   5.763 -0.1152  0.4918  0.1812
 2834W        W16248  15.002   8.952  10.764 -0.1267  0.3189 -0.2119
 2835W        W16249   1.514  12.488  11.209  0.4384  0.0194 -0.1255
 2836W        W16250   8.383   5.325   0.850 -0.0872 -0.0763  0.0694
 2837W        W16251   9.170   6.542   1.951  0.2711  0.0458 -0.0014
 2838W        W16252   9.501   3.826   5.009  0.0872 -0.1069 -0.0790
 2839W        W16253   4.894   6.066  15.650  0.2501  0.0699 -0.3453
 2840W        W16254   6.723   4.190  15.124  0.0150  0.2701 -0.0158
 2841W        W16255  13.799  13.729   1.640  0.0441  0.0387 -0.0904
 2842W        W16256   2.400   2.663  16.202 -0.1583  0.1249 -0.1475
 2843W        W16257   5.534   2.450   5.575  0.2160 -0.1023  0.1075
 2844W        W16258  15.037   0.954   5.851  0.1673  0.1106 -0.0544
 2845W        W16259  15.685  11.907   1.933  0.0548 -0.2792  0.0858
 2846W        W16260   5.852   4.606  11.075  0.0595 -0.1177 -0.0947
 2847W        W16261  15.976  17.276   0.667  0.1774 -0.0927  0.1309
 2848W        W16262   5.541   8.564  11.262 -0.2822 -0.0550  0.0063
 2849W        W16263   2.879   2.242  14.477 -0.1604 -0.0611  0.1395
 2850W        W16264  15.470   8.132  11.191 -0.0878 -0.2921 -0.2122
 2851W        W16265   5.796   2.293   9.614 -0.0703  0.1070 -0.2422
 2852W        W16266   5.436  11.500   3.860 -0.0507 -0.0415  0.1035
 2853W        W16267  12.031   8.108  14.255  0.0707  0.0035 -0.1727
 2854W        W16268   8.051   8.855  16.147 -0.1515  0.0953  0.1716
 2855W        W16269   0.726   9.776   0.104  0.3159 -0.0013 -0.1771
 2856W        W16270  11.286  16.671  12.502 -0.0526  0.1141 -0.2211
 2857W        W16271  13.790   0.572   3.914 -0.0920 -0.1699  0.2201
 2858W        W16272   9.768   0.844  11.355  0.3606 -0.1403 -0.0241
 2859W        W16273  13.662  14.626   3.005  0.0021  0.1276 -0.1280
 2860W        W16274  13.595   6.659   2.576  0.0167 -0.0051 -0.3925
 2861W        W16275   3.429  13.192  15.834 -0.0176 -0.0213  0.2696
 2862W        W16276   1.251   9.942  11.995  0.0711 -0.0186 -0.0319
 2863W        W16277   8.249   4.513  10.667 -0.0453 -0.1706 -0.0158
 2864W        W16278   6.077   2.444  11.433 -0.2109 -0.4302  0.0324
 2865W        W16279  10.226  15.560   0.192 -0.0332  0.2244 -0.0356
 2866W        W16280  12.102   8.459  12.199 -0.1541 -0.0004  0.2251
 2867W        W16281  13.636  17.707  16.188  0.0135  0.1781  0.2362
 2868W        W16282  12.418   4.875  16.020  0.2701 -0.0937  0.3055
 2869W        W16283   0.468  11.740   0.678 -0.0729 -0.1824 -0.1135
 2870W        W16284   7.378   6.222   1.577  0.1711  0.1442 -0.2652
 2871W        W16285   5.062   0.691   5.731 -0.0714  0.2025 -0.0041
 2872W        W16286   8.628  14.078   9.966 -0.0743 -0.0931 -0.1822
 2873W        W16287   0.594  12.416  15.118 -0.2347 -0.0703 -0.1186
 2874W        W16288  13.978   4.047  12.567 -0.3113 -0.2352  0.0603
 2875W        W16289  11.428  11.001   0.314 -0.0127 -0.0254  0.3196
 2876W        W16290  11.425  11.481  14.656 -0.0878  0.1714 -0.0402
 2877W        W16291   2.829  15.439   3.151 -0.2551 -0.3091  0.0351
 2878W        W16292   4.339   0.305  15.177  0.1590 -0.1693 -0.0014
 2879W        W16293   3.723   4.789  15.659  0.1900  0.0675 -0.1571
 2880W        W16294  15.776  16.004  11.654 -0.0383 -0.0924 -0.1818
 2881W        W16295  14.275  12.060  10.308 -0.2455 -0.2703 -0.1895
 2882W        W16296  15.708   4.091  15.447  0.1898  0.0791 -0.1415
 2883W        W16297  15.973  17.371   2.697  0.0836 -0.0778 -0.1119
 2884W        W16298  16.165   6.642   5.881  0.0126 -0.2584 -0.3877
 2885W        W16299   5.823  12.189   3.745 -0.1621 -0.1494 -0.1128
 2886W        W16300   1.586   3.986   3.878  0.0265 -0.1546  0.0530
 2887W        W16301   9.713  17.776   5.462  0.3110 -0.1520 -0.1328
 2888W        W16302   7.062  17.998   2.011  0.0862 -0.1808 -0.1597
 2889W        W16303  11.578   8.930  11.561  0.0691  0.1792 -0.1550
 2890W        W16304  13.367  17.477  11.583  0.4246  0.0573  0.0690
 2891W        W16305  10.520   9.445  12.063  0.0868  0.1297  0.0811
 2892W        W16306   5.200  10.868   5.604 -0.3653 -0.0492  0.1109
 2893W        W16307   4.700  12.055   3.803 -0.1829  0.0667  0.1469
 2894W        W16308   4.111   2.430   3.981  0.2618 -0.0749 -0.3113
 2895W        W16309   4.438   8.544  14.439 -0.0845 -0.0285 -0.4568
 2896W        W16310   5.627   4.396   2.268  0.0876  0.0971  0.0382
 2897W        W16311  11.910   7.655   4.813  0.1464 -0.1202  0.4038
 2898W        W16312  12.745   0.968  12.283 -0.2107 -0.0945 -0.0695
 2899W        W16313   5.709  18.488   1.730 -0.0355  0.0674  0.1692
 2900W        W16314   6.074   1.142  15.398  0.0719  0.2748  0.0640
 2901W        W16315   5.473   8.947  10.583  0.2277  0.3044  0.4671
 2902W        W16316   5.441  13.051   3.840 -0.0924  0.0927 -0.0710
 2903W        W16317   1.856   9.865  14.858  0.1290  0.1039 -0.0606
 2904W        W16318  16.103   2.156   2.297 -0.2570  0.2411  0.0040
 2905W        W16319  13.901   3.692   0.230 -0.1921  0.0649  0.0142
 2906W        W16320   5.324  13.143  16.163 -0.4437 -0.0608 -0.0911
 2907W        W16321  10.345  17.966   4.751  0.1243  0.0451  0.0210
 2908W        W16322  14.701  11.213   3.631  0.0691 -0.3222  0.0917
 2909W        W16323  10.347   1.179   2.882 -0.0737 -0.0995 -0.1936
 2910W        W16324  16.623  18.154   3.501  0.3525  0.0121  0.1612
 2911W        W16325  16.523   9.517  10.805 -0.1087 -0.0338 -0.3676
 2912W        W16326  17.328  15.792   1.914  0.0661  0.2313  0.0731
 2913W        W16327   4.474  15.371   9.698  0.3243  0.1855 -0.0716
 2914W        W16328  18.420   0.323   6.563 -0.0107  0.1929 -0.2296
 2915W        W16329  14.196  15.306   0.067 -0.2735 -0.1830 -0.0044
 2916W        W16330   4.150  17.870   2.262 -0.3771 -0.0268  0.1197
 2917W        W16331   1.971   9.628   1.934 -0.1278  0.2504  0.0734
 2918W        W16332  17.284  18.008  12.545  0.2347 -0.2848 -0.1853
 2919W        W16333  12.439   3.536   3.905 -0.2640 -0.0305 -0.1513
 2920W        W16334   1.251   5.338   3.841 -0.1873 -0.1825  0.1322
 2921W        W16335   5.381  11.432   3.289  0.0303 -0.0971 -0.3989
 2922W        W16336   1.322  14.941  15.955 -0.1337  0.3033  0.2470
 2923W        W16337   2.207  11.411   3.146  0.2808  0.2043  0.1238
 2924W        W16338  15.208  18.343   0.764  0.2159 -0.2642  0.2151
 2925W        W16339  17.609   0.278  13.881  0.2472 -0.1457 -0.1965
 2926W        W16340   1.277  11.639  10.657 -0.0502  0.1208 -0.1848
 2927W        W16341   0.843   9.964  14.961  0.0624 -0.1167  0.0484
 2928W        W16342  12.181   9.540   2.903  0.1550 -0.0522 -0.0148
 2929W        W16343   4.014   4.447   4.958  0.1706  0.4390 -0.0576
 2930W        W16344   9.872  17.972  12.488  0.0813  0.1017  0.0505
 2931W        W16345  14.044   5.528  14.116  0.2467 -0.1055  0.2750
 2932W        W16346  15.062   0.096   3.350 -0.2312  0.0286 -0.1607
 2933W        W16347  16.545   8.127   5.527  0.1676  0.0560 -0.0468
 2934W        W16348   9.970   9.510  11.844 -0.1500  0.1357  0.0064
 2935W        W16349  17.928   1.020  11.600  0.2125 -0.1521  0.2099
 2936W        W16350  11.352  15.530  10.662 -0.1917 -0.1419  0.2617
 2937W        W16351  10.647  14.645   3.892 -0.0102 -0.2312 -0.0311
 2938W        W16352   5.141   3.815   2.327 -0.3325 -0.2685  0.2588
 2939W        W16353   5.689  15.145   3.586 -0.3575 -0.3687  0.1554
 2940W        W16354  17.336  12.346  14.190  0.1519  0.0137 -0.2056
 2941W        W16355  18.250  10.680   6.159 -0.1442 -0.3253 -0.0187
 2942W        W16356  13.925   6.180  11.585  0.0288  0.2009  0.3575
 2943W        W16357  15.506   0.530  15.202 -0.1949 -0.0080 -0.0206
 2944W        W16358   5.254  15.242  11.362  0.1254  0.1791 -0.2732
 2945W        W16359   4.103   3.665  16.109 -0.0651  0.0015  0.0803
 2946W        W16360   5.220   7.163   4.868  0.1220 -0.1331  0.1708
 2947W        W16361   2.938  10.095  13.717  0.2176 -0.4045 -0.2592
 2948W        W16362   5.492  13.711   4.582  0.1996 -0.0222 -0.0522
 2949W        W16363  12.160   4.434  13.751 -0.1320  0.0291 -0.1702
 2950W        W16364  12.193   2.246  12.199  0.1611 -0.0502  0.1466
 2951W        W16365   1.899  10.434   3.154 -0.0266  0.1500  0.0547
 2952W        W16366   0.951   2.292   3.453 -0.0697  0.3081  0.0440
 2953W        W16367  14.842  11.133   2.248  0.0399  0.0032 -0.1866
 2954W        W16368  13.955  15.028  13.795 -0.1226 -0.1130  0.0046
 2955W        W16369  15.477   2.108  12.487  0.0173  0.0759 -0.2982
 2956W        W16370   2.913   1.914   0.698  0.1001  0.1862  0.1027
 2957W        W16371   3.518  18.382   0.180  0.3687  0.1882 -0.2070
 2958W        W16372   1.994  12.056  15.178 -0.2686  0.0151 -0.0160
 2959W        W16373   9.162   3.445   4.897  0.1101 -0.0791 -0.1021
 2960W        W16374  17.101  11.015   3.173 -0.0988  0.0349  0.1405
 2961W        W16375   8.244  11.413   3.276 -0.0555 -0.0713 -0.0570
 2962W        W16376  15.722   5.321  16.174 -0.0872 -0.0419  0.0975
 2963W        W16377  17.747  12.705  11.958  0.0784  0.3264 -0.0534
 2964W        W16378   3.739  14.500  10.933 -0.3160  0.1258 -0.2161
 2965W        W16379  14.290  16.859   4.662  0.0059  0.3075 -0.0032
 2966W        W16380  15.392   8.516  15.396 -0.0083 -0.1441 -0.1876
 2967W        W16381   7.004   8.920  14.211 -0.1566 -0.4613  0.0484
 2968W        W16382  16.032   8.633  11.689 -0.1179 -0.0500 -0.3291
 2969W        W16383  13.129   2.491  13.598  0.3844  0.3831 -0.0918
 2970W        W16384  11.855  13.733   3.560  0.1822 -0.0667 -0.0202
 2971W        W16385   6.646   7.303  12.718  0.0845 -0.0319  0.2778
 2972W        W16386  12.378  11.756   4.525 -0.1318 -0.3888  0.0546
 2973W        W16387   2.555   3.628   5.832 -0.2219 -0.0856 -0.0943
 2974W        W16388  15.930   1.889  11.190  0.4828 -0.1207  0.2404
 2975W        W16389  13.316  12.241   1.169 -0.2201 -0.1765  0.2113
 2976W        W16390  11.185  12.572   1.901  0.0714 -0.0276  0.2845
 2977W        W16391   7.438  10.541   0.312  0.0371  0.1921 -0.2791
 2978W        W16392   0.099   2.533  10.973  0.3437 -0.1445 -0.1952
 2979W        W16393   8.720   8.920  12.453 -0.2676 -0.4506 -0.3753
 2980W        W16394  14.916   1.747   1.138 -0.2323  0.0029  0.0563
 2981W        W16395   6.803   8.413  15.022  0.2657  0.1225 -0.1027
 2982W        W16396   2.711  12.419  15.053 -0.0015  0.2147 -0.0859
 2983W        W16397   8.887   0.562  14.834  0.0317  0.1895  0.1670
 2984W        W16398   6.475  12.470  14.411  0.0594 -0.0129 -0.1709
 2985W        W16399   6.274   8.296   4.436  0.2303 -0.1959  0.2486
 2986W        W16400  13.068  17.811   4.042  0.3244  0.2723  0.2097
 2987W        W16401   0.774   7.001  12.184  0.1303  0.3682 -0.1003
 2988W        W16402   8.992  12.277   2.756  0.1666  0.1961  0.1349
 2989W        W16403   1.940  12.910  15.119 -0.1124 -0.0568  0.0164
 2990W        W16404  13.030   3.941  16.265 -0.1545  0.3142  0.3091
 2991W        W16405   1.765  15.827  14.884 -0.3519  0.0103  0.1138
 2992W        W16406  18.362   2.850  14.398  0.2674  0.1422  0.2257
 2993W        W16407   8.063   3.247  13.983 -0.2537 -0.2229  0.0752
 2994W        W16408   8.219  18.414   2.315  0.0648 -0.0335 -0.1895
 2995W        W16409  12.257   5.209   0.118 -0.2396 -0.3892  0.0057
 2996W        W16410   3.569  15.198   3.639  0.0429  0.3298  0.0810
 2997W        W16411  17.728   6.148  13.537  0.1014  0.0323  0.4676
 2998W        W16412  15.622  18.495   9.988  0.0099 -0.3455 -0.0223
 2999W        W16413   8.531   1.166  13.416  0.0614 -0.0650  0.1334
 3000W        W16414  17.600  11.964  15.937 -0.3180 -0.0098 -0.1777
 3001W        W16415  18.507   1.439  14.847 -0.3204 -0.2769  0.1449
 3002W        W16416  14.221  10.935   4.980 -0.0996 -0.3142  0.1360
 3003W        W16417  13.450  11.028  13.052 -0.1188  0.1605 -0.3071
 3004W        W16418  16.542   0.213   6.325  0.0355  0.0190  0.0194
 3005W        W16419   3.372   2.099  12.923 -0.1172 -0.1227  0.0129
 3006W        W16420  10.356  16.688  11.676 -0.1030 -0.2163 -0.5135
 3007W        W16421  14.786   7.105  13.110  0.0475  0.1265  0.3515
 3008W        W16422   1.471   4.813   4.660 -0.1774 -0.0723 -0.1760
 3009W        W16423   0.231   8.544   2.118 -0.1834  0.3204 -0.1210
 3010W        W16424   6.427  17.281  11.841  0.1727 -0.0968  0.1395
 3011W        W16425  16.444  14.280  15.308 -0.0902  0.2790 -0.2235
 3012W        W16426   8.504   2.331  15.490 -0.3102 -0.0916  0.1246
 3013W        W16427  14.835  14.205  15.639 -0.0608  0.0857  0.2012
 3014W        W16428   5.885   4.259  15.118 -0.0312 -0.2788 -0.1230
 3015W        W16429   5.439   8.423   4.016 -0.0453  0.3344 -0.1358
 3016W        W16430  11.329   9.697  10.566  0.1442  0.2475  0.1154
 3017W        W16431   8.856  13.734   1.843  0.0070 -0.2144  0.2024
 3018W        W16432   8.441  14.792   3.499 -0.3140 -0.0171  0.1083
 3019W        W16433   5.796   6.968   9.924  0.1245  0.1418  0.0766
 3020W        W16434   1.443   5.160   5.721  0.4284  0.2075  0.0706
 3021W        W16435  12.992   4.435  10.526 -0.2183 -0.1590  0.2208
 3022W        W16436  14.419  10.858  16.069  0.1558  0.0460  0.1523
 3023W        W16437   3.374  11.252   3.763  0.0467 -0.1030 -0.1443
 3024W        W16438   1.313   4.845   3.897 -0.0927 -0.0105 -0.3025
 3025W        W16439   5.631   4.870   3.985  0.1645  0.1680 -0.0078
 3026W        W16440   4.558   5.464   0.055 -0.1286 -0.0829 -0.1402
 3027W        W16441  15.504   5.607   6.443  0.2203  0.0578  0.2898
 3028W        W16442  16.264  17.389   4.053 -0.1999  0.1074  0.1593
 3029W        W16443  12.346  13.560   3.508  0.0823 -0.4018  0.0210
 3030W        W16444   8.048  15.559   4.877 -0.0013  0.1811 -0.1530
 3031W        W16445  15.098   0.186   3.809  0.1883  0.2597 -0.1692
 3032W        W16446   8.430  18.018  16.179  0.0969  0.0172  0.3308
 3033W        W16447  11.451   5.317   3.513 -0.2971  0.0029  0.2084
 3034W        W16448   9.951   6.060   3.828  0.4707 -0.1611 -0.1317
 3035W        W16449   4.723  14.270  15.122  0.0241  0.2464  0.0454
 3036W        W16450   5.205   6.749   4.568 -0.1182 -0.2625 -0.0946
 3037W        W16451   9.794   9.144   5.690  0.0144 -0.0667  0.2675
 3038W        W16452  13.264  15.142  15.667  0.2456  0.0613  0.0457
 3039W        W16453  11.276   7.140   2.977 -0.0281 -0.2658 -0.2666
 3040W        W16454  10.161  15.177   5.455  0.0181  0.4727 -0.0734
 3041W        W16455   7.712  15.078  15.330  0.1479 -0.2496  0.1162
 3042W        W16456  14.879   9.311   2.843  0.2341  0.0140 -0.3734
 3043W        W16457  18.347  13.204   4.406  0.3435  0.2059 -0.3417
 3044W        W16458  10.098   3.168   3.883 -0.0891  0.4730 -0.1804
 3045W        W16459   8.473   8.003   6.451  0.0382 -0.2971  0.1186
 3046W        W16460   6.618   3.462  16.132 -0.1678 -0.0535 -0.0095
 3047W        W16461  18.140  17.292  13.341 -0.1002 -0.2772 -0.2272
 3048W        W16462  15.395  12.420  11.810  0.2895 -0.2164 -0.0010
 3049W        W16463  17.115   7.862   1.954 -0.0795  0.2148  0.2973
 3050W        W16464  12.836   3.160   3.816 -0.0704  0.1208 -0.1987
 3051W        W16465  13.466   1.611  14.776 -0.1214 -0.1647  0.1890
 3052W        W16466   6.661  12.690   4.638  0.2741  0.0575 -0.2020
 3053W        W16467  15.446  11.916  14.984 -0.0181  0.0631  0.2304
 3054W        W16468   8.368  11.692  14.715 -0.2064 -0.1485  0.2312
 3055W        W16469   2.635   6.348   0.152 -0.0147 -0.0249 -0.2619
 3056W        W16470  17.072  11.651   4.241 -0.1444  0.0581 -0.0645
 3057W        W16471   5.847  18.141  11.766 -0.0832 -0.3819 -0.0075
 3058W        W16472  18.236   5.970   1.671  0.4444 -0.1360 -0.0484
 3059W        W16473  18.168  13.505   3.100 -0.1763  0.1046  0.1679
 3060W        W16474   6.661   7.099  13.169 -0.0523  0.4570  0.2242
 3061W        W16475  15.143   1.505  13.559  0.0686  0.1767  0.1638
 3062W        W16476   1.484   7.906  15.102  0.0703  0.0011  0.0955
 3063W        W16477   4.646   8.284  11.422 -0.1376  0.1599 -0.1381
 3064W        W16478  12.745   2.387  15.910 -0.0871 -0.0557 -0.1414
 3065W        W16479   2.202  14.503  10.534  0.0365 -0.3814  0.0513
 3066W        W16480   1.014   6.608   0.203 -0.0011  0.0426 -0.2527
 3067W        W16481   7.593   0.602  11.981  0.0021 -0.4449  0.4395
 3068W        W16482  16.126   4.617  11.536 -0.0541  0.1021 -0.2718
 3069W        W16483  17.272   9.562   2.549 -0.1076  0.5229 -0.0790
 3070W        W16484   5.761   1.716   1.767  0.1916  0.2111  0.1637
 3071W        W16485  10.302   9.584  13.580 -0.2042  0.1410 -0.2137
 3072W        W16486   1.724   3.660   0.768  0.0431 -0.2435 -0.0002
 3073W        W16487  12.018  11.178  11.881 -0.0943 -0.0587 -0.2020
 3074W        W16488  18.412   1.131   1.920 -0.0205  0.0667 -0.0428
 3075W        W16489   8.719  18.077   1.217 -0.0525 -0.1329 -0.1606
 3076W        W16490  14.900   8.304   5.577  0.0711  0.1342 -0.2087
 3077W        W16491   7.045   6.959   6.111  0.2175  0.1170  0.3594
 3078W        W16492  13.975   9.649   1.882 -0.1971  0.2806 -0.1749
 3079W        W16493  13.421   3.580   1.122 -0.0175  0.0044 -0.0666
 3080W        W16494  10.759   1.805  13.160 -0.4392  0.1618 -0.1608
 3081W        W16495  16.161  15.768   4.462  0.0279  0.1535  0.0588
 3082W        W16496   4.125  12.894   9.863  0.1493 -0.1361  0.0087
 3083W        W16497  10.057  17.415  10.741 -0.1528  0.1556  0.0297
 3084W        W16498   8.491   4.136   0.034 -0.1017  0.0701  0.1046
 3085W        W16499   8.200   5.491  14.727 -0.0800  0.1009 -0.2213
 3086W        W16500   2.999  10.972   3.973 -0.2912  0.0900  0.2110
 3087W        W16501   4.197   7.549   4.867 -0.0203 -0.0554 -0.1188
 3088W        W16502   6.441  18.283   0.914  0.2615 -0.0463  0.0336
 3089W        W16503   3.893  17.233  12.368  0.0048 -0.3944 -0.1879
 3090W        W16504  12.657   1.798   4.022 -0.0874  0.1880 -0.0451
 3091W        W16505   4.670   2.450  12.698 -0.3240 -0.1494 -0.0584
 3092W        W16506  15.351  13.734  13.704 -0.1568 -0.1934 -0.1965
 3093W        W16507   1.633  12.244   1.700  0.2174 -0.0390  0.0587
 3094W        W16508   4.942  18.152   0.270  0.1689 -0.1724 -0.1129
 3095W        W16509  14.079  11.761  14.818 -0.1738 -0.1426 -0.0195
 3096W        W16510  16.427   4.808  15.133  0.2282 -0.1321 -0.0061
 3097W        W16511  10.638   4.748  11.779 -0.1974  0.1737 -0.0701
 3098W        W16512  16.884   6.550  10.606  0.1231  0.2149  0.0454
 3099W        W16513  16.230  18.204   3.141  0.2572  0.2099 -0.3482
 3100W        W16514  18.466  16.561  15.579  0.0401 -0.0054  0.1312
 3101W        W16515   4.678   8.960   5.694  0.1567 -0.1657 -0.2877
 3102W        W16516  16.996   9.265  14.117  0.2446 -0.3263 -0.0651
 3103W        W16517   9.938  12.694  11.261  0.0954 -0.1913  0.0242
 3104W        W16518  12.721   1.930  13.103  0.1805  0.6132 -0.2774
 3105W        W16519  12.148  13.303   3.118 -0.1822 -0.0269  0.0231
 3106W        W16520   8.345  18.466   4.602 -0.1590 -0.3085 -0.0404
 3107W        W16521   8.600  12.013   4.140 -0.1178 -0.0340 -0.0749
 3108W        W16522   3.572   0.039  14.292 -0.0689 -0.2087 -0.2444
 3109W        W16523   8.353  16.026   4.647 -0.0195 -0.0614  0.0468
 3110W        W16524  10.303  15.047  11.455  0.0874 -0.2536 -0.0122
 3111W        W16525  15.360   2.883   4.796  0.0974  0.0310 -0.1862
 3112W        W16526  15.800   8.349   3.916  0.0411 -0.0090  0.1045
 3113W        W16527   8.935   0.334   0.875 -0.0355 -0.1816  0.2374
 3114W        W16528   7.021  18.421  13.665  0.0339 -0.1733  0.0077
 3115W        W16529   3.143   3.887   2.482  0.2829 -0.1040  0.2794
 3116W        W16530   4.904   7.662  12.533  0.0333  0.0299  0.0895
 3117W        W16531   1.993   6.878  11.843  0.0100  0.2073  0.0869
 3118W        W16532  16.115  16.811   0.872 -0.2163  0.0329 -0.1480
 3119W        W16533   3.521   8.209   5.194  0.2116 -0.1562  0.0797
 3120W        W16534   0.044   0.333  11.617  0.0410  0.1515  0.2356
 3121W        W16535   3.616  11.224   1.308 -0.0051 -0.1790  0.2472
 3122W        W16536  16.397   8.346   4.679 -0.1091  0.1926 -0.1589
 3123W        W16537  16.130   7.343  14.586 -0.2171 -0.1769  0.2550
 3124W        W16538  10.274   6.216   2.385 -0.0680  0.0443  0.0491
 3125W        W16539  18.084  12.565  12.680  0.1433 -0.0135  0.1306
 3126W        W16540  10.676   5.982  12.968 -0.1488  0.1959  0.1559
 3127W        W16541  17.726  18.174  15.775  0.0709  0.0645 -0.2509
 3128W        W16542   5.120   9.646   2.452 -0.0376  0.0775  0.1025
 3129W        W16543   9.875   7.225  13.044 -0.2549  0.0084  0.1241
 3130W        W16544   8.079   6.685   3.625 -0.0033  0.1116  0.0803
 3131W        W16545  10.344   9.962  16.157  0.0881  0.0046 -0.0768
 3132W        W16546  13.333   2.706  15.142  0.2633  0.1675  0.1283
 3133W        W16547   2.304  16.035  11.218  0.0159  0.0230  0.2151
 3134W        W16548   4.301   2.897   3.350 -0.3808  0.3569 -0.1785
 3135W        W16549  10.917  12.969   1.921  0.2811 -0.4468  0.1622
 3136W        W16550   4.935  13.137   3.081  0.2541 -0.0091 -0.1147
 3137W        W16551   2.617  10.281   6.472 -0.2635  0.0528  0.2173
 3138W        W16552   2.125   4.487  16.155  0.2515 -0.3197 -0.2288
 3139W        W16553  10.708  17.401  13.531  0.0924  0.2619 -0.0381
 3140W        W16554   7.760   7.561   3.980 -0.3582 -0.0958 -0.0687
 3141W        W16555  14.927   2.373  11.739 -0.0294  0.1274  0.1398
 3142W        W16556   5.870   3.831   0.738  0.3725  0.2388 -0.1658
 3143W        W16557  11.364  15.877  13.805 -0.0265 -0.0792  0.1492
 3144W        W16558  16.992   1.756   3.835  0.1128 -0.0301  0.1747
 3145W        W16559   1.493  12.963   4.108 -0.1338  0.1667  0.3626
 3146W        W16560   2.708   4.252   1.525  0.0881 -0.1224 -0.1964
 3147W        W16561  15.574   8.518   5.078 -0.4107  0.3067 -0.0908
 3148W        W16562   1.191  15.823   1.313 -0.3612  0.0838 -0.3650
 3149W        W16563  12.277   4.319   0.616  0.1240 -0.0827 -0.0456
 3150W        W16564   9.653  18.150  10.757  0.0064  0.0268 -0.0239
 3151W        W16565  10.470  16.276  14.016 -0.2311 -0.2131  0.1683
 3152W        W16566   4.812  15.591  13.831  0.1466  0.3117 -0.3315
 3153W        W16567  15.546   7.939   3.903 -0.0512 -0.0887  0.1323
 3154W        W16568  10.688  10.133  12.712  0.0062 -0.2335  0.1478
 3155W        W16569   4.310  17.505   4.159  0.0682 -0.0005 -0.3348
 3156W        W16570  15.149   0.501   0.740  0.0640 -0.2030 -0.1726
 3157W        W16571   8.938   0.279  15.334 -0.2245  0.3494 -0.0889
 3158W        W16572   7.829  12.504   2.404 -0.0316 -0.0003 -0.0407
 3159W        W16573   7.240  18.189   3.917  0.1863 -0.0071  0.2305
 3160W        W16574  17.509  16.373   4.208 -0.1302 -0.0690  0.0712
 3161W        W16575  16.411  11.306   3.462 -0.0820 -0.1222  0.0695
 3162W        W16576   8.974   6.038   2.580  0.0763 -0.2154  0.3195
 3163W        W16577   7.056   8.670   0.014 -0.2904 -0.1014  0.3504
 3164W        W16578   0.548  16.943   3.706 -0.2931 -0.2224  0.0663
 3165W        W16579  11.312  14.073  10.249  0.0919  0.1372  0.0386
 3166W        W16580  11.187   7.940  15.914 -0.0485 -0.0808 -0.0720
 3167W        W16581   3.827   7.915  10.411  0.3329  0.0792 -0.0630
 3168W        W16582  11.419   5.748   2.631  0.1393  0.4339 -0.1253
 3169W        W16583  10.376  16.334  12.794 -0.0601 -0.0953 -0.1036
 3170W        W16584  16.891   2.976   0.807 -0.0673  0.2181  0.0076
 3171W        W16585  15.210   1.173   4.120 -0.1271  0.0884 -0.1504
 3172W        W16586  16.705   3.361  10.598  0.0477  0.3386  0.3247
 3173W        W16587  16.363   2.706   0.792  0.1187  0.0327 -0.1105
 3174W        W16588   0.519  17.711   2.950 -0.0695 -0.1946  0.1619
 3175W        W16589   3.164  11.138   3.327 -0.1444 -0.2240 -0.1589
 3176W        W16590   7.862  10.533  13.921  0.0243 -0.0790 -0.2591
 3177W        W16591  16.081   4.303  13.829  0.1258  0.1541 -0.0892
 3178W        W16592   4.527  11.714  10.327  0.0744 -0.2546  0.1772
 3179W        W16593   8.073   7.157   4.587 -0.2006  0.0001  0.0403
 3180W        W16594   5.741   0.371   5.023 -0.1125 -0.0189  0.1681
 3181W        W16595   6.785   2.749  15.701  0.0774 -0.0185  0.0896
 3182W        W16596  15.100   0.185   2.098 -0.3449  0.1165  0.0588
 3183W        W16597   9.904   4.532  15.319  0.2591 -0.5516 -0.1748
 3184W        W16598   9.753  13.372   0.626  0.2558 -0.1400  0.0658
 3185W        W16599   3.641  12.741  14.932  0.0372 -0.1268 -0.0823
 3186W        W16600   8.698   6.140   3.539 -0.4967 -0.3444  0.0288
 3187W        W16601  11.934  17.013  13.622  0.1567 -0.0604 -0.3658
 3188W        W16602  17.462  16.466  12.437  0.1522 -0.0931  0.3167
 3189W        W16603  10.145  17.675   2.849 -0.0442 -0.3737 -0.1637
 3190W        W16604   3.672   1.941   5.588 -0.1921 -0.1656 -0.0265
 3191W        W16605  15.689   2.758  11.380 -0.2397  0.1401 -0.0654
 3192W        W16606   6.996   7.472  15.991  0.0595 -0.0949  0.2012
 3193W        W16607   3.264   6.968   1.372 -0.1056  0.2413 -0.1483
 3194W        W16608   7.439   4.838  10.777  0.4199  0.3545  0.1201
 3195W        W16609   1.711  17.591  12.511 -0.2275 -0.1014 -0.1727
 3196W        W16610  13.483  17.924   2.480  0.0524  0.1294 -0.2833
 3197W        W16611   2.339  16.944   4.207  0.0048  0.3476 -0.0351
 3198W        W16612  17.264  14.091   1.569  0.3131 -0.1675 -0.0083
 3199W        W16613  15.258  17.890  11.326  0.1649 -0.1106 -0.0462
 3200W        W16614   5.633   8.975   2.122  0.0881  0.0237  0.2436
 3201W        W16615   6.471  14.408   3.637  0.4267  0.1868 -0.3160
 3202W        W16616   7.772   2.307  11.387  0.0201  0.0781  0.0664
 3203W        W16617   6.625   0.707  14.251  0.2469  0.1366  0.1343
 3204W        W16618   4.193  11.598   2.452 -0.0776  0.0257 -0.0473
 3205W        W16619   0.054  16.984   3.957  0.4503  0.1154 -0.1180
 3206W        W16620   6.725   3.321  15.557 -0.2808  0.3647  0.2936
 3207W        W16621   1.118  11.883  15.745  0.0883  0.1288  0.4081
 3208W        W16622   7.696  11.030  10.104 -0.1850  0.2538  0.1562
 3209W        W16623   0.519   8.891  13.983 -0.1980  0.0259  0.3071
 3210W        W16624  15.953  12.872  13.132 -0.3233  0.0907  0.1439
 3211W        W16625  11.858   8.447   3.657 -0.1522  0.2510  0.0997
 3212W        W16626   6.280   7.036   4.703 -0.0792  0.0580 -0.1379
 3213W        W16627  12.433   4.040   4.183  0.1744  0.1761  0.2058
 3214W        W16628  11.055   8.346  15.758  0.1645 -0.0468 -0.0761
 3215W        W16629   3.378  11.334  16.092  0.1205  0.1608 -0.0187
 3216W        W16630  14.994   0.305   1.169 -0.0704  0.2922  0.3675
 3217W        W16631   4.352  15.432  14.667 -0.0959  0.0527 -0.0554
 3218W        W16632   5.116  13.214  14.089  0.0472  0.0826 -0.1184
 3219W        W16633  15.619  16.485  12.268  0.3379 -0.1824  0.1775
 3220W        W16634  18.056  10.729   1.798  0.0232  0.1061 -0.0906
 3221W        W16635   9.716  12.423  12.609 -0.1620 -0.0385  0.3114
 3222W        W16636   8.873  10.367  12.319  0.0485  0.0483 -0.2437
 3223W        W16637   8.399  10.859  10.787 -0.0873 -0.2920 -0.1145
 3224W        W16638   3.843   5.673   5.321 -0.0809 -0.0695 -0.0567
 3225W        W16639   4.313   3.320   3.067  0.0595 -0.3141  0.2961
 3226W        W16640  17.526   5.540   3.646  0.2437 -0.2344  0.2044
 3227W        W16641  14.962  11.017  10.890  0.0125 -0.5240  0.0996
 3228W        W16642  12.747   6.747  10.938  0.1408  0.0569 -0.0312
 3229W        W16643  10.996   2.850  14.649 -0.1369 -0.1160  0.3066
 3230W        W16644   8.956   9.586   1.213  0.0109  0.0271  0.0476
 3231W        W16645   1.683  17.130  11.807  0.0103  0.3868  0.0643
 3232W        W16646   5.085   2.506  10.422  0.0800  0.0025 -0.0398
 3233W        W16647  10.413   7.315   3.059  0.0956 -0.2083  0.0581
 3234W        W16648  11.920  13.508   0.555 -0.1787 -0.1987 -0.2003
 3235W        W16649   0.555   7.949   0.133 -0.0168 -0.2094 -0.2527
 3236W        W16650  13.646   7.841  13.586  0.3386 -0.0182 -0.3469
 3237W        W16651  12.144   3.987  13.007  0.3130 -0.3677  0.0811
 3238W        W16652   3.083  16.050  15.021  0.2278  0.2617 -0.1066
 3239W        W16653   3.457   1.099   0.796 -0.0292 -0.1205  0.2225
 3240W        W16654   8.018  16.136   2.099 -0.0671 -0.3058  0.2800
 3241W        W16655  14.237   0.572  13.207  0.1052 -0.2124 -0.0743
 3242W        W16656   1.756   4.841  12.256  0.1555  0.0243  0.2553
 3243W        W16657   1.200   9.455  15.185  0.0328 -0.1104  0.1364
 3244W        W16658   9.303  11.933   6.138 -0.0900 -0.2063  0.0722
 3245W        W16659   6.993   3.014  12.672 -0.2292 -0.0702 -0.2311
 3246W        W16660   5.641  15.172  15.337  0.2172 -0.3682  0.4254
 3247W        W16661  10.937  14.020  13.658 -0.1266  0.1677  0.2704
 3248W        W16662  18.462  13.491   0.799  0.0610 -0.0699 -0.1862
 3249W        W16663  16.825  16.440  13.135 -0.0380 -0.0559 -0.1209
 3250W        W16664   4.523   6.275   5.650 -0.1490 -0.0544  0.0317
 3251W        W16665   4.516  14.636   0.043  0.2480  0.4428  0.0456
 3252W        W16666  14.883  15.270  12.480 -0.4111 -0.3284  0.3213
 3253W        W16667  13.838   7.886  10.868  0.1997  0.1760 -0.1956
 3254W        W16668   8.574  16.218   3.471  0.2081  0.0266  0.2999
 3255W        W16669  13.819  16.850  15.573 -0.1502 -0.3321  0.1462
 3256W        W16670   4.404  16.838   2.299 -0.0847  0.4235  0.1119
 3257W        W16671  17.536   8.581   0.180  0.1027 -0.1981 -0.0233
 3258W        W16672  13.656   4.306   5.852  0.0580  0.0696 -0.0831
 3259W        W16673  13.682   3.690   5.518  0.0001 -0.1959 -0.1288
 3260W        W16674   2.625   8.274   1.958  0.2086  0.0885 -0.0431
 3261W        W16675   5.322  10.253  14.558  0.1450  0.0728  0.0302
 3262W        W16676  12.724  15.923  11.020 -0.1696  0.0615 -0.4356
 3263W        W16677   3.978   8.870   4.209 -0.1811 -0.1575 -0.2083
 3264W        W16678   2.679   1.996   1.197  0.1321  0.3681  0.0937
 3265W        W16679  14.819  14.879  15.444 -0.0380 -0.2031  0.1969
 3266W        W16680  16.098  17.927   3.527  0.0376 -0.2578 -0.0586
 3267W        W16681   6.985   9.880   2.536  0.1092 -0.2031  0.4606
 3268W        W16682   9.937  15.907  14.673  0.1579  0.0002 -0.1104
 3269W        W16683  16.721   7.787   1.618 -0.0175 -0.0822 -0.0258
 3270W        W16684  16.857   7.754   3.127 -0.0923 -0.0349 -0.0156
 3271W        W16685  10.174  16.674   2.843  0.2378 -0.0313  0.3108
 3272W        W16686  10.677  15.102   1.051 -0.3278  0.1495 -0.0464
 3273W        W16687   4.860   8.127  11.902 -0.2864  0.1512  0.0284
 3274W        W16688   7.177  15.787   5.280 -0.1146  0.0515 -0.0011
 3275W        W16689   3.216   6.633  14.786 -0.1813 -0.2331 -0.4410
 3276W        W16690   0.411  13.822   2.547 -0.1310  0.0911  0.2382
 3277W        W16691   8.564   8.229  14.319  0.0606  0.3261  0.1939
 3278W        W16692   9.271  11.038  13.573  0.1716 -0.2387  0.1044
 3279W        W16693   3.762   8.068  10.952 -0.4221 -0.1901 -0.0614
 3280W        W16694   9.766   2.899   0.638  0.0863 -0.3043  0.0691
 3281W        W16695  18.392   3.345  13.038  0.2144  0.2223 -0.0664
 3282W        W16696   8.918  16.032   3.089 -0.0376 -0.2491  0.2042
 3283W        W16697   1.299  12.450  14.543 -0.3278 -0.1850 -0.0541
 3284W        W16698  16.259   6.643  11.625  0.0154 -0.1204 -0.2894
 3285W        W16699   6.815   2.582  13.552  0.1994  0.3088 -0.1089
 3286W        W16700  12.070   1.063  10.694  0.4132  0.0596 -0.1860
 3287W        W16701   5.056  17.539   5.130  0.0357  0.2474  0.2218
 3288W        W16702   3.868  14.546   1.479 -0.0205  0.1552  0.2662
 3289W        W16703  11.570   4.275   2.082 -0.0003 -0.3179 -0.0008
 3290W        W16704   8.249   4.969   4.392 -0.1081  0.2616 -0.0381
 3291W        W16705   6.374   3.043  15.789  0.0264 -0.3325  0.0800
 3292W        W16706   0.408  13.779   0.908  0.0334  0.0105 -0.1546
 3293W        W16707   8.234   8.381   3.790  0.1356 -0.1343  0.2781
 3294W        W16708   6.551   6.979   0.925  0.0188 -0.3062  0.0272
 3295W        W16709  11.630   9.061  12.968  0.2034 -0.0314 -0.4134
 3296W        W16710  10.553  14.842   0.606  0.0527  0.1804 -0.0642
 3297W        W16711  11.129   3.907  10.066  0.2269  0.0153 -0.3450
 3298W        W16712  18.038  15.129   2.430  0.0016 -0.0585  0.2587
 3299W        W16713  13.859   8.280   2.405 -0.3190 -0.2970 -0.0651
 3300W        W16714   7.691  14.680  13.466 -0.0391 -0.1164  0.1902
 3301W        W16715   3.463  10.343   1.317  0.1978 -0.1176  0.1410
 3302W        W16716  14.101  17.280  10.931  0.1163  0.0887 -0.0605
 3303W        W16717  12.596   6.942  13.998 -0.0593  0.1366 -0.0152
 3304W        W16718   1.594   6.772  12.541 -0.2414  0.2067  0.0820
 3305W        W16719  10.833  17.074   0.093 -0.1819  0.0906  0.0025
 3306W        W16720  17.825   5.592   5.672  0.0024  0.1365 -0.0771
 3307W        W16721  14.975   8.730  12.808  0.0096 -0.1343  0.1217
 3308W        W16722  12.103  16.239  14.915 -0.0265  0.0253  0.1064
 3309W        W16723   2.045  12.965  13.049 -0.0902  0.0999 -0.2791
 3310W        W16724  11.130  12.096  10.276 -0.1269  0.0413  0.0572
 3311W        W16725  12.422  11.986  15.844 -0.3185  0.4313  0.2810
 3312W        W16726   5.979   6.742  16.227  0.0969 -0.3719 -0.0476
 3313W        W16727   3.807  14.250   2.969  0.0850 -0.0013 -0.0727
 3314W        W16728   4.276  17.886   2.765  0.1509 -0.2227  0.2178
 3315W        W16729  15.030   1.066   3.414  0.0340  0.1966  0.0693
 3316W        W16730   3.344  14.762   3.819 -0.0031  0.0270  0.0002
 3317W        W16731   5.769  13.812  15.157  0.0959  0.0246  0.1266
 3318W        W16732   9.982  16.798  13.953  0.0975 -0.1878  0.1730
 3319W        W16733   9.900   9.920  13.526  0.4626  0.0963  0.0296
 3320W        W16734  15.628   1.654   5.404  0.1163 -0.1606 -0.4025
 3321W        W16735  13.752  17.363  15.866  0.0515 -0.0311 -0.3147
 3322W        W16736   1.813  16.150   4.447 -0.1306  0.1624  0.0078
 3323W        W16737  10.379  11.739  13.597  0.0717  0.1015 -0.1859
 3324W        W16738   8.528   1.291   3.862  0.0080 -0.1063  0.2077
 3325W        W16739  15.791   6.886  15.530  0.0797 -0.0501 -0.0293
 3326W        W16740  12.998   1.183   0.681 -0.1261 -0.0200 -0.1260
 3327W        W16741   8.424  15.425   5.167 -0.1899  0.0471 -0.2089
 3328W        W16742   2.090   2.196   0.020 -0.2777 -0.4526  0.0884
 3329W        W16743  11.164  10.471   3.963  0.2028 -0.2662 -0.2185
 3330W        W16744   4.564   8.998  10.881  0.0737 -0.0323 -0.3993
 3331W        W16745   1.482  10.934  13.918 -0.1388  0.0600 -0.1773
 3332W        W16746   2.090   6.332   1.951  0.1058 -0.1819 -0.3034
 3333W        W16747   5.946   4.512  15.659  0.0291 -0.1757  0.1148
 3334W        W16748  13.949   5.157  13.230 -0.1359 -0.0854  0.1095
 3335W        W16749  16.372   4.757  14.491 -0.2649 -0.1516  0.1776
 3336W        W16750  14.295  14.409  14.420  0.0707 -0.1815  0.0435
 3337W        W16751   0.957  12.766  11.280  0.2120 -0.0157 -0.0919
 3338W        W16752   4.567  13.148   3.950  0.1323 -0.0788 -0.2991
 3339W        W16753  18.489   1.890   3.592 -0.1683  0.2220 -0.0408
 3340W        W16754  10.459   4.665  12.885 -0.0589 -0.0274  0.1093
 3341W        W16755  10.883  16.741  12.768  0.3613 -0.1048 -0.1726
 3342W        W16756   2.280   2.035   0.490  0.1019  0.1624  0.0966
 3343W        W16757   3.460   0.797  12.938 -0.0940  0.1175 -0.2351
 3344W        W16758   0.319  12.789  15.419  0.1360  0.1373 -0.0501
 3345W        W16759   7.794   0.327   3.801  0.5032  0.2367 -0.2110
 3346W        W16760  16.067   3.341  14.196  0.5143 -0.0795 -0.1274
 3347W        W16761  16.777  14.431   2.793  0.0892 -0.0266  0.3358
 3348W        W16762  13.581   7.016   4.340  0.2459  0.5948  0.0160
 3349W        W16763   6.365   9.060  11.675  0.1915 -0.1292 -0.2986
 3350W        W16764   6.144   3.366  14.815  0.1486  0.3860  0.1096
 3351W        W16765  11.067  11.915  14.704 -0.1164  0.0483 -0.0643
 3352W        W16766   4.664   3.262   1.335 -0.0053  0.1969  0.0173
 3353W        W16767  10.282   9.150  11.502 -0.1482 -0.1329 -0.0188
 3354W        W16768  18.174   6.138   0.900 -0.3180  0.1344  0.0665
 3355W        W16769   8.340   9.908   5.668  0.3188  0.0523 -0.1492
 3356W        W16770   4.510  15.900   0.103  0.0346  0.2362  0.1361
 3357W        W16771  12.554  17.070  13.547 -0.2200 -0.1320 -0.1069
 3358W        W16772  17.818   1.845  10.638  0.3318 -0.1766  0.0961
 3359W        W16773   0.360   8.935   4.372  0.0519  0.0611 -0.2438
 3360W        W16774  10.250   5.123  12.852  0.0647 -0.0942 -0.1819
 3361W        W16775   1.257   3.925   2.695  0.0654  0.2823  0.0217
 3362W        W16776  18.051  14.009   5.819  0.0596 -0.1314 -0.1744
 3363W        W16777   6.591   0.898  15.312 -0.0148  0.0934  0.1523
 3364W        W16778  12.773  11.882   3.620  0.0394  0.0769 -0.1223
 3365W        W16779  12.734   4.080   0.500  0.2023 -0.1617 -0.2495
 3366W        W16780  11.251   0.458  10.562 -0.0954 -0.2531 -0.2227
 3367W        W16781  15.135  16.250  12.347  0.2520 -0.1390 -0.0776
 3368W        W16782   4.905   4.025   4.996 -0.2329 -0.3395  0.2226
 3369W        W16783  17.482   1.021  15.542  0.0681  0.1554  0.2064
 3370W        W16784  16.018   2.221   3.819 -0.2372 -0.0984  0.1546
 3371W        W16785  13.896  11.750   5.155  0.2704 -0.1364 -0.0552
 3372W        W16786  14.550   3.577   2.122  0.0859  0.0103 -0.1147
 3373W        W16787   4.370  18.188  11.365 -0.0710 -0.0580 -0.0926
 3374W        W16788   1.517  11.176  14.815 -0.1089 -0.1044  0.0389
 3375W        W16789  13.957   1.501   3.799 -0.0684  0.0271  0.1830
 3376W        W16790  12.645   1.272   2.213 -0.2584  0.1427  0.0344
 3377W        W16791  10.211   7.520  11.711 -0.1375  0.1252  0.1329
 3378W        W16792  17.470  16.539  14.929  0.2172 -0.2633  0.1278
 3379W        W16793  18.438   2.473  12.403 -0.1541  0.1424  0.2648
 3380W        W16794  13.285   5.806  11.155 -0.2646  0.0269  0.3146
 3381W        W16795  10.310   9.418   5.518 -0.2426  0.2939  0.1859
 3382W        W16796   1.446   3.571   6.056 -0.2183  0.2684  0.4184
 3383W        W16797   1.221   3.518  13.451 -0.4352  0.0892  0.1409
 3384W        W16798   1.264   5.105   3.396  0.0763  0.1884  0.2358
 3385W        W16799  12.547  10.147  16.220  0.1005  0.0909 -0.1300
 3386W        W16800   5.744   4.735  10.193  0.5171  0.1267  0.1336
 3387W        W16801   3.392  13.882   3.845  0.4022 -0.0412  0.0057
 3388W        W16802   1.884   4.547   4.479  0.1412 -0.0095 -0.2078
 3389W        W16803   7.542  12.035  14.496 -0.3274  0.2558  0.1025
 3390W        W16804   6.496   6.139  13.507 -0.0908  0.0074  0.1030
 3391W        W16805  12.813  17.518   4.391 -0.0610  0.0164 -0.1012
 3392W        W16806   3.971   6.913  11.335  0.1250  0.0855 -0.2885
 3393W        W16807  15.994   8.402  10.868 -0.1131  0.0341  0.0696
 3394W        W16808  17.089  10.406  15.018 -0.1594 -0.0845 -0.2902
 3395W        W16809   9.033  15.598  15.988  0.0509  0.0711 -0.2455
 3396W        W16810  14.727  18.364  14.568 -0.0786 -0.4939 -0.2870
 3397W        W16811  13.036   4.722   6.091 -0.0419 -0.0072  0.0162
 3398W        W16812   2.450  14.181   0.090  0.0928  0.2882 -0.0070
 3399W        W16813   8.658  10.996  14.168  0.0587  0.1140 -0.0750
 3400W        W16814   0.507  13.663   4.988 -0.2589  0.2922  0.2588
 3401W        W16815   1.207  15.117   0.621 -0.2978  0.1175  0.0883
 3402W        W16816  18.183  15.789  16.068  0.0867  0.6966 -0.1801
 3403W        W16817   4.284  14.295   0.576 -0.1260 -0.2397  0.1017
 3404W        W16818   9.882  16.342  12.733 -0.1868 -0.0763  0.1772
 3405W        W16819   5.453   9.707  14.291 -0.1274 -0.1915 -0.1487
 3406W        W16820  12.286   1.688   1.875  0.0203  0.0525 -0.0317
 3407W        W16821  12.264   2.841  10.890 -0.1975 -0.4405 -0.2353
 3408W        W16822   9.725   5.474  15.287  0.1933  0.1353  0.1373
 3409W        W16823  16.128   8.321   5.199 -0.1268 -0.2189 -0.0871
 3410W        W16824  16.934  15.924   1.600  0.1507 -0.1309  0.2936
 3411W        W16825   9.582   3.803  11.629 -0.2041  0.0759  0.3080
 3412W        W16826  10.714   3.864   5.686 -0.1044 -0.2425 -0.0220
 3413W        W16827   5.095   9.014   1.032 -0.2846  0.4645  0.0688
 3414W        W16828  13.328   1.041   3.228  0.2108  0.0744 -0.2991
 3415W        W16829  16.567   9.612   2.214  0.1006 -0.1185  0.1598
 3416W        W16830   3.605   4.917   1.967  0.0211 -0.3469  0.2665
 3417W        W16831  12.855   3.611  13.996  0.3128 -0.0425 -0.2925
 3418W        W16832   6.557  11.645   0.196  0.2712  0.2262 -0.0267
 3419W        W16833   6.196  17.524  15.725  0.2355 -0.1716 -0.1569
 3420W        W16834   2.902  12.681  14.131 -0.1990 -0.0743  0.2729
 3421W        W16835   7.465   1.053   2.200 -0.1011 -0.1083  0.0698
 3422W        W16836  13.425  14.071   1.536 -0.0328  0.4264 -0.1054
 3423W        W16837  12.518  14.953   3.007 -0.2509  0.0441  0.1476
 3424W        W16838   4.587   4.126  15.836 -0.5667 -0.1090  0.2011
 3425W        W16839   1.345  14.632   0.030  0.0563  0.3210  0.1420
 3426W        W16840  15.647   9.152  14.149 -0.1676 -0.2818  0.1470
 3427W        W16841  15.264  15.898  15.554 -0.3968 -0.1768  0.3057
 3428W        W16842  15.687   3.512   2.340  0.1716 -0.0607  0.3052
 3429W        W16843  11.210   4.513   3.847  0.0407  0.1882  0.2573
 3430W        W16844   0.753   9.967   3.860 -0.0160 -0.1106  0.0267
 3431W        W16845  15.276  17.882   0.603 -0.0825 -0.0736 -0.0398
 3432W        W16846   3.856  12.037  10.650  0.0259  0.3544  0.2658
 3433W        W16847   7.816  11.419  13.508  0.3697  0.2774 -0.1242
 3434W        W16848   3.043   8.083   0.650 -0.1270 -0.1331 -0.0141
 3435W        W16849  12.362   5.322  15.467 -0.1940  0.4994 -0.3978
 3436W        W16850   3.514  17.998  11.744  0.1044  0.1961 -0.2089
 3437W        W16851  15.332   1.722  12.092  0.0664 -0.4142  0.0161
 3438W        W16852   5.606  13.290  13.656  0.2433 -0.0802 -0.0413
 3439W        W16853   1.426   4.557  13.152 -0.0830 -0.0061 -0.1469
 3440W        W16854  16.451   4.740   4.090  0.1796  0.2180 -0.0804
 3441W        W16855  15.862  10.311   2.077 -0.3772 -0.1292 -0.3546
 3442W        W16856   7.797   3.669  11.675  0.1025 -0.1749  0.2416
 3443W        W16857   7.432  17.283  15.359 -0.1588  0.1595  0.3417
 3444W        W16858   5.760   8.387   3.633  0.1827 -0.1994  0.0385
 3445W        W16859   1.067   3.796  11.701 -0.0633 -0.2292 -0.3101
 3446W        W16860   4.306   1.253   2.696 -0.1766 -0.1842  0.0523
 3447W        W16861  10.174  13.010   2.233 -0.0192  0.0597  0.2770
 3448W        W16862   1.995   5.763   2.098  0.3062  0.1810 -0.2779
 3449W        W16863   1.697   4.304  12.148  0.2284 -0.0665  0.0782
 3450W        W16864  17.253  13.215   0.168  0.3182  0.1121 -0.0771
 3451W        W16865  14.419   8.325   2.242 -0.2172  0.1502  0.0779
 3452W        W16866   3.989  15.960  13.932  0.2458  0.0931  0.1835
 3453W        W16867   5.472   9.780   3.336  0.2855  0.0275  0.1268
 3454W        W16868  17.234   2.303   2.914  0.2320  0.2508 -0.1174
 3455W        W16869   7.585   7.953   5.593 -0.0444  0.1579 -0.0764
 3456W        W16870  17.184   1.378  13.776  0.1513  0.4414 -0.0304
 3457W        W16871  15.251  14.470  15.382  0.0469  0.1456 -0.2038
 3458W        W16872   1.748  11.876  10.667  0.1380  0.2046  0.0802
 3459W        W16873   9.772   4.215  13.080 -0.0298 -0.2260  0.1812
 3460W        W16874   3.909   8.570   5.061 -0.2482 -0.0979 -0.0131
 3461W        W16875  17.290   6.021   4.513  0.0275  0.0326 -0.0458
 3462W        W16876   8.062  11.522   4.939 -0.1603  0.0581  0.2985
 3463W        W16877   8.813   4.357  11.849 -0.0742  0.2386 -0.1204
 3464W        W16878   7.316  11.457  14.967 -0.0647  0.0615 -0.1068
 3465W        W16879  10.652  18.054   5.557 -0.0237 -0.1776  0.4010
 3466W        W16880   1.054  18.059   3.177 -0.0939 -0.2268 -0.1030
 3467W        W16881   7.663   4.383   0.267 -0.0363  0.2455  0.0616
 3468W        W16882  14.261   9.482   1.052  0.0375 -0.1702  0.2900
 3469W        W16883  14.187   8.916   1.750  0.0504  0.2586 -0.2318
 3470W        W16884   5.222   5.353   3.563  0.0371  0.0541 -0.2548
 3471W        W16885  15.133  11.946   2.031 -0.0275  0.0482 -0.0649
 3472W        W16886  17.702  14.215  15.267 -0.0887  0.1253 -0.2328
 3473W        W16887   3.699   5.454  16.183  0.2765  0.1398 -0.1219
 3474W        W16888   1.834   3.034  13.710  0.2442  0.0024  0.4889
 3475W        W16889   8.895  11.737   2.765  0.0358 -0.1532 -0.0333
 3476W        W16890  14.062  16.207   3.036 -0.1203 -0.0325 -0.1044
 3477W        W16891  13.590  10.973   5.712  0.1454  0.3198 -0.0471
 3478W        W16892   1.737   0.930   4.476 -0.4234 -0.0460 -0.0172
 3479W        W16893   4.353  13.944   2.570 -0.0036 -0.4608  0.1634
 3480W        W16894   7.412   1.070   5.392 -0.0297 -0.0669 -0.1075
 3481W        W16895  12.046   0.813   5.446 -0.0297 -0.3418  0.2551
 3482W        W16896  16.636   7.001   1.994  0.1717  0.0369  0.0939
 3483W        W16897   7.590   4.270  10.089  0.0277 -0.1576  0.3664
 3484W        W16898  12.816   5.171  14.371  0.4928  0.0058  0.2093
 3485W        W16899  11.066   3.501   3.338  0.2158 -0.2697  0.0680
 3486W        W16900  18.447  17.498  11.394 -0.1463  0.0643  0.0020
 3487W        W16901  12.135  16.884   2.161  0.0380  0.3095  0.1180
 3488W        W16902   8.350  10.965  11.286 -0.0034 -0.0302 -0.0846
 3489W        W16903   5.974   8.534  13.216 -0.1457 -0.2911 -0.1268
 3490W        W16904  18.402  14.878   3.414 -0.1659  0.1064 -0.2905
 3491W        W16905   0.916   2.759  15.895  0.2836  0.3068  0.2638
 3492W        W16906  12.628  15.362  14.976 -0.0728  0.1847 -0.2554
 3493W        W16907  13.901  11.350   0.324 -0.0132 -0.1327  0.1134
 3494W        W16908   1.649   7.850   2.930 -0.1595  0.1559  0.1924
 3495W        W16909   0.641   3.434   4.084 -0.0893 -0.2005  0.2110
 3496W        W16910   6.511  14.365   0.695  0.0698  0.1363  0.0965
 3497W        W16911  12.470   2.232   1.754 -0.1655  0.2490  0.0935
 3498W        W16912   6.266   7.344  13.084  0.0500 -0.0540  0.1919
 3499W        W16913   5.883  12.059   5.008 -0.0494  0.0476 -0.0966
 3500W        W16914   8.160   2.210  13.003  0.0207 -0.2687  0.0029
 3501W        W16915  18.384   8.592  13.379 -0.1931  0.0950 -0.1534
 3502W        W16916   7.087  15.549  11.689  0.0892  0.0262 -0.4499
 3503W        W16917  16.301  18.278  12.514  0.1682 -0.5293 -0.2544
 3504W        W16918   7.332   0.533  15.959  0.2737  0.0519  0.3230
 3505W        W16919  11.820  15.174  16.055  0.2182  0.0640 -0.0203
 3506W        W16920  11.541   9.221  12.437  0.1980  0.3013  0.3307
 3507W        W16921   3.847  11.530  11.512 -0.4630  0.1661 -0.0104
 3508W        W16922   3.739   2.154  12.316 -0.0738 -0.0303 -0.2446
 3509W        W16923   7.110   7.624   1.813 -0.1764 -0.1119  0.1296
 3510W        W16924   6.299  12.325  15.870  0.1233  0.1169 -0.2810
 3511W        W16925   9.854   5.189  12.524 -0.0873 -0.0261  0.0495
 3512W        W16926   2.107   7.317  12.076 -0.2173 -0.0514  0.2944
 3513W        W16927  12.134  18.015  10.724  0.0252  0.3038 -0.1192
 3514W        W16928   9.876   1.564   3.686 -0.2368  0.0425 -0.0302
 3515W        W16929  11.658  15.240  11.117  0.0354 -0.0014  0.0223
 3516W        W16930  13.638   7.042   1.547 -0.2251 -0.1306 -0.1052
 3517W        W16931  16.809  15.068   4.128 -0.0162 -0.3638  0.1157
 3518W        W16932  10.806  13.942   5.806 -0.1555  0.0006 -0.0649
 3519W        W16933   5.447   7.987  11.011 -0.1330 -0.1473  0.1987
 3520W        W16934  10.370  11.927   2.186 -0.0589 -0.1545  0.1159
 3521W        W16935   9.598  15.446  11.110 -0.2307 -0.0665 -0.3098
 3522W        W16936   7.545  14.654   4.911  0.3745 -0.1179  0.2712
 3523W        W16937   5.086  18.046   1.283 -0.1430  0.0766  0.1897
 3524W        W16938  16.874  12.080   5.675  0.0083  0.0714 -0.0183
 3525W        W16939  11.198  13.961  14.142  0.0891 -0.2287 -0.0191
 3526W        W16940   2.364  11.937   3.777  0.1358  0.0502  0.1061
 3527W        W16941   2.476  12.876  15.043  0.5287 -0.0038 -0.2089
 3528W        W16942  14.251  14.213  12.718 -0.3095  0.2097 -0.1426
 3529W        W16943  16.912   4.465  13.249 -0.1062 -0.0818 -0.2845
 3530W        W16944  11.231  10.914   5.456  0.2180  0.0901 -0.0306
 3531W        W16945  10.799  11.987  13.777 -0.3528 -0.4595 -0.1457
 3532W        W16946  14.370  12.842   6.146 -0.0769  0.0657 -0.0910
 3533W        W16947   9.079  17.410  15.796  0.0604 -0.0224 -0.2519
 3534W        W16948  17.621  15.538   4.073 -0.2112  0.0410 -0.1191
 3535W        W16949   4.349  12.232   0.956  0.0137  0.0371  0.0149
 3536W        W16950  12.447  12.317   5.935 -0.2591  0.1525  0.0481
 3537W        W16951   2.622   7.014  14.107 -0.1568 -0.2885 -0.1243
 3538W        W16952   3.504  16.536  11.232  0.4196  0.0695 -0.2146
 3539W        W16953   4.268   1.817  13.159  0.1289  0.1943 -0.0395
 3540W        W16954   2.144   9.128  10.609  0.2432  0.1690  0.0429
 3541W        W16955  15.338  16.757  14.961  0.0663 -0.0391 -0.0579
 3542W        W16956   3.886   4.466   0.470  0.0961 -0.2522  0.0546
 3543W        W16957   5.518   5.957   4.629  0.1545 -0.0962 -0.1458
 3544W        W16958  14.877   4.006  15.265  0.1300 -0.0759 -0.0024
 3545W        W16959   5.591  15.930   3.380 -0.0462 -0.2941 -0.2005
 3546W        W16960   1.556  11.884   1.321  0.0665 -0.2161  0.1710
 3547W        W16961  10.785  11.479  14.707  0.0764  0.1351 -0.1803
 3548W        W16962  14.771  10.142  10.045  0.4493 -0.0419  0.0554
 3549W        W16963   5.077   5.142   2.769 -0.3502  0.0843  0.0395
 3550W        W16964  14.008  13.053  15.871  0.1416 -0.1349 -0.2055
 3551W        W16965  11.399  13.487   5.181 -0.1236  0.1730  0.3937
 3552W        W16966   0.876   9.784   0.920  0.3326 -0.2565  0.0088
 3553W        W16967  17.962  18.261  14.800 -0.1457  0.0709  0.1823
 3554W        W16968  11.484  11.470   2.648 -0.1914 -0.2053 -0.1212
 3555W        W16969  12.696   6.865   1.269  0.1778  0.0835 -0.1633
 3556W        W16970  14.400  12.718  14.084  0.1844  0.0467  0.0440
 3557W        W16971   5.416  13.431   1.589  0.1925 -0.0753 -0.2820
 3558W        W16972   6.616   9.418  16.117  0.0808  0.1921 -0.2829
 3559W        W16973   7.280  14.522  14.244  0.2487  0.2396  0.2328
 3560W        W16974   2.757  10.250   3.347  0.0868  0.0763 -0.1634
 3561W        W16975   9.504  15.460   1.276  0.0103 -0.0994 -0.1379
 3562W        W16976   4.811   5.569   5.023  0.1166 -0.4047  0.1786
 3563W        W16977  12.201  14.147  15.144 -0.1496  0.0096  0.2599
 3564W        W16978   3.436  14.734  10.124 -0.0937  0.0066 -0.0217
 3565W        W16979   1.764  16.010  15.824  0.0366 -0.2884 -0.1502
 3566W        W16980   4.843  13.166   1.356 -0.0556 -0.0990 -0.0808
 3567W        W16981  10.379   0.828  12.633  0.0965 -0.1348  0.0378
 3568W        W16982   7.224   0.431   2.775  0.0322 -0.0972 -0.3545
 3569W        W16983  12.174  13.011   3.538 -0.0035 -0.1317  0.1201
 3570W        W16984   4.309   8.035   5.886  0.1364  0.0173 -0.0235
 3571W        W16985   2.057   9.757  13.413 -0.3434 -0.0734  0.1708
 3572W        W16986   1.391  14.616   9.919  0.0775 -0.2337  0.1168
 3573W        W16987   2.311  17.338   0.224 -0.0222 -0.0082 -0.1090
 3574W        W16988   5.823   9.807  12.382 -0.0333  0.0312 -0.0822
 3575W        W16989   8.383  13.097   3.372  0.0423 -0.0139  0.1073
 3576W        W16990  17.690   2.056   1.669 -0.1134  0.3109 -0.0569
 3577W        W16991   5.369  16.809  15.463  0.0453 -0.2959  0.2318
 3578W        W16992   0.607  17.449  14.063 -0.0215  0.0512  0.2237
 3579W        W16993  15.682  15.251   3.368 -0.1216 -0.3435 -0.0787
 3580W        W16994   1.692  15.124  10.878 -0.2187  0.2491  0.1212
 3581W        W16995   3.378   8.493   1.765 -0.0225  0.2781  0.4322
 3582W        W16996  16.037  18.194  11.140  0.1786  0.0438 -0.0591
 3583W        W16997   1.874   0.953   1.348 -0.1467  0.0477 -0.0820
 3584W        W16998  14.165  15.347   1.338  0.1225 -0.0529  0.2366
 3585W        W16999   0.219  16.421   5.565  0.0315  0.2651 -0.0533
 3586W        W17000   4.364   2.366  12.330  0.2950  0.0057  0.0828
 3587W        W17001   0.671  15.438  12.228 -0.0227  0.0786  0.1095
 3588W        W17002   7.484   0.473   9.922 -0.0121 -0.0458 -0.0414
 3589W        W17003  11.611   5.606   4.922  0.3035 -0.1598  0.0534
 3590W        W17004  13.103  17.083  12.320 -0.0705 -0.0811 -0.1178
 3591W        W17005  12.903   2.051   9.786  0.0864 -0.2522  0.2517
 3592W        W17006   6.671  12.583  11.204  0.3344 -0.1209  0.3583
 3593W        W17007   9.045   2.249   5.527 -0.0310 -0.3407 -0.1305
 3594W        W17008  11.564   1.001   2.231 -0.1024  0.2236  0.1445
 3595W        W17009  16.421  13.011  11.729 -0.3201  0.0957  0.1483
 3596W        W17010   8.554   6.506  15.893 -0.1668 -0.5444  0.0145
 3597W        W17011  16.563  10.717  12.934 -0.0384 -0.0375  0.0736
 3598W        W17012   3.355   6.217  13.622 -0.3296 -0.2373  0.1408
 3599W        W17013  15.157   7.094  10.581 -0.1696  0.0530  0.1011
 3600W        W17014   4.078   6.744  10.879 -0.0667  0.4908 -0.0706
 3601W        W17015   7.359  10.726  10.913  0.2637  0.0921 -0.4992
 3602W        W17016  10.668   6.377   2.892  0.0449  0.2145  0.2902
 3603W        W17017   6.065   8.903  12.778  0.0957  0.0404  0.2724
 3604W        W17018   8.914   4.306   6.676  0.0869 -0.0615  0.0896
 3605W        W17019  12.938  11.124  10.847  0.2085  0.0337 -0.0163
 3606W        W17020   6.528  12.738  13.725 -0.0657  0.0327  0.0128
 3607W        W17021   9.542  13.313  12.361 -0.1222 -0.2655  0.0701
 3608W        W17022   9.987  14.618  11.294  0.0238 -0.0749  0.2518
 3609W        W17023  14.870  16.440   3.537  0.1305 -0.1575 -0.1396
 3610W        W17024  17.057  12.485  12.301 -0.1753 -0.0174 -0.0075
 3611W        W17025  17.804  10.954   2.189 -0.2106  0.0337  0.0525
 3612W        W17026   2.549   6.194  10.596  0.3393  0.1323 -0.2554
 3613W        W17027   7.883  11.070   5.137  0.2952  0.0093 -0.2180
 3614W        W17028   6.621   1.345   0.260  0.0951  0.2140 -0.1072
 3615W        W17029   4.764  12.541  11.845 -0.2094  0.2522 -0.3194
 3616W        W17030   5.421  18.075  12.865 -0.1396  0.0450 -0.0790
 3617W        W17031  12.590  14.610  11.847  0.2843  0.0556  0.0331
 3618W        W17032  12.889  15.477   0.823  0.0557  0.3171  0.0460
 3619W        W17033  17.682   2.339  11.330  0.4594  0.1562  0.0846
 3620W        W17034  14.291  16.317   4.738  0.3319  0.0115 -0.2851
 3621W        W17035  10.324   5.054  11.401 -0.0442  0.0472 -0.0221
 3622W        W17036   6.461   0.964  10.455  0.3719  0.0955 -0.0603
 3623W        W17037  13.005  10.781   2.182  0.1452  0.1266 -0.0983
 3624W        W17038  18.173   9.128   3.379 -0.0268 -0.0546  0.0144
 3625W        W17039  13.757  12.603  14.613  0.1610  0.1230 -0.1413
 3626W        W17040   8.077  14.506   3.128  0.0242  0.2153  0.0937
 3627W        W17041  16.060  12.263   1.432 -0.1701  0.1713  0.1784
 3628W        W17042  13.262   3.540  10.777  0.1039 -0.0566 -0.0532
 3629W        W17043  11.488  13.540  14.127  0.0203  0.0425 -0.2616
 3630W        W17044  15.140   7.928   2.740 -0.1296  0.0606  0.0351
 3631W        W17045  13.939  17.522   1.158  0.0849 -0.2726  0.1111
 3632W        W17046  13.044  16.909   1.232  0.0558 -0.0824  0.2053
 3633W        W17047  14.963  16.294  13.675 -0.1112  0.0021 -0.0888
 3634W        W17048   0.438  11.867  10.707  0.0177  0.2442  0.1391
 3635W        W17049   3.807   5.050   3.823  0.5883 -0.3151 -0.1491
 3636W        W17050   7.437  17.510  11.145 -0.1862 -0.2783  0.0201
 3637W        W17051   7.572   3.756   5.667  0.1986  0.2555  0.0815
 3638W        W17052  17.131  11.976  11.694  0.0068 -0.2052 -0.0547
 3639W        W17053   7.226  12.583  15.815  0.1632 -0.2128 -0.0380
 3640W        W17054  15.523  12.064   0.783  0.1080 -0.2451 -0.1003
 3641W        W17055  14.420   2.302  15.964  0.0378  0.1027 -0.0158
 3642W        W17056   5.962   5.427  14.401 -0.1487 -0.0316  0.4338
 3643W        W17057   0.682  14.187   4.899 -0.5824 -0.0834 -0.1839
 3644W        W17058   0.324   3.688   1.988 -0.3994 -0.1328  0.0848
 3645W        W17059  12.292  15.836  12.107 -0.1158  0.0336  0.0408
 3646W        W17060  15.152   7.693  16.043 -0.2613 -0.1495  0.2611
 3647W        W17061   5.757  14.633   5.667  0.2189 -0.1188  0.2250
 3648W        W17062   2.328  12.567   1.458  0.0243 -0.2005 -0.0008
 3649W        W17063   1.445  17.681   1.841  0.2221 -0.3651 -0.3027
 3650W        W17064   7.328   8.473  13.408 -0.2060  0.0657  0.1709
 3651W        W17065   7.226  17.734  13.540  0.0288  0.1573  0.1341
 3652W        W17066   9.589   9.425  15.002 -0.0906  0.3829 -0.2332
 3653W        W17067  11.440  17.826  14.062 -0.2084  0.1630 -0.0617
 3654W        W17068  14.658   0.432  10.773 -0.0774  0.0110  0.4356
 3655W        W17069   7.254   7.493  15.449 -0.0105  0.1021  0.1356
 3656W        W17070   8.492   6.663   3.931  0.1784 -0.2738 -0.1369
 3657W        W17071   7.914   2.860  13.155  0.0121 -0.1725 -0.0262
 3658W        W17072  14.442   5.666   0.308  0.0914 -0.3488 -0.1629
 3659W        W17073   2.983   0.909  11.021  0.1720  0.0827  0.1377
 3660W        W17074  18.517  13.846   1.778  0.0214 -0.0281 -0.0616
 3661W        W17075   5.359  17.483   1.520 -0.1492 -0.0011 -0.4588
 3662W        W17076   2.667  16.401  11.138  0.0049  0.1225 -0.3625
 3663W        W17077   0.073  11.751  13.083 -0.1825  0.1330 -0.0654
 3664W        W17078   5.789   5.431   0.847  0.1316  0.0976 -0.0405
 3665W        W17079  10.979  15.266   4.673  0.0862 -0.4967 -0.0429
 3666W        W17080  11.813  17.950   3.648  0.0672  0.1069 -0.0176
 3667W        W17081  13.342   8.636   1.785  0.0406  0.3745  0.0040
 3668W        W17082   8.318  18.057   2.940  0.0769  0.3250 -0.2520
 3669W        W17083   2.470   4.236  12.843  0.0065 -0.0126 -0.0676
 3670W        W17084   0.416  11.364  14.545  0.2684  0.1286  0.0540
 3671W        W17085  14.795   1.015   4.455 -0.3525  0.4466  0.2083
 3672W        W17086   7.365  11.237   2.742  0.1265 -0.0964  0.3374
 3673W        W17087  17.019   5.363  15.644 -0.2176  0.2838 -0.0337
 3674W        W17088  14.467  12.992   4.100 -0.0356 -0.0139 -0.1527
 3675W        W17089   4.869  10.666  14.701 -0.0413  0.0726 -0.0088
 3676W        W17090   3.443  14.909   0.583  0.0488  0.0279  0.1141
 3677W        W17091  10.132  17.460  11.987  0.0807  0.0706 -0.2037
 3678W        W17092  10.438   6.718  12.636 -0.0262  0.1058 -0.5340
 3679W        W17093   4.609  16.448   4.412 -0.0668 -0.2820 -0.2940
 3680W        W17094  13.159   6.537   2.383 -0.0812 -0.2062 -0.0556
 3681W        W17095   4.755   0.296   2.960 -0.0287  0.4001 -0.0793
 3682W        W17096  13.458   2.417  15.929  0.2213 -0.0137  0.0397
 3683W        W17097   9.836  10.482  13.226 -0.2014  0.1977 -0.0997
 3684W        W17098   7.985  14.987   4.881  0.0488  0.0762 -0.1120
 3685W        W17099   3.721   2.350   2.926 -0.1759  0.2196 -0.0781
 3686W        W17100   6.111   6.126   2.098 -0.0485  0.0173  0.0904
 3687W        W17101   6.386   6.472   5.415  0.1507 -0.2406 -0.1657
 3688W        W17102  15.262   3.142   2.398  0.2533 -0.0828 -0.0796
 3689W        W17103   9.157  15.612   9.474  0.0880 -0.0054 -0.0679
 3690W        W17104  17.658   3.504   4.554 -0.0770  0.0023 -0.0637
 3691W        W17105  14.330  15.371   2.964  0.3135  0.1530 -0.0427
 3692W        W17106  11.048   4.020   6.262 -0.1530 -0.0997 -0.1652
 3693W        W17107   0.968  14.801   0.933  0.1276 -0.4336 -0.0131
 3694W        W17108   3.333   8.805   2.532  0.1247 -0.0585 -0.1185
 3695W        W17109   3.425   1.175   1.354 -0.1063  0.1974 -0.0673
 3696W        W17110  12.257  15.879   2.409  0.0345  0.1870  0.1125
 3697W        W17111   4.895  14.110   2.673 -0.1963 -0.1813 -0.1311
 3698W        W17112   4.705   0.538   1.329  0.1764 -0.1301 -0.0887
 3699W        W17113  11.081  12.777  13.076 -0.1155  0.0228 -0.2073
 3700W        W17114   2.502  14.782   2.667 -0.0133  0.1471 -0.0477
 3701W        W17115   7.760   6.162  11.040 -0.3528 -0.4601 -0.0893
 3702W        W17116  14.187   5.452   3.874 -0.0064 -0.0519 -0.0014
 3703W        W17117   3.764   4.841   0.151  0.3398 -0.1042  0.1472
 3704W        W17118   0.685   2.670   1.090  0.1039 -0.5520  0.2203
 3705W        W17119   6.140  18.041  11.028  0.2463  0.0044  0.2502
 3706W        W17120  16.578   1.246  10.073  0.1977 -0.2816  0.1182
 3707W        W17121   5.736  10.487  11.923 -0.0340 -0.1118 -0.0663
 3708W        W17122   1.432   6.677   4.259  0.1666 -0.2327 -0.0214
 3709W        W17123   0.085  14.217  13.404  0.0866  0.3463  0.1686
 3710W        W17124   3.027  13.734  15.009 -0.2491 -0.0930 -0.1554
 3711W        W17125  15.301   2.632  13.455  0.0283 -0.1005 -0.2103
 3712W        W17126   9.671  13.615  13.205  0.2370 -0.1769 -0.1016
 3713W        W17127   1.686   9.730  11.273 -0.0520 -0.0295 -0.2463
 3714W        W17128  14.384  14.668  10.931  0.0272 -0.2164  0.1185
 3715W        W17129  11.175   4.335   3.020 -0.2055  0.1284 -0.0023
 3716W        W17130  14.427  11.016  13.934 -0.0697  0.0408  0.0875
 3717W        W17131   3.851   2.435   5.953 -0.0310 -0.2024  0.0020
 3718W        W17132   1.923  17.598  11.400 -0.2791 -0.1126  0.0530
 3719W        W17133   8.777   4.917   5.044  0.1211  0.0473  0.0954
 3720W        W17134   3.079  13.522   0.985 -0.0195  0.1746  0.2905
 3721W        W17135   9.120   9.462   6.083  0.2796 -0.0099  0.0145
 3722W        W17136   1.829   9.141   3.628  0.2872 -0.3192 -0.2525
 3723W        W17137   5.527   6.032  11.983  0.0831 -0.0727 -0.2742
 3724W        W17138  16.719   9.717   0.454  0.3102 -0.0723 -0.2398
 3725W        W17139   6.563   4.419  11.034  0.0127  0.0013  0.2521
 3726W        W17140  14.630   2.983   2.689  0.3361  0.0312  0.0043
 3727W        W17141   3.761   3.749  14.971 -0.2733  0.1407  0.0884
 3728W        W17142  10.394   2.139   5.345  0.0148 -0.0427  0.1584
 3729W        W17143   0.405  11.409   2.824 -0.1774  0.2429  0.1721
 3730W        W17144  14.583   2.720   5.522 -0.2120 -0.2901 -0.0105
 3731W        W17145   1.778  14.282  10.920 -0.1666 -0.2198  0.2847
 3732W        W17146   6.895   5.911  11.565 -0.1086 -0.0102 -0.0657
 3733W        W17147   2.606  15.207  15.273  0.2787  0.1735  0.1477
 3734W        W17148   7.078   2.746  10.475  0.3382 -0.2389 -0.0379
 3735W        W17149   1.130   7.568   1.349  0.2072  0.0798 -0.2421
 3736W        W17150  16.420   0.526  16.138  0.0915  0.0743 -0.2628
 3737W        W17151  15.641   0.200   1.400 -0.1712  0.1779  0.0688
 3738W        W17152   0.787  10.233   5.299 -0.1792 -0.0041  0.2499
 3739W        W17153   8.455  11.654   3.737  0.1318  0.2891 -0.1240
 3740W        W17154   4.492  17.442  13.701 -0.1895  0.0361  0.1372
 3741W        W17155  14.458   5.101  13.545 -0.4182  0.1802  0.2055
 3742W        W17156  11.888   5.704  15.724  0.3825  0.0581 -0.0640
 3743W        W17157   0.466  14.174   4.025  0.2713  0.2177  0.2396
 3744W        W17158  10.263  15.255   1.498 -0.2807 -0.2060  0.3453
 3745W        W17159  13.240   0.036   2.335 -0.1265 -0.0009 -0.2899
 3746W        W17160  15.716   1.186   1.262  0.0881 -0.0516 -0.0043
 3747W        W17161   0.135  16.699   6.575 -0.0988 -0.0126  0.1889
 3748W        W17162  13.308   9.738  15.029  0.0636 -0.3667 -0.0912
 3749W        W17163  14.941   2.915   5.908  0.2686 -0.1254  0.2466
 3750W        W17164  10.675   0.217   0.366 -0.0629  0.2434  0.1165
 3751W        W17165  11.763  12.291  15.095 -0.3705 -0.1219  0.2802
 3752W        W17166   8.345   5.982   0.641 -0.2244 -0.0644 -0.3623
 3753W        W17167   8.616   5.605   2.772  0.0331 -0.2963  0.0408
 3754W        W17168   5.192  14.648   3.417  0.1314 -0.2278  0.1181
 3755W        W17169  11.946   8.220  15.402  0.2504  0.0785  0.2323
 3756W        W17170   0.594   1.465  14.401  0.1269  0.0956 -0.2118
 3757W        W17171   0.649  15.661   1.186  0.1587  0.0454 -0.1335
 3758W        W17172  14.831   1.165   1.874  0.1322  0.2646 -0.0193
 3759W        W17173   6.946   0.947  12.404 -0.1360  0.0759  0.0545
 3760W        W17174   6.717   9.263   5.181 -0.1859  0.5073 -0.1633
 3761W        W17175   2.855  18.066  13.969  0.0856  0.4377 -0.1497
 3762W        W17176  16.676   2.503  14.488  0.0300  0.1080  0.1414
 3763W        W17177   3.022   4.926   2.070  0.0984  0.0646 -0.1855
 3764W        W17178  16.673   9.071   3.238  0.0711  0.3747 -0.2080
 3765W        W17179   5.271   2.863  13.341 -0.2993 -0.1748 -0.1133
 3766W        W17180  18.473   3.722   4.090  0.1397  0.0040 -0.2672
 3767W        W17181   6.434   4.945   0.664 -0.0001 -0.3154 -0.0784
 3768W        W17182   9.133   4.915  14.271 -0.1091  0.5326  0.3607
 3769W        W17183  16.662  18.484  12.843  0.3721  0.0784  0.5158
 3770W        W17184  13.232  15.149   4.882 -0.0662  0.0158  0.0675
 3771W        W17185  10.324  16.508  10.724 -0.0558 -0.0241  0.0186
 3772W        W17186   0.565   3.296   0.302  0.0365  0.0432 -0.2618
 3773W        W17187   2.142   3.598   4.011 -0.0733  0.1408  0.0775
 3774W        W17188   4.924   0.917   0.530 -0.3355  0.1381  0.1318
 3775W        W17189   6.003   9.005  14.693  0.2133  0.1556  0.5115
 3776W        W17190  13.901   4.030   1.129  0.2514  0.0672 -0.2939
 3777W        W17191   8.253  17.815  11.932 -0.0398 -0.0596 -0.1014
 3778W        W17192  17.250   6.983   5.410  0.0492 -0.1805  0.1036
 3779W        W17193  16.869   8.093  10.705 -0.0283  0.1065 -0.3072
 3780W        W17194  10.980  16.311   3.476  0.1979 -0.1608 -0.2529
 3781W        W17195   8.021  17.929   3.382  0.0399  0.2639  0.1674
 3782W        W17196   9.910   1.452   3.198  0.0698 -0.1774  0.0239
 3783W        W17197   9.517   7.142   4.119 -0.2843  0.0432  0.3475
 3784W        W17198   5.061  18.073  14.989 -0.0445 -0.1146 -0.2825
 3785W        W17199   5.484   5.064   1.781  0.0184 -0.2900  0.0849
 3786W        W17200   8.082   3.032   3.200 -0.1233  0.0706 -0.0183
 3787W        W17201   1.705  13.999   4.468  0.3953  0.0271  0.0315
 3788W        W17202   4.078  14.330   3.471 -0.0120  0.1216 -0.1713
 3789W        W17203   5.632   8.751  14.516 -0.0639  0.0813  0.0028
 3790W        W17204   1.760  15.485  15.277  0.0647  0.4506  0.1554
 3791W        W17205   9.993   1.778  14.394  0.0520  0.2459  0.1568
 3792W        W17206  12.668  16.074   0.143 -0.2154 -0.0055  0.3764
 3793W        W17207  16.850  13.820  11.943 -0.2310  0.4230  0.0687
 3794W        W17208  14.875  10.575   3.397  0.0899  0.0700 -0.0629
 3795W        W17209   7.303  12.182   2.540  0.0101 -0.0013  0.1892
 3796W        W17210   5.524  14.221  12.860  0.2981 -0.0025  0.2933
 3797W        W17211   8.683   9.904   6.061 -0.1691 -0.2145 -0.1876
 3798W        W17212  10.598   0.978   6.433  0.2511  0.1786 -0.0178
 3799W        W17213  17.580   0.070  14.617 -0.1868 -0.2907  0.0642
 3800W        W17214  17.885  14.290  12.425  0.2462  0.2254  0.2553
 3801W        W17215   6.912   4.942  12.371 -0.0648 -0.0066 -0.1208
 3802W        W17216  13.284   3.303  14.578 -0.1544  0.3156  0.1219
 3803W        W17217  11.835   8.880  15.752 -0.0690  0.1677 -0.2926
 3804W        W17218   7.649  16.455  15.204 -0.0908  0.2957  0.0758
 3805W        W17219  15.418   9.529   5.088  0.1934  0.1447  0.0454
 3806W        W17220   7.600  12.525   4.976  0.4705 -0.0149  0.2432
 3807W        W17221   1.408  11.729  14.018  0.0008 -0.1690  0.0244
 3808W        W17222  14.335   0.580   5.282  0.0145  0.0270 -0.3271
 3809W        W17223   9.396  14.498  13.869 -0.1615  0.0068 -0.0792
 3810W        W17224   7.534  15.622  11.460 -0.2182  0.0925  0.1101
 3811W        W17225  10.367  13.152  11.546  0.2269  0.1588 -0.0496
 3812W        W17226   6.819   0.851  14.817 -0.0610  0.0071  0.0397
 3813W        W17227  11.731   2.527   5.770 -0.0441 -0.2907  0.4165
 3814W        W17228  10.396  11.602  11.164 -0.1645  0.1762  0.0556
 3815W        W17229   4.742  17.202   2.542  0.0478  0.2461 -0.1451
 3816W        W17230  14.490  13.053   5.694 -0.3178  0.1004 -0.3753
 3817W        W17231  16.927  14.156   5.244  0.0218 -0.1275  0.1428
 3818W        W17232   3.993  10.748  11.790  0.0409 -0.1140  0.0614
 3819W        W17233  15.217   8.712  14.141  0.1873  0.0574 -0.2350
 3820W        W17234   2.635   4.579  13.883  0.1397  0.2060  0.2327
 3821W        W17235  16.161   0.113  14.675 -0.1512  0.0547 -0.0540
 3822W        W17236  12.067   9.373   5.140 -0.0379 -0.1687 -0.0481
 3823W        W17237  17.266   7.449  14.726  0.1075 -0.0001  0.0518
 3824W        W17238  13.095  16.677  11.492 -0.0563 -0.0399 -0.1345
 3825W        W17239   8.918  11.406  13.163 -0.1117  0.1821 -0.2871
 3826W        W17240  11.974   3.614   1.905 -0.0353 -0.0253  0.1043
 3827W        W17241   6.486   8.331  12.979  0.1353 -0.0755  0.0333
 3828W        W17242  11.309   8.756  12.324  0.1051 -0.1063  0.2398
 3829W        W17243   5.396   1.608  13.131 -0.1935 -0.1209  0.1729
 3830W        W17244  10.391  16.303   2.400 -0.3706 -0.0055  0.2459
 3831W        W17245  15.407   1.935   1.570  0.0241  0.1132 -0.0307
 3832W        W17246   3.539  13.899  14.840  0.0361  0.0284  0.3593
 3833W        W17247  18.303   9.827   1.745  0.1241  0.2259  0.1778
 3834W        W17248  16.384  10.366   2.012  0.3267 -0.1793 -0.1724
 3835W        W17249   0.195  13.396   4.757  0.0467  0.1972 -0.0647
 3836W        W17250  12.210   0.178   1.190  0.0492 -0.1828 -0.0953
 3837W        W17251  15.565  14.657  15.719  0.1565 -0.0959 -0.2127
 3838W        W17252  16.339  14.667  11.740 -0.0383 -0.3076 -0.5140
 3839W        W17253   6.826  14.829  14.203  0.4278 -0.1904 -0.1489
 3840W        W17254  13.554   8.590  10.154  0.1895  0.1150 -0.3251
 3841W        W17255   8.634   7.131   4.157 -0.0271 -0.0011 -0.0886
 3842W        W17256  11.222   0.950  11.042 -0.4690  0.0712  0.1222
 3843W        W17257  12.003  13.671  12.024 -0.0536 -0.2945  0.1621
 3844W        W17258  17.361  16.270  10.597  0.0855  0.1762 -0.2118
 3845W        W17259  15.250   1.810  14.039  0.0614  0.1107 -0.1057
 3846W        W17260   8.270  11.883   2.395 -0.1763  0.5997 -0.1448
 3847W        W17261   6.802   3.383   4.983  0.1570  0.1520  0.1132
 3848W        W17262   8.024   0.480  12.308 -0.0653  0.1793 -0.2707
 3849W        W17263  18.264   8.918  10.895  0.1885 -0.1328 -0.1853
 3850W        W17264   2.391   9.898   3.517  0.3382  0.2473 -0.0226
 3851W        W17265  11.912   8.243  13.521 -0.0398 -0.5014  0.1633
 3852W        W17266   0.479   2.066   3.461  0.0282  0.0096  0.0300
 3853W        W17267  17.560   2.686   2.886 -0.0560 -0.0475 -0.1555
 3854W        W17268   0.409  17.696   0.102  0.3284 -0.0204 -0.2452
 3855W        W17269   2.248   8.632   1.838 -0.0298  0.3786 -0.2508
 3856W        W17270   2.148   6.556  13.309  0.0037  0.1136  0.2427
 3857W        W17271  11.521  16.125   0.978 -0.0132  0.0682 -0.2423
 3858W        W17272   0.570   7.491  12.855  0.0834 -0.0015  0.2758
 3859W        W17273  17.268   7.789   4.886 -0.1938 -0.0344  0.2579
 3860W        W17274   6.158   2.886  11.756 -0.0381  0.1785 -0.0086
 3861W        W17275  10.004  17.969  12.027 -0.1580  0.1130  0.4637
 3862W        W17276  17.905   0.520  13.548  0.1498  0.0617  0.0197
 3863W        W17277  13.339   5.024  11.780 -0.3438 -0.1942 -0.3176
 3864W        W17278  15.226   1.378  14.430  0.0428  0.1106  0.0355
 3865W        W17279  11.272  14.833   6.027 -0.0539  0.1722  0.3578
 3866W        W17280   1.984  12.772   0.420  0.2819 -0.1327  0.1010
 3867W        W17281  11.313   4.775   2.766  0.2692  0.1301 -0.0841
 3868W        W17282   4.746  16.563  11.946 -0.0773 -0.1650 -0.0836
 3869W        W17283  13.764   4.485  15.754 -0.0042 -0.0582  0.3548
 3870W        W17284  10.835  12.285   2.889  0.0174  0.4585 -0.0763
 3871W        W17285   1.974  17.079   1.378 -0.0866  0.0504  0.1230
 3872W        W17286   9.169  14.237  15.109 -0.0967  0.0350 -0.0468
 3873W        W17287  16.083   2.163   1.666  0.1134  0.0611 -0.0195
 3874W        W17288  16.822   8.217   4.365  0.2318 -0.3552  0.1054
 3875W        W17289  11.328  18.447   3.253  0.0474 -0.1459  0.3044
 3876W        W17290   3.247   0.014   3.041  0.0985  0.3464 -0.0566
 3877W        W17291   1.518   1.994  12.482  0.1358  0.0878 -0.2124
 3878W        W17292   8.605  14.196   0.105  0.0971  0.1727  0.4446
 3879W        W17293   3.929   6.023  12.139 -0.1595  0.1287  0.0605
 3880W        W17294  11.073  12.817   4.671  0.0359  0.0590  0.0810
 3881W        W17295   5.069   8.061  10.732  0.0136  0.0616  0.0433
 3882W        W17296   3.315   6.902  15.716 -0.1925  0.0877  0.0271
 3883W        W17297   9.766   2.705  13.268  0.1137 -0.0304 -0.2531
 3884W        W17298  10.398  14.310   2.061 -0.0441 -0.0155 -0.0274
 3885W        W17299   3.584   5.928  11.590  0.1943  0.0509  0.0637
 3886W        W17300  18.338   1.742   0.769  0.0353  0.1026  0.2589
 3887W        W17301   8.869  11.681   0.307 -0.2529  0.0831 -0.0186
 3888W        W17302  16.021   0.596  10.497 -0.0402 -0.1852 -0.0066
 3889W        W17303  17.644   9.021   0.564  0.1948  0.3597 -0.1244
 3890W        W17304   6.786  13.574   3.036 -0.0247 -0.2679 -0.0173
 3891W        W17305   4.316   3.258  14.486 -0.1226  0.1140  0.1789
 3892W        W17306  17.090   5.388  13.799  0.1948 -0.2274 -0.0050
 3893W        W17307  10.836  14.030   0.592 -0.2754  0.0016 -0.0680
 3894W        W17308   8.218  15.270  15.433  0.1532 -0.1250  0.1516
 3895W        W17309  14.352   4.428   3.050 -0.1179 -0.0762  0.1310
 3896W        W17310   8.417   8.793  15.334  0.0982 -0.3582  0.1865
 3897W        W17311   0.047  10.759   5.588  0.0717  0.3215 -0.1897
 3898W        W17312  14.677   1.028  12.156 -0.2325 -0.1329 -0.1711
 3899W        W17313   4.139  12.506  11.751 -0.3540 -0.0426 -0.0311
 3900W        W17314  10.966  16.381  15.470 -0.1373  0.2536 -0.0230
 3901W        W17315   0.163   6.060   3.503  0.2270 -0.0645 -0.0027
 3902W        W17316  16.973  10.408   5.065 -0.1359 -0.4391  0.3090
 3903W        W17317   7.904   4.908   3.512  0.1990  0.1977 -0.0432
 3904W        W17318  14.050  13.996   3.567 -0.0340  0.1248  0.3393
 3905W        W17319  13.985   1.749  12.869  0.0989  0.0316  0.0389
 3906W        W17320   0.516  15.931  15.534  0.1405 -0.1660 -0.1469
 3907W        W17321   3.706   5.277   1.413 -0.3144  0.0326 -0.1273
 3908W        W17322   9.808   3.236   1.030  0.2659 -0.1782  0.0187
 3909W        W17323  13.930   4.300  10.909 -0.1989 -0.0066 -0.1864
 3910W        W17324   4.715  18.407  12.032 -0.4123  0.1404 -0.0690
 3911W        W17325  13.046   8.763  16.215  0.0353 -0.0572 -0.0998
 3912W        W17326  13.003  17.886  15.504 -0.0287  0.3248 -0.3148
 3913W        W17327  11.885   7.590   0.644  0.0029 -0.0809  0.0325
 3914W        W17328   3.162  18.423   0.631  0.1924  0.2724  0.1318
 3915W        W17329   2.798   9.710  14.990 -0.3218 -0.1145 -0.0583
 3916W        W17330   5.585   1.436   5.651  0.1049  0.1882  0.1277
 3917W        W17331  14.453   3.672   0.819 -0.1576 -0.0609  0.0213
 3918W        W17332  16.711   8.705   4.441  0.1617  0.3004 -0.0565
 3919W        W17333   6.270   7.022   2.496 -0.0392  0.0125 -0.0111
 3920W        W17334   9.715   3.129  13.819 -0.1424 -0.0446 -0.3882
 3921W        W17335  12.912  12.504  16.075  0.0334  0.0879  0.3250
 3922W        W17336   6.246  18.089   3.024 -0.2160 -0.0083 -0.0692
 3923W        W17337  12.615   0.255  11.478 -0.0998 -0.0663 -0.1441
 3924W        W17338   8.777   2.818  14.097  0.1406 -0.2642 -0.2980
 3925W        W17339  10.646  14.007  11.875 -0.0482 -0.3372  0.1762
 3926W        W17340   2.305  15.821  12.694 -0.3919 -0.0581  0.1437
 3927W        W17341   2.751  16.113  13.501  0.0694  0.0043  0.1185
 3928W        W17342   7.865  11.666   9.935 -0.3842  0.3472 -0.4375
 3929W        W17343   1.030  18.463   0.967  0.1846  0.0319  0.0482
 3930W        W17344   6.080  18.487  13.667  0.0757 -0.1758  0.1973
 3931W        W17345  18.156  13.797  13.555 -0.3463  0.0449  0.0015
 3932W        W17346   8.144  16.103   1.025 -0.3480  0.0363 -0.2228
 3933W        W17347   6.283   9.514  12.021 -0.2801 -0.0838 -0.1838
 3934W        W17348   8.062   8.231   2.891  0.0590 -0.2421  0.2397
 3935W        W17349  11.304  14.576   3.249  0.0644 -0.2104  0.1304
 3936W        W17350  14.607  11.994   4.609  0.0380 -0.0331 -0.0313
 3937W        W17351   5.267   8.908   4.158 -0.0629  0.0586  0.3734
 3938W        W17352  11.767   8.580  11.188 -0.1059 -0.0080  0.0915
 3939W        W17353   4.332  14.219  13.014  0.2386  0.0681 -0.0119
 3940W        W17354   1.591   0.513  12.528  0.0166  0.1008 -0.0689
 3941W        W17355   8.089  15.903   3.413  0.0199 -0.1098  0.0907
 3942W        W17356  14.504   9.779  12.658 -0.0597  0.1316  0.3452
 3943W        W17357   8.742  13.064  10.763  0.0945 -0.1182  0.2709
 3944W        W17358  11.452   1.521   6.525 -0.2384  0.0439  0.0200
 3945W        W17359   4.310   3.334   0.238 -0.0312 -0.1593  0.1920
 3946W        W17360   0.279   9.708   0.019 -0.0500  0.1280 -0.0961
 3947W        W17361   1.707  13.774  16.099  0.0929  0.0820 -0.1802
 3948W        W17362   4.760   5.465   1.914 -0.2185 -0.1583  0.1674
 3949W        W17363  15.744   6.435  13.830 -0.2591 -0.0732 -0.0218
 3950W        W17364  11.880   7.375  11.327  0.1744  0.3398 -0.0408
 3951W        W17365   9.097   8.874   0.602  0.2163 -0.3047  0.1419
 3952W        W17366   7.997  12.157   2.792 -0.1306  0.2991  0.0099
 3953W        W17367  11.551  15.626  13.404 -0.0598 -0.0398 -0.1649
 3954W        W17368  16.690  10.198  13.988 -0.1133 -0.0503  0.1308
 3955W        W17369   2.201   9.535   4.869 -0.1321 -0.1949 -0.2248
 3956W        W17370   3.369   9.961  15.575 -0.1010  0.0990 -0.0539
 3957W        W17371  16.952  12.038  12.123  0.1577  0.1661 -0.1499
 3958W        W17372   3.203   2.591   6.590  0.2342 -0.1663  0.1078
 3959W        W17373  17.748  16.238   5.145 -0.0513  0.3811 -0.0551
 3960W        W17374  16.725  17.115   4.115 -0.2585  0.1375  0.2486
 3961W        W17375  18.222  10.709   3.798 -0.1997 -0.1422 -0.0217
 3962W        W17376   5.363   1.563   4.332 -0.3964  0.1271 -0.1162
 3963W        W17377   3.627   6.818  11.711  0.0396 -0.1464 -0.0113
 3964W        W17378   5.823  12.975  13.346 -0.2481 -0.0065  0.2856
 3965W        W17379  17.816  13.166  15.693 -0.0920  0.0358 -0.0258
 3966W        W17380   5.768   7.671  14.588  0.2810 -0.3182 -0.2131
 3967W        W17381  10.291  10.896   5.318 -0.0625 -0.2378 -0.1441
 3968W        W17382   3.778   4.826   2.433 -0.3731 -0.0736 -0.0347
 3969W        W17383   4.583  13.299  10.327 -0.1079 -0.2306 -0.2308
 3970W        W17384  12.772  14.533  10.901  0.0243 -0.0034 -0.0669
 3971W        W17385  18.018  18.222  14.110 -0.0115 -0.1088  0.0289
 3972W        W17386  15.737   9.510  13.291 -0.3225  0.1950 -0.0969
 3973W        W17387   9.632   6.831   0.122 -0.1891  0.5635 -0.0864
 3974W        W17388   7.309   1.864  10.744  0.0072 -0.1358 -0.2178
 3975W        W17389   4.625   9.538  14.657 -0.2056  0.1733  0.3471
 3976W        W17390   1.394  10.088  11.074  0.3216 -0.0420  0.0166
 3977W        W17391  10.611   5.592  14.912 -0.1790  0.1655 -0.2132
 3978W        W17392   7.528   5.629  13.370 -0.1681 -0.1768  0.1567
 3979W        W17393   8.001   7.265   2.293 -0.3168 -0.1625 -0.0435
 3980W        W17394   8.961  14.726  14.658  0.1116  0.3277  0.1399
 3981W        W17395  14.976  14.682   1.617 -0.0801  0.2127 -0.0571
 3982W        W17396  18.160   3.556  15.544  0.0097 -0.1021  0.7078
 3983W        W17397  12.535  17.677  12.804  0.2497 -0.1832  0.0564
 3984W        W17398   9.824   4.316   2.662 -0.0516  0.0185 -0.1411
 3985W        W17399   4.165  14.302  14.377 -0.1328 -0.1349  0.0446
 3986W        W17400  12.048   2.105   4.953  0.0071  0.2048  0.1021
 3987W        W17401   0.060  17.767   5.207  0.0717 -0.3911 -0.1043
 3988W        W17402  10.299  13.859  10.833 -0.0414  0.0641  0.1785
 3989W        W17403  10.739  16.703   6.142 -0.0734 -0.0217 -0.0880
 3990W        W17404   8.220   0.373  13.887  0.0957  0.1499 -0.1003
 3991W        W17405   6.258  14.114   4.461  0.0871  0.1447 -0.3497
 3992W        W17406   3.589  10.699  12.204  0.1859 -0.3129 -0.1930
 3993W        W17407   9.413   7.836   2.047  0.3590  0.0164 -0.1071
 3994W        W17408  15.860  10.280  15.029 -0.0192  0.4779 -0.2063
 3995W        W17409   6.617  14.022   0.341 -0.0456 -0.1284 -0.2076
 3996W        W17410   4.718   4.743  12.279  0.0380 -0.2172 -0.1781
 3997W        W17411   3.367   1.558  14.891 -0.0853  0.1679 -0.1295
 3998W        W17412  16.342  10.184  15.637  0.0427  0.0509 -0.1766
 3999W        W17413  18.184  11.622  13.421 -0.1875 -0.1074 -0.2497
 4000W        W17414   2.269   5.560  11.645 -0.3516 -0.0200  0.0151
 4001W        W17415   8.129   2.819  10.680 -0.0334  0.2114 -0.0400
 4002W        W17416   3.389  15.547   2.247  0.2083  0.1872  0.1572
 4003W        W17417   7.489   1.931   2.042  0.1174 -0.0933 -0.1230
 4004W        W17418  16.436  13.265  14.164  0.2379  0.2014  0.1492
 4005W        W17419   8.528  11.587   1.313 -0.1575 -0.0105 -0.0015
 4006W        W17420  14.916  14.301   4.443  0.0663  0.0880  0.1075
 4007W        W17421  16.509  13.526  14.621  0.0482  0.1475  0.0982
 4008W        W17422  17.712   7.629   1.636 -0.3825  0.0497 -0.2987
 4009W        W17423  11.383   9.050  13.392 -0.4822 -0.1697  0.2982
 4010W        W17424   3.553  14.738   9.171  0.0118  0.3363 -0.0608
 4011W        W17425  13.485  17.803   9.948  0.1604  0.0720 -0.0578
 4012W        W17426  13.036   1.242  14.221 -0.1490 -0.0578  0.0810
 4013W        W17427   2.694   2.100   4.592 -0.1969 -0.0229 -0.0095
 4014W        W17428  10.354  17.844   0.707 -0.1832  0.1975  0.1156
 4015W        W17429   6.897  12.080   4.736  0.2668 -0.0630  0.0427
 4016W        W17430   5.901   9.200   0.348  0.1459 -0.1709 -0.1486
 4017W        W17431   4.051  15.052  10.929  0.0698 -0.1386  0.1278
 4018W        W17432  12.423   3.901  13.927 -0.1727  0.0147 -0.2276
 4019W        W17433  18.257   4.787  14.691 -0.0352  0.0305  0.2374
 4020W        W17434  13.700   8.603   5.121  0.1751 -0.1021 -0.2782
 4021W        W17435   3.864  15.614  14.872 -0.1345  0.0156 -0.2231
 4022W        W17436  18.008   4.187   2.729  0.2855  0.4947  0.1542
 4023W        W17437  15.081   4.640   4.790  0.2689  0.2038  0.3272
 4024W        W17438   8.193   8.284  14.655 -0.1506  0.2240 -0.1773
 4025W        W17439  10.017  16.192   6.107  0.0619 -0.1402 -0.1139
 4026W        W17440   1.245  10.442  15.843 -0.1398  0.1210 -0.0218
 4027W        W17441   0.791   8.111  11.988 -0.1892 -0.0048 -0.1760
 4028W        W17442  14.141   6.352   4.790 -0.3768  0.1074  0.3226
 4029W        W17443   2.175   3.459  15.704  0.0845  0.1253 -0.0566
 4030W        W17444   8.375   1.603  13.013  0.2939 -0.0319  0.1947
 4031W        W17445  16.216   0.445   0.295  0.0290 -0.2438 -0.2432
 4032W        W17446  18.399  17.200   5.251 -0.0546 -0.1056  0.0465
 4033W        W17447  11.117  13.380   4.682  0.0891  0.2415  0.4089
 4034W        W17448   0.786  14.413  15.487 -0.0046  0.0986  0.0211
 4035W        W17449   4.087   0.717  14.848  0.2208 -0.2582  0.1823
 4036W        W17450  10.678  12.468  15.681  0.0075 -0.0495  0.0668
 4037W        W17451  17.253   1.292  11.008  0.1570  0.1556 -0.2248
 4038W        W17452  17.333  12.214   3.881  0.1030 -0.0628  0.1864
 4039W        W17453   8.578   6.771   0.130 -0.0329 -0.0534  0.1557
 4040W        W17454   8.309   5.175   2.636  0.0539  0.0583 -0.2257
 4041W        W17455  11.773  13.899   0.853  0.0350  0.2048  0.1087
 4042W        W17456  11.469   8.091  15.343  0.2905  0.0251 -0.2732
 4043W        W17457   3.936  13.876   5.352 -0.2514 -0.3252  0.2554
 4044W        W17458   1.641  15.697  16.247 -0.1751  0.1180 -0.0664
 4045W        W17459   6.665   6.187   4.543  0.1355  0.4817  0.0110
 4046W        W17460   6.618   9.508   2.684 -0.2366  0.0370 -0.1021
 4047W        W17461   0.008  12.594   1.725  0.0702  0.1253  0.2811
 4048W        W17462  12.582   9.245  11.784  0.0719  0.0806 -0.0081
 4049W        W17463   8.221  18.488  13.161  0.1606  0.1243 -0.0450
 4050W        W17464   2.088   1.559   3.605  0.0235 -0.1527  0.0134
 4051W        W17465   1.660   4.461  12.717 -0.3204  0.0407 -0.1908
 4052W        W17466  11.337   9.190   5.124  0.2273 -0.1830  0.0695
 4053W        W17467   2.486   9.658  11.788  0.3947  0.3069 -0.3932
 4054W        W17468   9.643  17.294  15.685 -0.1667  0.2780 -0.1560
 4055W        W17469   3.593   5.198  10.823 -0.2905 -0.2069 -0.1168
 4056W        W17470   5.598   3.537   3.182  0.2925 -0.0913  0.2257
 4057W        W17471   1.539   7.295   1.662  0.0425  0.0155  0.0062
 4058W        W17472   4.939   1.940  15.646 -0.0627  0.1856 -0.0683
 4059W        W17473   2.926  12.508  14.612  0.0787 -0.2032 -0.0835
 4060W        W17474  16.449   4.363  12.292 -0.1587  0.2351 -0.0933
 4061W        W17475  17.854  14.805   4.394  0.2365  0.2805 -0.0131
 4062W        W17476  18.447   1.366   0.443  0.1704 -0.1070  0.2891
 4063W        W17477  15.517  10.274   1.721  0.0874 -0.0932 -0.1145
 4064W        W17478  13.326  15.938   1.614  0.1165  0.3739 -0.0439
 4065W        W17479  12.718  15.321  14.118 -0.1632 -0.1909  0.0366
 4066W        W17480  16.175  13.685  11.108 -0.3091 -0.0270  0.0800
 4067W        W17481   8.654   6.690  13.843 -0.0089 -0.0773  0.0201
 4068W        W17482  11.121   7.317   6.956 -0.0875  0.1049  0.0405
 4069W        W17483  15.693  13.703   5.634 -0.0673 -0.2508 -0.3235
 4070W        W17484  11.913   2.585  13.738 -0.2101  0.0394  0.0119
 4071W        W17485  18.370   9.995   3.879 -0.0320  0.4128  0.3046
 4072W        W17486   9.734   1.972   2.467  0.2324 -0.0304 -0.0298
 4073W        W17487  12.243  17.229  14.572 -0.1545 -0.3853 -0.2007
 4074W        W17488  16.548   9.819   6.675 -0.2586  0.0388 -0.1380
 4075W        W17489   3.383  14.376   3.355  0.1313  0.2998 -0.2149
 4076W        W17490  15.091   9.115  11.356 -0.1086  0.0876  0.2197
 4077W        W17491  17.900   4.891  12.770  0.1296  0.1792  0.3691
 4078W        W17492   9.415   2.633  12.967  0.2567 -0.0390 -0.0330
 4079W        W17493  15.096   3.637   2.266  0.1963  0.1498 -0.0051
 4080W        W17494  14.315  13.239  15.502 -0.1501 -0.0951 -0.4066
 4081W        W17495  12.514   1.118  11.552  0.1563 -0.2261  0.3856
 4082W        W17496   9.598  13.540  14.563 -0.3348 -0.2912 -0.0205
 4083W        W17497   4.097  12.482  12.749 -0.1002 -0.0545  0.0582
 4084W        W17498  17.989   2.522  11.679 -0.1267  0.3827 -0.0236
 4085W        W17499  10.452   1.568  11.191  0.0340  0.3937 -0.0982
 4086W        W17500   6.493  12.917  15.303 -0.3165 -0.0443 -0.0994
 4087W        W17501   2.449   2.030   2.560 -0.0062 -0.3479  0.1169
 4088W        W17502   6.486  14.756  15.831 -0.2274 -0.3249  0.3127
 4089W        W17503   2.885   1.794  15.578  0.0350  0.4831  0.1699
 4090W        W17504  16.316  11.308  16.176 -0.1298  0.0438 -0.0189
 4091W        W17505  17.636   6.590  15.977  0.2532 -0.1279  0.1575
 4092W        W17506  14.435   4.075  11.212 -0.1756  0.0470 -0.0378
 4093W        W17507   5.847  13.073  12.192 -0.2477  0.0471 -0.0832
 4094W        W17508   0.493   2.442   3.152  0.0092 -0.0525  0.1784
 4095W        W17509  18.195   8.928   4.691 -0.1424 -0.2467  0.1559
 4096W        W17510   5.247   6.185   4.987  0.2786  0.0061  0.1959
 4097W        W17511  14.603   6.687  13.961  0.0950 -0.2769 -0.1377
 4098W        W17512   4.612  14.106   5.560  0.2870  0.2143  0.4759
 4099W        W17513   0.902   5.385  11.740  0.1604  0.2670  0.1496
 4100W        W17514  11.048  15.473  13.626  0.0501 -0.1137  0.1733
 4101W        W17515   5.131   4.903   3.820 -0.0866  0.0373 -0.0818
 4102W        W17516  16.089  16.266   4.514  0.0860  0.0110 -0.1511
 4103W        W17517  11.674  16.571  10.854  0.1564  0.0657 -0.2303
 4104W        W17518   8.147   3.507  13.519 -0.0152 -0.0735  0.2175
 4105W        W17519   1.900  13.921  12.502 -0.1731 -0.2077  0.0664
 4106W        W17520   9.939  15.026   5.933 -0.1133 -0.1482  0.2533
 4107W        W17521  17.334  10.179   2.200  0.3113  0.1644  0.1062
 4108W        W17522  17.348   5.135   1.247  0.0391  0.2440 -0.2498
 4109W        W17523   4.240   3.841  13.859  0.1833  0.2855  0.1127
 4110W        W17524  14.915   4.046   4.881 -0.1431  0.2810  0.1309
 4111W        W17525  16.945   6.427   4.496  0.2551  0.2696  0.0640
 4112W        W17526  16.893   1.628  12.772  0.1203  0.1160 -0.2102
 4113W        W17527   7.307  14.322  13.604 -0.3397  0.1236 -0.1759
 4114W        W17528   1.911  14.901  10.519 -0.1069 -0.1958 -0.0778
 4115W        W17529  15.388   4.350  11.405 -0.0267 -0.0124 -0.2338
 4116W        W17530  15.414  17.261   0.625  0.1176  0.1353  0.1081
 4117W        W17531   1.575   2.136   5.081 -0.3315  0.2238  0.2302
 4118W        W17532  12.721  17.874   4.712 -0.0727 -0.2329 -0.1687
 4119W        W17533  16.211  11.562  14.545  0.0934  0.1411 -0.1256
 4120W        W17534  10.472  12.958   4.366 -0.0141  0.0576  0.2584
 4121W        W17535  15.621  12.016  13.757 -0.2277  0.1091  0.1178
 4122W        W17536   4.370   6.178  11.920 -0.1019 -0.0087  0.2856
 4123W        W17537  10.498   0.218   1.329 -0.2023  0.2605  0.0103
 4124W        W17538   6.146  17.075  15.564 -0.0684  0.0875 -0.4348
 4125W        W17539  11.396   4.746  14.275 -0.1445  0.4244 -0.2323
 4126W        W17540  11.809   5.896  11.627 -0.0926 -0.0395 -0.1994
 4127W        W17541   9.411  14.953   3.599 -0.1404  0.0879 -0.0892
 4128W        W17542  10.519  13.782   0.925 -0.1644 -0.2251  0.0892
 4129W        W17543  16.033  15.740   3.460 -0.2406  0.0513  0.0860
 4130W        W17544   2.575   8.204  12.573  0.0873  0.1425 -0.0442
 4131W        W17545   3.448  17.224   2.381 -0.1672 -0.0844 -0.0560
 4132W        W17546  15.377   9.932   2.300  0.1444  0.1612  0.1100
 4133W        W17547  14.580   5.564  16.110 -0.0436 -0.0265  0.1021
 4134W        W17548   2.615   5.368  16.040  0.1364  0.1354  0.0269
 4135W        W17549   8.793   7.003  11.215  0.3210 -0.1317 -0.4190
 4136W        W17550   6.014   6.063  13.689  0.2830 -0.0381 -0.1696
 4137W        W17551   4.110   3.337   2.014  0.0099 -0.1156 -0.3005
 4138W        W17552   6.700   4.269   3.552 -0.1732 -0.2297  0.1571
 4139W        W17553  14.103   2.887   5.305  0.0251  0.0002 -0.0550
 4140W        W17554  16.836  17.661   3.940  0.3261  0.2261 -0.4050
 4141W        W17555   6.329  11.871   2.505 -0.1029  0.0808  0.3756
 4142W        W17556   2.160  16.945  13.623 -0.1648  0.1068 -0.3179
 4143W        W17557  17.504   7.797  13.149  0.4201  0.2200 -0.2508
 4144W        W17558   6.139   8.492   3.959  0.0619  0.0228 -0.0090
 4145W        W17559   8.947  12.600   4.766  0.2316  0.2969  0.1043
 4146W        W17560  10.595  16.729   2.227  0.0191  0.0648 -0.2139
 4147W        W17561  12.330  16.171  11.356  0.0094 -0.0570  0.0506
 4148W        W17562   4.844  12.558  13.708 -0.0330  0.0797 -0.1886
 4149W        W17563  10.735  16.149  15.917 -0.1865 -0.0772 -0.0910
 4150W        W17564   2.140   8.747  16.161  0.0534 -0.0795 -0.0471
 4151W        W17565  16.706  11.940   4.640 -0.1224 -0.2787 -0.1061
 4152W        W17566   1.293  11.359  11.651 -0.1952 -0.3526  0.0216
 4153W        W17567   5.955   6.528  15.378  0.2190 -0.2026 -0.4576
 4154W        W17568  17.694   6.015   3.820  0.0361 -0.1638  0.4015
 4155W        W17569   5.343   3.208   2.825 -0.2774 -0.0212 -0.1460
 4156W        W17570   7.008   6.294   1.913 -0.2372 -0.0584  0.2888
 4157W        W17571  10.850   3.204   5.653  0.2371  0.0585  0.5640
 4158W        W17572  12.958  15.858   1.200 -0.2675  0.1031 -0.0328
 4159W        W17573  13.125   4.222   0.760  0.0808 -0.0414 -0.1097
 4160W        W17574   8.081   9.951  11.186  0.0579  0.2848  0.2565
 4161W        W17575  13.754   4.494   2.394  0.0418 -0.1681 -0.2488
 4162W        W17576   6.927  14.165   0.914 -0.0617 -0.1734  0.0710
 4163W        W17577   5.800   3.008   3.001 -0.1487 -0.0568 -0.0833
 4164W        W17578   2.609  10.368  15.784 -0.0854 -0.1332  0.2419
 4165W        W17579  17.489   3.178   0.593 -0.2930 -0.1419 -0.0130
 4166W        W17580  16.543  15.385  15.454 -0.2614  0.1921 -0.0252
 4167W        W17581  13.201   9.317   3.213  0.0773 -0.4498  0.0460
 4168W        W17582  15.436   5.976  11.716  0.1585  0.1105 -0.0815
 4169W        W17583   6.958  13.554  15.896 -0.1105  0.0091 -0.0171
 4170W        W17584   4.831  17.134  11.942  0.0998  0.2917  0.0827
 4171W        W17585  15.936   3.048  11.969  0.0673  0.1815  0.5553
 4172W        W17586   8.640   3.941  12.576 -0.3845 -0.2310  0.1762
 4173W        W17587   2.145   7.741   2.836  0.1655 -0.1538  0.1224
 4174W        W17588  12.168  18.242   4.932  0.0781 -0.3655 -0.2400
 4175W        W17589  10.372  14.989   4.101 -0.2103 -0.3296 -0.1741
 4176W        W17590   8.586   7.961   1.883  0.0299 -0.2583  0.0005
 4177W        W17591   4.342   1.910   0.044 -0.1554 -0.2785 -0.0382
 4178W        W17592   3.041   3.529   5.060 -0.0755  0.0631 -0.1478
 4179W        W17593  18.307   3.505  11.374 -0.0215 -0.1301  0.1365
 4180W        W17594  16.806   7.363  15.292  0.1090 -0.0097 -0.2680
 4181W        W17595   6.726  15.051  12.394 -0.1753 -0.0607 -0.0596
 4182W        W17596  10.177   5.455  14.081  0.2749 -0.0906 -0.2879
 4183W        W17597  17.808  15.359  15.021  0.1400 -0.2740 -0.0408
 4184W        W17598   2.246  18.085   1.610  0.0441 -0.1357  0.0462
 4185W        W17599  16.496  17.082  15.153  0.0314  0.1247 -0.2372
 4186W        W17600  17.452   8.732  11.091 -0.2686  0.1467 -0.2292
 4187W        W17601  10.228  13.494   9.956  0.0223  0.0344 -0.1297
 4188W        W17602  11.797   8.184  11.577  0.3450 -0.2833 -0.2830
 4189W        W17603   8.782  11.061  11.508 -0.1509  0.1760  0.0056
 4190W        W17604  18.037   9.901   1.138  0.2046 -0.3591  0.3035
 4191W        W17605   3.741  13.427  13.641 -0.1421 -0.0912  0.0030
 4192W        W17606  13.317   4.890   2.847  0.0541  0.1936  0.1183
 4193W        W17607  14.398   7.490  11.292  0.1522  0.4471  0.3179
 4194W        W17608  14.178   7.868   2.304 -0.2056  0.0041 -0.1079
 4195W        W17609  14.074   7.892  12.489  0.0527  0.0644  0.0406
 4196W        W17610   2.151  14.815   3.444  0.0251 -0.2786  0.0885
 4197W        W17611   5.824  11.981  12.681  0.1705 -0.1398 -0.1758
 4198W        W17612  16.334  14.698   2.942 -0.1301  0.1306 -0.0715
 4199W        W17613  16.782   9.906  11.413 -0.0407 -0.0463 -0.2457
 4200W        W17614  15.577  10.047  12.100 -0.1072 -0.1381  0.0050
 4201W        W17615   5.692   3.983   1.465 -0.1071 -0.2506  0.0269
 4202W        W17616   3.469   0.590   0.757  0.0561  0.2536  0.3446
 4203W        W17617   5.748  16.667   2.915 -0.0081  0.0576 -0.0470
 4204W        W17618  16.611  12.275  11.189 -0.1818 -0.0080  0.1527
 4205W        W17619  11.758  16.431   4.207  0.2680 -0.1089  0.1920
 4206W        W17620   9.028   4.179  15.388 -0.0674  0.1127  0.1831
 4207W        W17621  13.300   9.041  14.509  0.0089  0.0308 -0.1661
 4208W        W17622   4.401   0.043   4.256 -0.0136  0.2885  0.0863
 4209W        W17623   2.277  11.584  15.084 -0.0416  0.1307 -0.0693
 4210W        W17624   9.158   2.481  12.255  0.0619  0.3152  0.1446
 4211W        W17625  13.175  11.485   1.856 -0.1430  0.0224 -0.0408
 4212W        W17626   9.701   7.850  14.932 -0.0377  0.0414 -0.0270
 4213W        W17627  15.597   7.873  15.877 -0.0211  0.1497  0.2672
 4214W        W17628   8.192  13.341   0.824  0.0283  0.0297 -0.1351
 4215W        W17629  16.759   4.406   4.210 -0.1442  0.4080  0.0554
 4216W        W17630   8.258   5.680  16.270  0.0476 -0.1453 -0.3280
 4217W        W17631  13.056  16.907   2.496  0.3692  0.1396  0.1103
 4218W        W17632  13.281   4.776  12.257 -0.1965  0.0486 -0.0632
 4219W        W17633   3.671  18.082   2.245  0.1028 -0.1770 -0.2278
 4220W        W17634  11.667   1.130  14.576 -0.0205  0.2053  0.2321
 4221W        W17635   2.456   5.676  14.551  0.0110  0.2204  0.0973
 4222W        W17636   1.049   9.763   5.232  0.1270  0.0570  0.1115
 4223W        W17637   2.231   1.702  16.264  0.1658  0.1207  0.2413
 4224W        W17638   8.288  16.732   4.247 -0.2813  0.2006 -0.0158
 4225W        W17639   9.709   0.360  12.251  0.2123  0.2249 -0.0859
 4226W        W17640   5.510   9.755   2.754 -0.1714 -0.0810 -0.2282
 4227W        W17641  10.238   6.817  11.184  0.1039 -0.0201 -0.1303
 4228W        W17642   0.774  16.058  15.016 -0.0915 -0.0165 -0.3339
 4229W        W17643   5.010   1.183  13.202 -0.0301  0.0475 -0.4084
 4230W        W17644  16.792  15.626  13.316 -0.1343 -0.2642  0.0156
 4231W        W17645   4.821  13.367  12.363 -0.0787  0.0378  0.0235
 4232W        W17646   8.953  13.608   2.310  0.0380 -0.0674 -0.2396
 4233W        W17647  15.909   9.477  10.724  0.0487  0.0396 -0.0423
 4234W        W17648   3.002   3.362   0.434  0.1162  0.1639  0.4493
 4235W        W17649   9.430  13.850  13.586  0.0456 -0.0153 -0.0491
 4236W        W17650  10.202  17.452  11.236 -0.2015  0.1163  0.0315
 4237W        W17651  17.156  18.020   4.321 -0.1547  0.2185  0.1043
 4238W        W17652  15.648  13.424   3.429  0.1949 -0.1913 -0.0032
 4239W        W17653  11.150   6.301   5.255  0.2598 -0.0883 -0.1924
 4240W        W17654  15.668  10.152   5.363  0.0450  0.2008  0.2741
 4241W        W17655   4.968   4.730   4.569 -0.1758 -0.0720  0.1198
 4242W        W17656   4.393  15.607   0.540 -0.2378  0.0354 -0.1636
 4243W        W17657   5.638   7.006  10.450  0.1691  0.0600 -0.2931
 4244W        W17658  11.918   0.803  12.754 -0.0267 -0.2898  0.2449
 4245W        W17659   2.191   4.419  14.820  0.0739 -0.0296 -0.1167
 4246W        W17660  12.718  14.631   1.330 -0.0279 -0.1051  0.0899
 4247W        W17661   5.181   8.174   3.604 -0.1487 -0.2663  0.0081
 4248W        W17662  13.054   9.945   1.896 -0.1235 -0.0632 -0.2259
 4249W        W17663  18.060   1.471   9.948  0.1023 -0.1689  0.0747
 4250W        W17664   1.456   8.868  14.118  0.1719 -0.2472 -0.3686
 4251W        W17665   6.207  15.170  12.188 -0.3257 -0.0167  0.0439
 4252W        W17666   8.971   8.765   5.346  0.0104 -0.2172 -0.2161
 4253W        W17667   9.129  18.350  14.278 -0.0506  0.2105  0.2038
 4254W        W17668   6.907   7.676  14.008 -0.0052  0.3181  0.2057
 4255W        W17669   4.354   8.070  10.489 -0.1216  0.0311  0.3040
 4256W        W17670   4.960  10.087  11.949 -0.2339 -0.3610 -0.0817
 4257W        W17671   2.844  10.380   4.828  0.2066 -0.0280  0.0012
 4258W        W17672   1.908   0.512   1.639 -0.1601 -0.3564 -0.0758
 4259W        W17673  10.275  17.662  13.465  0.0434  0.0228 -0.0421
 4260W        W17674   4.662   6.812  12.093  0.0635 -0.0852  0.0029
 4261W        W17675   3.289   0.042  14.887 -0.1537  0.0620  0.3359
 4262W        W17676  16.732   1.487   2.124  0.1955 -0.1977 -0.0342
 4263W        W17677   7.189  10.946   9.910 -0.0343  0.1903 -0.4266
 4264W        W17678  12.292  18.487   6.462 -0.3600  0.3911  0.1839
 4265W        W17679  18.358  12.141   0.109 -0.0894  0.2176 -0.0686
 4266W        W17680  13.154   8.234  14.569 -0.1120 -0.2699 -0.2015
 4267W        W17681   9.151   7.689   0.505 -0.3942  0.0879 -0.1484
 4268W        W17682   4.208   3.311  12.776  0.0137  0.0562 -0.0130
 4269W        W17683   1.721  17.626   2.451  0.1268  0.0938  0.0248
 4270W        W17684   0.619   5.363  13.937 -0.0726 -0.0462  0.0040
 4271W        W17685   2.508  16.402  11.598 -0.0639  0.3908  0.0522
 4272W        W17686   4.996   8.765  10.709 -0.0030  0.0780  0.3274
 4273W        W17687  15.333  11.210  11.923 -0.2268  0.4197 -0.2028
 4274W        W17688   1.324   4.419  13.666  0.2784  0.0041  0.2336
 4275W        W17689  11.300  10.251   4.363 -0.1671 -0.0853 -0.0870
 4276W        W17690  15.733   9.827  14.914 -0.1619 -0.1997 -0.0229
 4277W        W17691  10.119   7.038  14.690  0.2437 -0.0942 -0.2808
 4278W        W17692  10.695   2.516   0.427 -0.0870 -0.0927  0.5912
 4279W        W17693   9.860   5.694   0.890  0.1497 -0.1564 -0.0137
 4280W        W17694   3.898   6.049   4.936  0.0677  0.0010 -0.1888
 4281W        W17695   9.339  15.293   9.859 -0.0897  0.1584  0.2306
 4282W        W17696  11.478  11.766  15.707 -0.1882 -0.4227 -0.0244
 4283W        W17697   1.926   2.536  15.909  0.3504 -0.0255  0.1358
 4284W        W17698  16.197  16.299  15.315 -0.1727  0.0195  0.5121
 4285W        W17699  15.351  10.221  15.805 -0.0676  0.0227  0.0526
 4286W        W17700  14.717  10.054   4.828  0.2451  0.1127 -0.1214
 4287W        W17701   9.119   2.637   3.583 -0.2186  0.1406 -0.3489
 4288W        W17702   3.377  16.451   1.073  0.0280  0.1247  0.1689
 4289W        W17703  16.595  12.699  12.503 -0.1530  0.1526  0.1435
 4290W        W17704  12.589   0.752  11.847 -0.5867 -0.3461  0.3443
 4291W        W17705  16.293  12.509  15.616 -0.0486  0.4643 -0.0442
 4292W        W17706   0.461  12.328   2.311  0.1405  0.3392 -0.3275
 4293W        W17707   9.504   5.387  10.496 -0.0944 -0.0321 -0.2902
 4294W        W17708  17.204   8.181   3.986  0.0068 -0.1009  0.0225
 4295W        W17709   8.439   4.273   3.238 -0.3511  0.0972 -0.0830
 4296W        W17710  16.823  11.443   4.748  0.1426  0.0043 -0.1844
 4297W        W17711  14.028   7.900   0.367 -0.1870  0.0785 -0.0242
 4298W        W17712   6.551  14.002  15.847  0.2481 -0.0113 -0.0540
 4299W        W17713   9.341   4.654   0.483  0.0813 -0.1980 -0.0709
 4300W        W17714  11.400  11.957  11.014  0.0619 -0.1720 -0.0289
 4301W        W17715   0.910  16.948   0.042  0.2102  0.3681  0.2586
 4302W        W17716   0.932   1.755   2.576  0.0688 -0.0726  0.0467
 4303W        W17717   0.089  15.622  11.506 -0.1400  0.0346  0.2526
 4304W        W17718  15.165   7.435   2.800  0.1183  0.0520 -0.1984
 4305W        W17719   5.413  10.915  11.897  0.0485  0.2908 -0.1163
 4306W        W17720  13.976  17.156   1.513 -0.0361  0.0538 -0.0484
 4307W        W17721   1.174  15.020  11.043  0.0643  0.0451 -0.1265
 4308W        W17722   8.462   6.994   1.445 -0.2186 -0.2491 -0.1070
 4309W        W17723  12.414  11.020  14.895 -0.2189  0.0578 -0.1537
 4310W        W17724   8.988  12.769  15.558  0.2630 -0.0241  0.0000
 4311W        W17725   3.880   7.911   2.367  0.2302 -0.3160  0.1420
 4312W        W17726  15.926  17.425   1.849 -0.0201 -0.2795  0.3337
 4313W        W17727   5.334  11.239   4.777 -0.1489 -0.2683 -0.0463
 4314W        W17728  14.058  17.395  15.465 -0.0289  0.4822  0.1280
 4315W        W17729  10.601   0.158  14.694  0.0287  0.0668 -0.3926
 4316W        W17730   3.210  10.450  15.621  0.0283  0.3404  0.0553
 4317W        W17731   3.630   9.217   5.632  0.2945  0.1298  0.1098
 4318W        W17732   2.646  14.353   0.612  0.0653  0.2028 -0.1672
 4319W        W17733   6.011  14.579  10.541  0.0790  0.1418  0.0518
 4320W        W17734  10.110  13.256  12.354  0.0976 -0.2546 -0.0566
 4321W        W17735  16.384   2.175   5.351 -0.1085 -0.2347  0.1216
 4322W        W17736  10.317   0.461   3.381 -0.1433 -0.1979 -0.1617
 4323W        W17737   2.677   7.074   2.307 -0.1678  0.0642  0.2353
 4324W        W17738  14.116   1.879   0.435  0.0056 -0.2218  0.1070
 4325W        W17739  14.559  12.471   0.691 -0.3176  0.0409  0.1497
 4326W        W17740   5.546   4.894   2.975 -0.0044  0.0411  0.0324
 4327W        W17741  15.404   6.354  12.443  0.1917 -0.2451 -0.4581
 4328W        W17742  15.505  13.408   2.164  0.1229 -0.0263  0.0694
 4329W        W17743   9.846   6.457  10.976 -0.1034 -0.3410  0.1127
 4330W        W17744  13.368   8.981  11.495 -0.0617 -0.1956 -0.2026
 4331W        W17745  15.800   9.148  15.152 -0.0454  0.0216 -0.2368
 4332W        W17746   6.115   5.331  15.418  0.0123 -0.0704 -0.3845
 4333W        W17747  13.783  18.164  10.700  0.3171  0.0413 -0.1138
 4334W        W17748   9.722   8.207   3.039  0.3114 -0.0344 -0.0174
 4335W        W17749  11.956   5.968   4.015  0.0983  0.2143  0.0016
 4336W        W17750   7.476   7.134  13.065 -0.0163  0.0876  0.1612
 4337W        W17751   4.390   2.805   4.151 -0.3538  0.2982 -0.0794
 4338W        W17752   9.171   1.321  12.473 -0.1030  0.1651 -0.0040
 4339W        W17753  12.818   5.567  12.286  0.1119  0.0646 -0.1895
 4340W        W17754   3.697   0.038   2.249 -0.3088  0.2330 -0.0586
 4341W        W17755  10.882   4.468   0.691  0.0659  0.1472  0.0710
 4342W        W17756   2.476  14.745   0.062  0.3208  0.0783  0.1271
 4343W        W17757  15.319  16.637  10.756  0.2221 -0.2046  0.1276
 4344W        W17758   0.617  16.643   2.306 -0.0348 -0.0604  0.1922
 4345W        W17759  11.738   0.405  12.430  0.0617 -0.1253 -0.0241
 4346W        W17760  11.579  15.794  15.974 -0.2088  0.1309  0.2744
 4347W        W17761   4.584  13.627   9.887  0.2423 -0.0795 -0.1449
 4348W        W17762  11.987   3.454  13.058 -0.2693  0.2253 -0.1210
 4349W        W17763   1.429   1.616  14.370  0.0208 -0.3188 -0.2522
 4350W        W17764  12.244  12.262  10.314  0.0182 -0.0241 -0.2232
 4351W        W17765   9.772   3.843  10.516 -0.0181  0.0250 -0.1645
 4352W        W17766   2.719   1.060  13.499 -0.1202  0.0727  0.2748
 4353W        W17767   6.386  13.064   4.283  0.1954 -0.1880  0.0142
 4354W        W17768   9.050   3.360   4.398  0.2490 -0.0698 -0.2385
 4355W        W17769  12.003   4.320   5.713 -0.1130 -0.1472 -0.1444
 4356W        W17770   7.217   7.792  10.535 -0.1600  0.1531  0.1979
 4357W        W17771   4.073  10.178   3.424 -0.1199  0.1059 -0.2161
 4358W        W17772  13.896  16.180   5.570 -0.0305  0.2173  0.1096
 4359W        W17773   7.341  13.688   0.311  0.1286  0.0493 -0.0219
 4360W        W17774   2.529   3.612  14.002  0.2672 -0.2330 -0.0562
 4361W        W17775   6.322   1.603   3.621 -0.1246  0.1633  0.2585
 4362W        W17776   3.186   7.812   5.232 -0.0902 -0.1080  0.2144
 4363W        W17777   2.833  12.100  15.543  0.0419  0.2996  0.3248
 4364W        W17778  11.251   1.672   3.843 -0.1811  0.0387 -0.2125
 4365W        W17779   5.255   4.860   5.266  0.1898  0.2037  0.0487
 4366W        W17780  13.081  11.853   2.420 -0.0222 -0.1188  0.0263
 4367W        W17781   6.438   0.707  13.127 -0.1068  0.2768 -0.0517
 4368W        W17782  15.866  15.954   3.018 -0.0887 -0.0977 -0.0628
 4369W        W17783   4.253  11.783   0.750 -0.1542 -0.1363 -0.1185
 4370W        W17784  13.936  10.373   4.979  0.1853 -0.2820  0.1641
 4371W        W17785   1.810  10.471   4.368 -0.0092  0.0745 -0.0540
 4372W        W17786  14.351   4.708  10.791  0.2166  0.1450 -0.3485
 4373W        W17787  12.848  15.751   5.683  0.2757 -0.2102 -0.1627
 4374W        W17788   2.544  16.394   1.492  0.0988  0.1184  0.1278
 4375W        W17789  13.642  11.850   3.414  0.0413  0.1624  0.2384
 4376W        W17790  14.520   1.160   3.013  0.0457 -0.1272 -0.2251
 4377W        W17791   0.025  10.345  12.201 -0.0489 -0.3237 -0.0666
 4378W        W17792  15.907  10.865   3.914  0.0944 -0.3239 -0.1767
 4379W        W17793   0.406   6.963   5.894  0.0880  0.0813 -0.0977
 4380W        W17794  11.842  13.809   5.988 -0.0565  0.2506  0.2937
 4381W        W17795   5.280   5.323   1.050  0.1209  0.0753 -0.1375
 4382W        W17796   1.159   8.269  15.519 -0.0454  0.1814  0.0463
 4383W        W17797   8.977   0.849  12.404  0.2305 -0.0812 -0.1217
 4384W        W17798   2.142  11.651   1.082  0.1527  0.0221  0.0590
 4385W        W17799   6.260  11.964  14.590 -0.0847 -0.0100 -0.0637
 4386W        W17800  11.584   6.700  10.363 -0.1466  0.1570  0.1402
 4387W        W17801  13.241   0.754  14.352  0.1812  0.1185 -0.1031
 4388W        W17802   9.419   0.501   3.121  0.0624 -0.0955  0.0244
 4389W        W17803   0.931  18.512   4.096  0.0812 -0.0888 -0.1243
 4390W        W17804   9.331  12.709  12.252  0.0483  0.2167  0.0472
 4391W        W17805  17.903   2.601  12.932 -0.0979 -0.3239 -0.1024
 4392W        W17806   7.408   4.188  11.773  0.0323  0.1612  0.0374
 4393W        W17807   4.811   4.859  13.257 -0.1279 -0.1197 -0.0348
 4394W        W17808  15.268   9.189  12.617  0.2866  0.0214 -0.1390
 4395W        W17809   9.578   0.804   1.662 -0.0473 -0.2281 -0.0895
 4396W        W17810  10.569   7.814   3.843 -0.4502 -0.1127 -0.0195
 4397W        W17811  12.841   2.006  15.317  0.2068 -0.3827 -0.0392
 4398W        W17812   4.767   2.232  16.104 -0.0633 -0.0937 -0.2100
 4399W        W17813   4.602   6.647  13.559  0.0034 -0.0226 -0.3565
 4400W        W17814  14.532   1.828  15.845  0.1508  0.0374  0.1483
 4401W        W17815  17.362   3.013  10.601  0.3085  0.3577 -0.1771
 4402W        W17816   7.940   1.992   1.780 -0.3185 -0.0432  0.0167
 4403W        W17817  10.552   2.954   0.167  0.1128 -0.1601 -0.1519
 4404W        W17818   7.296   5.406   2.814 -0.5022 -0.0105  0.0039
 4405W        W17819  16.562  11.772   2.186 -0.2295  0.0735 -0.2598
 4406W        W17820  13.395  13.652   5.384 -0.2019 -0.0976 -0.2605
 4407W        W17821   6.073  15.633  13.351 -0.1855  0.2144  0.1003
 4408W        W17822   0.101   1.319  14.359 -0.0301 -0.2055  0.1187
 4409W        W17823  13.028   0.663   0.094 -0.1519 -0.0080  0.0759
 4410W        W17824  11.629   6.658   3.560 -0.1582 -0.1965  0.1225
 4411W        W17825   1.807  17.852  14.810  0.2165  0.1255  0.1072
 4412W        W17826   4.607  17.432   3.746 -0.1892  0.1217  0.1160
 4413W        W17827  10.750   7.349  10.407  0.4239  0.0894  0.3010
 4414W        W17828   8.063   2.641   2.948  0.1659  0.1671 -0.1838
 4415W        W17829  10.731  13.171  14.060 -0.1506  0.1221  0.3108
 4416W        W17830  15.437   4.156   2.887  0.2234  0.0273  0.4043
 4417W        W17831  15.321  15.787  12.595 -0.2943 -0.1292  0.1390
 4418W        W17832  14.705   0.452  16.192 -0.1485 -0.1448 -0.2396
 4419W        W17833  17.856   9.609  14.999 -0.2057  0.0809 -0.1552
 4420W        W17834  12.799   5.298   2.836 -0.1221 -0.1755  0.0385
 4421W        W17835   9.002   9.411  11.316  0.0330 -0.1503 -0.0873
 4422W        W17836  14.614  14.591  14.076 -0.2841  0.1005  0.0048
 4423W        W17837   2.367   6.616  11.625 -0.0546  0.1375 -0.1767
 4424W        W17838  11.118   4.707   5.590  0.0332 -0.0598 -0.3743
 4425W        W17839   5.723   4.820   6.286  0.1911 -0.2704  0.1008
 4426W        W17840   8.041   9.230   5.599  0.1666  0.0207  0.1328
 4427W        W17841   8.314  15.621   0.846 -0.2703  0.1065 -0.1864
 4428W        W17842  12.382  13.368  15.526 -0.1744  0.1826 -0.0626
 4429W        W17843   2.222   5.889   0.374  0.1598  0.2049  0.0755
 4430W        W17844   4.348  15.785   9.986 -0.0294 -0.2180  0.1991
 4431W        W17845  14.537   4.250  16.138 -0.2707  0.1594  0.0947
 4432W        W17846   1.140  16.599   3.620 -0.0511 -0.2149  0.0354
 4433W        W17847  16.360   5.554   0.003  0.2366 -0.2071  0.1045
 4434W        W17848   5.006   4.280  10.676 -0.2023 -0.0294  0.0848
 4435W        W17849  12.242   7.069  15.364  0.1425  0.1194  0.1396
 4436W        W17850   3.065   5.938  15.390  0.1242  0.1752 -0.5502
 4437W        W17851  11.023  12.353  16.030  0.1027  0.1942 -0.0565
 4438W        W17852  16.853   3.890  14.646 -0.0188  0.0806 -0.0314
 4439W        W17853   4.141  12.089   4.241  0.4375  0.1781  0.3048
 4440W        W17854   3.091  10.427  10.424 -0.0413  0.2094 -0.1555
 4441W        W17855  12.625   2.321  10.796  0.2159 -0.0989 -0.4242
 4442W        W17856  10.358   3.522   4.343  0.3313  0.0436 -0.2576
 4443W        W17857   0.821  14.475  13.446  0.0613  0.2323 -0.0070
 4444W        W17858  11.659   0.170   9.750 -0.2685  0.2476  0.0775
 4445W        W17859  17.898  12.359  11.625  0.3566  0.3031  0.1366
 4446W        W17860  18.066  15.389   5.958 -0.0362 -0.1174 -0.0146
 4447W        W17861   8.758   9.645   3.472  0.1937  0.1890 -0.0328
 4448W        W17862   2.466   8.913  13.362 -0.4449 -0.0376  0.3649
 4449W        W17863   5.109  11.896   2.582 -0.0283 -0.1341  0.2184
 4450W        W17864   9.060  16.860  11.873 -0.0675 -0.1978 -0.1354
 4451W        W17865  10.465   0.977  14.374 -0.2952 -0.0602  0.1036
 4452W        W17866   4.836  18.036   5.289 -0.0125 -0.0771  0.1145
 4453W        W17867   4.700  11.154  16.085 -0.0740  0.2677 -0.0642
 4454W        W17868  10.986   1.750   0.633 -0.1497  0.0993 -0.1722
 4455W        W17869   2.791   6.762   9.843  0.2680  0.2479  0.1483
 4456W        W17870  12.104  13.758  11.551 -0.2401 -0.0504 -0.2777
 4457W        W17871   7.709  14.817   3.341 -0.0088  0.5196 -0.0396
 4458W        W17872   0.829   0.995  10.093 -0.1562 -0.0459 -0.1942
 4459W        W17873  11.504  11.310  11.791  0.2000 -0.2480  0.0897
 4460W        W17874   4.249   2.321   2.111  0.5524 -0.1712  0.0971
 4461W        W17875   6.621  15.171  11.161  0.3649  0.1479 -0.2390
 4462W        W17876   6.731   1.124  14.060 -0.1471  0.0803 -0.2569
 4463W        W17877   9.007   5.080   4.177 -0.1513  0.0849 -0.2115
 4464W        W17878   1.887  10.947  16.181  0.0901  0.1732  0.0402
 4465W        W17879   5.269   2.655  11.982  0.1850  0.0696 -0.5012
 4466W        W17880  10.583   6.217  16.080 -0.0610 -0.0281  0.0427
 4467W        W17881   5.261  11.077   1.477  0.0295  0.0839  0.2151
 4468W        W17882   5.984   8.924   4.761 -0.2558  0.0308  0.0300
 4469W        W17883   9.472   1.250  11.735  0.4823 -0.0423  0.1553
 4470W        W17884  15.190  14.634  13.840  0.1091  0.0982 -0.1004
 4471W        W17885  16.130  17.037   4.870  0.1183  0.0526  0.0242
 4472W        W17886  13.477   9.073  10.769  0.2021 -0.3501 -0.1743
 4473W        W17887   8.479   1.131   5.807  0.1165  0.0579 -0.0137
 4474W        W17888   1.395   4.237  11.743  0.1381  0.2246  0.0720
 4475W        W17889  12.217  14.777   1.389 -0.4157 -0.0004  0.1919
 4476W        W17890   7.234   6.820   4.430  0.0329  0.0588  0.3571
 4477W        W17891   0.915   7.134  14.962 -0.3577 -0.0355 -0.1248
 4478W        W17892  18.240   8.516  15.769 -0.0555  0.0138 -0.3036
 4479W        W17893  17.419  10.088   3.889 -0.3087 -0.1754  0.0199
 4480W        W17894   9.875  13.545  13.690 -0.0119  0.1532  0.0209
 4481W        W17895   2.550   3.471   3.749 -0.0319 -0.0425  0.0917
 4482W        W17896  15.593   1.184  12.002  0.2431  0.2249 -0.0778
 4483W        W17897   4.277  18.146  15.403  0.0260 -0.1577  0.1754
 4484W        W17898   9.122   8.538   2.359  0.0367 -0.0240  0.0618
 4485W        W17899  13.439   3.664  15.792 -0.1264 -0.1054  0.1347
 4486W        W17900   7.590  17.888   5.967  0.2162 -0.0126 -0.0330
 4487W        W17901   8.377  16.542   0.694  0.4000 -0.1101  0.1648
 4488W        W17902   5.523   4.304   9.871 -0.0781  0.1521  0.4381
 4489W        W17903   7.780  10.567   4.928 -0.0441  0.0073  0.0739
 4490W        W17904   5.119   7.619   2.574  0.0192  0.2669 -0.0571
 4491W        W17905   7.793   2.426  10.526 -0.1075 -0.1199 -0.0627
 4492W        W17906  17.246   7.167  12.678 -0.2443  0.1537 -0.1720
 4493W        W17907   1.457   3.928  15.888 -0.0460 -0.1010  0.1723
 4494W        W17908  17.659   2.022  16.261  0.0060  0.1701  0.0218
 4495W        W17909   8.303  12.312  15.443 -0.1563 -0.1784 -0.0013
 4496W        W17910  13.551   1.212   4.039 -0.1020 -0.3060 -0.1421
 4497W        W17911  14.862  14.936  13.492  0.2456  0.1232  0.1097
 4498W        W17912  17.469   0.542  15.739 -0.2304  0.1727  0.1023
 4499W        W17913   7.995  10.687  10.519  0.1930 -0.1130 -0.2001
 4500W        W17914   9.920  15.502   2.362  0.0001 -0.0789 -0.0656
 4501W        W17915  12.050  13.089   2.702 -0.0592  0.3502  0.2208
 4502W        W17916   5.936   2.229  12.037  0.0974 -0.2844  0.1286
 4503W        W17917   7.444  10.537   3.529  0.0325  0.0590 -0.0065
 4504W        W17918   5.778   7.106   2.289 -0.0762  0.0921  0.4580
 4505W        W17919  18.410  14.663  15.959  0.1372 -0.1740  0.1413
 4506W        W17920   3.559   6.753   2.176 -0.1293 -0.2234  0.2313
 4507W        W17921   8.751  17.534   0.555  0.1090 -0.0867 -0.2718
 4508W        W17922   4.148   4.408   0.045  0.3300 -0.0007  0.1273
 4509W        W17923   0.899  17.823  11.362  0.0559  0.0211  0.0500
 4510W        W17924  16.592  16.068   5.741 -0.1892  0.3192  0.0338
 4511W        W17925  10.668  17.859  11.337  0.2730 -0.1371  0.2277
 4512W        W17926   9.881  10.814   1.644 -0.0452  0.1457 -0.0070
 4513W        W17927  11.406   4.624  12.369 -0.1731  0.1544 -0.0865
 4514W        W17928   8.771   4.458  12.548 -0.2850 -0.3479  0.1882
 4515W        W17929  17.341   9.142  12.671 -0.0821 -0.1264 -0.0369
 4516W        W17930   2.573   6.042   3.119  0.1291 -0.1742  0.4850
 4517W        W17931   0.113   5.688   1.654 -0.0118 -0.1348  0.0889
 4518W        W17932  10.913   6.382   0.757 -0.0025 -0.0386 -0.1003
 4519W        W17933  11.452  11.445   5.544  0.1276  0.0163 -0.1918
 4520W        W17934   0.573   0.100   5.000 -0.3991  0.1825 -0.0080
 4521W        W17935  13.137  10.120   0.119  0.0610  0.0381  0.0908
 4522W        W17936   5.376  17.724   0.804  0.0873  0.0623 -0.0868
 4523W        W17937  16.252   7.029   0.532 -0.1880  0.2178 -0.1733
 4524W        W17938  14.626   2.713   0.653 -0.1153  0.2826 -0.1452
 4525W        W17939   2.871  16.539   0.131 -0.0871 -0.0925 -0.0754
 4526W        W17940  18.406  12.341  12.396 -0.5208  0.1640 -0.2067
 4527W        W17941   5.281   6.381  12.500  0.1539 -0.1488  0.0910
 4528W        W17942  14.394  16.007  11.037  0.1462 -0.1944 -0.2891
 4529W        W17943   1.139   4.049   0.043 -0.3686 -0.3939  0.1663
 4530W        W17944  10.402   6.701   0.664 -0.3388  0.0450  0.0132
 4531W        W17945   6.342  11.923  11.311 -0.2184 -0.0383 -0.1566
 4532W        W17946  17.107   3.070  15.603 -0.1544 -0.0682 -0.0636
 4533W        W17947  15.368  13.534   4.733  0.1107 -0.0526 -0.2616
 4534W        W17948  13.214  12.961   2.759  0.2454 -0.0247  0.0825
 4535W        W17949   0.322  17.147   0.495  0.2300 -0.0321  0.0252
 4536W        W17950   0.861   1.768   4.916 -0.4165  0.0562 -0.1080
 4537W        W17951  14.250   9.891   3.172 -0.3361  0.1476 -0.1802
 4538W        W17952  10.598   3.702   3.663  0.0191  0.1838 -0.2301
 4539W        W17953  13.811  13.466  12.482  0.1799  0.4292 -0.1364
 4540W        W17954   9.418   3.893   4.078 -0.0261 -0.1783 -0.2066
 4541W        W17955  13.758  13.710  11.974 -0.5236  0.0000 -0.1535
 4542W        W17956   2.087   3.353  10.203  0.1460 -0.1045 -0.0331
 4543W        W17957   0.693  16.223   2.900 -0.1623  0.1066 -0.1786
 4544W        W17958  11.782  13.023  15.652  0.2945  0.0916  0.0461
 4545W        W17959   1.084   0.357  15.199  0.0804  0.3177 -0.0366
 4546W        W17960   0.250  17.359  11.829  0.3415  0.1170 -0.1537
 4547W        W17961  12.538  11.376  15.870 -0.0167  0.0820  0.1883
 4548W        W17962  12.067  11.631   1.951 -0.0755  0.1423  0.3000
 4549W        W17963   1.022  15.838  10.554 -0.2278  0.1347 -0.0531
 4550W        W17964  18.071   5.318   2.164 -0.1810  0.1795 -0.2222
 4551W        W17965   4.689   4.377  13.165 -0.2330  0.3725 -0.1532
 4552W        W17966  14.926   1.444  14.798  0.3959 -0.0706  0.0649
 4553W        W17967   3.018   4.671  15.093 -0.0856 -0.3754  0.1772
 4554W        W17968  14.947   2.363  13.780 -0.1818  0.2642  0.0953
 4555W        W17969   2.951   8.932  10.769 -0.2201 -0.2540 -0.1335
 4556W        W17970   3.683   0.940   0.047 -0.1030  0.1279  0.0893
 4557W        W17971  17.579   5.214  13.706 -0.1478 -0.2181 -0.1243
 4558W        W17972  14.294  11.313   3.346  0.0877 -0.2766 -0.1075
 4559W        W17973  17.415   6.332   1.611 -0.0256 -0.1467  0.0669
 4560W        W17974   0.992   5.431  11.250  0.3209  0.4984 -0.1113
 4561W        W17975  10.379  12.646   0.907 -0.1587 -0.5198  0.0024
 4562W        W17976   2.079  18.272   2.079  0.2636 -0.1605 -0.2286
 4563W        W17977   9.137   7.967  14.977  0.0001 -0.5655 -0.1360
 4564W        W17978   1.562   8.581   4.784  0.1186  0.0398  0.1139
 4565W        W17979   9.584  16.824  10.986  0.2590  0.1415  0.2183
 4566W        W17980  15.311  14.094  14.300  0.0140 -0.1103  0.1492
 4567W        W17981   9.232   2.545   2.803 -0.1528 -0.0731  0.0503
 4568W        W17982   7.127   2.501   0.791  0.1878 -0.2780 -0.1084
 4569W        W17983   8.750   9.098   1.984  0.5609  0.1379  0.1044
 4570W        W17984   2.631  11.923   3.024 -0.2150  0.0153 -0.0502
 4571W        W17985   5.881   1.325   3.828 -0.1347 -0.0462 -0.0507
 4572W        W17986   0.226   0.544  12.959 -0.1668 -0.2860 -0.0705
 4573W        W17987  16.375   5.154   0.913 -0.0117  0.0542 -0.1641
 4574W        W17988  16.893   7.398   2.131 -0.2087 -0.1119 -0.3048
 4575W        W17989   7.947  15.781  12.604 -0.0509  0.1574 -0.0989
 4576W        W17990  18.077  10.402   5.779  0.0130  0.1610  0.2944
 4577W        W17991  12.389  15.281   3.396 -0.0066  0.0203  0.1372
 4578W        W17992   6.600   5.061   5.191  0.3139  0.0470 -0.3071
 4579W        W17993   9.420   5.007   2.811  0.1198  0.0310  0.2808
 4580W        W17994   1.448  16.243  12.521 -0.0533 -0.2804  0.3940
 4581W        W17995  11.981   2.052   1.930  0.0392  0.3447 -0.0536
 4582W        W17996   6.081   8.337   2.676  0.2136 -0.4404 -0.1117
 4583W        W17997   1.633   0.544   0.378 -0.1386  0.2302  0.1747
 4584W        W17998   2.452   8.626   4.771 -0.1220  0.1988 -0.1279
 4585W        W17999   4.807  13.810  12.035 -0.1468 -0.4077 -0.1731
 4586W        W18000  12.062  15.999   2.829  0.1236 -0.1584  0.2294
 4587W        W18001   9.797   0.863   6.085 -0.1643  0.0138 -0.3294
 4588W        W18002   7.960   7.739  13.638 -0.2457  0.1795  0.2760
 4589W        W18003  10.129  12.469  15.818 -0.0232 -0.0816  0.2143
 4590W        W18004  14.053  14.665   4.934  0.3579 -0.3096  0.0775
 4591W        W18005  15.562  11.511   1.294  0.1244  0.0301 -0.1150
 4592W        W18006  13.454  18.092   4.132 -0.2434 -0.1145 -0.1362
 4593W        W18007  16.607   4.173   4.761  0.1703  0.0463  0.1888
 4594W        W18008  13.379   9.883   3.623 -0.0262  0.1122 -0.1003
 4595W        W18009  14.801  16.934   5.313 -0.1569 -0.2699 -0.1256
 4596W        W18010  13.467  11.134   2.076 -0.0358  0.1892 -0.2436
 4597W        W18011  17.417  11.975  14.494  0.2284 -0.0117 -0.0765
 4598W        W18012  12.578  14.409   4.366  0.0691  0.1363 -0.0091
 4599W        W18013   6.134   6.146  12.435  0.5270 -0.2438 -0.2066
 4600W        W18014   7.092   8.722   4.812 -0.2353 -0.0258 -0.0001
 4601W        W18015  17.712   6.219   4.870 -0.1407  0.0702 -0.3231
 4602W        W18016   0.739  16.979  12.519 -0.0649 -0.0175 -0.2527
 4603W        W18017  10.427  12.830  13.707 -0.2557  0.0014 -0.0401
 4604W        W18018   6.457   6.407  14.524 -0.0272 -0.1037  0.0580
 4605W        W18019   9.895   4.498   5.294 -0.1437 -0.0062 -0.3637
 4606W        W18020   6.846  18.331   4.855 -0.2163 -0.1815 -0.1969
 4607W        W18021  10.992  15.041  13.974  0.0885 -0.0183 -0.0523
 4608W        W18022  13.636   2.705   5.564 -0.0424 -0.0181  0.2766
 4609W        W18023   9.656   0.544   1.256  0.0414 -0.1491 -0.2397
 4610W        W18024   1.614  17.879  16.109  0.0554 -0.2081 -0.2400
 4611W        W18025  17.967   4.629  16.169  0.1409  0.1181 -0.3235
 4612W        W18026   6.921  11.733  16.143  0.1807  0.1329 -0.3001
 4613W        W18027   9.318  10.396   3.584 -0.0029 -0.0634  0.0470
 4614W        W18028   9.753  18.041  10.270  0.0851  0.0439  0.1730
 4615W        W18029   9.294   8.262   1.835 -0.0021 -0.1034  0.2113
 4616W        W18030   0.414  10.868   4.601  0.0892  0.0280  0.0202
 4617W        W18031   3.817  16.588  12.174 -0.0553 -0.0867  0.0854
 4618W        W18032   1.032   7.390  14.248 -0.3274  0.0216  0.2039
 4619W        W18033  13.048   3.803  13.073 -0.1323 -0.1401  0.1403
 4620W        W18034   9.800  13.519   1.483  0.2046  0.1355 -0.1447
 4621W        W18035   7.708   4.569   1.572 -0.2032  0.2656 -0.2594
 4622W        W18036  18.381  15.185  11.313  0.1549 -0.2776  0.4569
 4623W        W18037  14.501   2.331  13.577 -0.2123  0.2857  0.1378
 4624W        W18038  11.005   3.850  11.671 -0.1883 -0.1918  0.0695
 4625W        W18039   1.824  12.046  11.259 -0.3182  0.2032  0.1870
 4626W        W18040   7.142  16.335   0.158  0.0340 -0.2765  0.0251
 4627W        W18041   4.277   7.349  15.600  0.0252  0.1906 -0.0690
 4628W        W18042   5.026   4.657  12.834  0.3346 -0.3814 -0.1660
 4629W        W18043   1.131  17.982   1.157  0.3324 -0.2523  0.2257
 4630W        W18044  12.520  12.312  12.866 -0.0705 -0.2252 -0.2246
 4631W        W18045  16.144  17.733  14.864 -0.1205  0.1957 -0.0173
 4632W        W18046   4.325   5.254  11.382  0.0088  0.0403  0.1435
 4633W        W18047   7.955  15.262   2.002 -0.2469  0.2207  0.0072
 4634W        W18048   2.905   9.936  10.412  0.3906  0.0251 -0.0139
 4635W        W18049  17.472  16.011  15.415 -0.0657 -0.1791 -0.0037
 4636W        W18050   4.714  11.713   4.306  0.0328 -0.3115 -0.3637
 4637W        W18051  15.250  17.206   3.992  0.0469  0.0786  0.1456
 4638W        W18052   5.419   4.783  11.204 -0.2073 -0.4567 -0.0679
 4639W        W18053  11.756  10.711  14.128 -0.2774 -0.0014  0.0479
 4640W        W18054   3.958   8.023   4.893  0.1406  0.0706 -0.2177
 4641W        W18055  17.966  12.620   0.628  0.1504  0.0896  0.1452
 4642W        W18056   6.533   3.662   4.597  0.2897  0.1881 -0.0466
 4643W        W18057  10.276   8.000   1.398 -0.2783  0.1526 -0.4682
 4644W        W18058   7.702  17.895   0.432  0.1367 -0.2673  0.1530
 4645W        W18059  10.845   5.656   4.881 -0.1607 -0.1088  0.2141
 4646W        W18060  14.553  16.997  11.033 -0.1533  0.1584 -0.0726
 4647W        W18061   5.181   0.386  15.990  0.0393  0.2739 -0.1056
 4648W        W18062   7.785   0.778   4.095  0.1673  0.0150 -0.0322
 4649W        W18063  13.462   8.465   4.680  0.1148  0.1192  0.0736
 4650W        W18064  15.889  10.947   5.642 -0.1790 -0.0128 -0.0373
 4651W        W18065  13.805  16.021   4.002 -0.1047  0.0423 -0.1683
 4652W        W18066   4.473  10.307  14.970 -0.3032 -0.0024  0.2053
 4653W        W18067   6.073   9.471   0.726 -0.0532 -0.0293  0.1464
 4654W        W18068  14.348  13.633   3.399 -0.3355 -0.1685  0.1496
 4655W        W18069   3.093  15.757  12.344 -0.1634 -0.0202  0.0762
 4656W        W18070  11.330   2.745  15.622 -0.1525 -0.2900  0.0235
 4657W        W18071  17.641  18.028   4.146 -0.1269 -0.2759  0.1606
 4658W        W18072   8.705   7.312  15.447  0.1851 -0.1411 -0.0011
 4659W        W18073   2.618  14.902  12.358 -0.3592 -0.1387  0.2235
 4660W        W18074   8.999  14.990  10.048 -0.1103 -0.2864  0.0971
 4661W        W18075   5.089  11.512  13.835  0.1551  0.0857  0.0642
 4662W        W18076  18.394  15.943   1.986  0.1601 -0.0045 -0.0143
 4663W        W18077  17.067   4.199  12.133 -0.0939 -0.3127  0.0224
 4664W        W18078  10.048   1.775  13.811  0.2906  0.1110  0.0330
 4665W        W18079   7.940   6.750   4.986  0.0772  0.0183 -0.1548
 4666W        W18080  18.398  16.504   2.668 -0.0117 -0.0162  0.0813
 4667W        W18081   5.073  13.394   3.932 -0.0190 -0.2066  0.2436
 4668W        W18082  11.610  17.716   2.623 -0.1673 -0.2556 -0.5286
 4669W        W18083   2.271   4.796   1.651 -0.0577 -0.3916  0.2906
 4670W        W18084   0.315  16.822  10.482  0.2216  0.2990  0.2814
 4671W        W18085  10.490   6.891  14.289 -0.4054 -0.3062  0.2398
 4672W        W18086  14.761   4.408  10.902 -0.0514 -0.0759  0.4840
 4673W        W18087  15.829  10.356  15.592  0.0262 -0.0123  0.0381
 4674W        W18088   3.931   2.618  12.283 -0.0950  0.2498 -0.1136
 4675W        W18089   3.797  14.215   9.687  0.1492 -0.0687  0.1424
 4676W        W18090  13.624  10.780  12.127  0.1196  0.0234 -0.1499
 4677W        W18091   8.853  15.014  15.721 -0.0219 -0.0460  0.0703
 4678W        W18092  10.667   2.654  10.548  0.4268  0.1704  0.1694
 4679W        W18093   5.485   9.457  14.977 -0.2079 -0.2515 -0.3167
 4680W        W18094  14.120   4.948   5.521 -0.2186 -0.3008  0.0478
 4681W        W18095   8.306   8.110   2.468 -0.4025 -0.4507 -0.1786
 4682W        W18096   9.701  10.546  11.718  0.0897 -0.3501 -0.2598
 4683W        W18097   8.773   4.539   2.905 -0.0165  0.4686 -0.0695
 4684W        W18098  18.496  18.407  12.889  0.0371  0.1437 -0.1972
 4685W        W18099   1.022  11.105   2.416 -0.2935  0.0139 -0.3716
 4686W        W18100  11.017  14.661  14.358  0.2177  0.1963 -0.3105
 4687W        W18101  11.460   6.529  15.249 -0.0548 -0.0049  0.3014
 4688W        W18102  17.400   9.192  14.654  0.1197  0.0123 -0.1326
 4689W        W18103   8.068   3.473   1.678  0.0440 -0.2970  0.1923
 4690W        W18104  13.759  12.434  15.121  0.0186  0.3062  0.0827
 4691W        W18105   0.523   8.231  15.084 -0.0677 -0.0306  0.3312
 4692W        W18106   2.644   0.738  15.456  0.0575 -0.1383  0.1102
 4693W        W18107   3.530  13.101   0.894 -0.2071 -0.2110 -0.0582
 4694W        W18108  16.027   9.525   5.887  0.0456  0.0137  0.1099
 4695W        W18109   4.524   2.906  14.185  0.1074  0.0484 -0.0629
 4696W        W18110  16.388   3.435   1.368  0.1664  0.0378 -0.1055
 4697W        W18111   0.927  14.531  10.934  0.2297 -0.0598  0.1745
 4698W        W18112  15.820   6.520   2.883  0.0252 -0.0975 -0.1273
 4699W        W18113  11.088  14.267   2.393 -0.2671  0.1154  0.2034
 4700W        W18114   3.514  17.127   4.981  0.1720  0.1025 -0.2030
 4701W        W18115   2.701   2.548  15.589 -0.0089 -0.0713 -0.0392
 4702W        W18116   1.269  14.562   0.617  0.0730  0.0707  0.2959
 4703W        W18117   7.270  11.228  14.054 -0.2146  0.1063 -0.3522
 4704W        W18118  16.410  17.985   4.917  0.1379  0.3039  0.1654
 4705W        W18119  12.746   8.799  15.164  0.0819  0.0386 -0.0261
 4706W        W18120  10.159  18.517   3.117  0.0540  0.1013  0.0420
 4707W        W18121   7.395  13.951   2.709 -0.0749 -0.1186  0.0668
 4708W        W18122  18.179   0.755   4.930 -0.1445  0.4598  0.3191
 4709W        W18123   2.130  16.308  10.244 -0.1426 -0.1726 -0.2595
 4710W        W18124  15.415   8.015  13.990 -0.1676  0.0881 -0.0442
 4711W        W18125   1.000  10.757   3.045 -0.1134  0.0328 -0.1407
 4712W        W18126   9.608   9.732   2.027  0.1647 -0.2429 -0.2151
 4713W        W18127  16.095  15.993  14.932 -0.1839  0.0500  0.0914
 4714W        W18128   9.694  17.076  12.068  0.1118  0.1625  0.2005
 4715W        W18129   8.689   9.563  13.085  0.1621 -0.2052  0.0891
 4716W        W18130  15.857  14.371   3.639 -0.1581 -0.4164  0.3676
 4717W        W18131  16.483  15.204   2.849 -0.0588 -0.0549 -0.0742
 4718W        W18132  14.912  16.146  11.846  0.1754  0.3180 -0.0087
 4719W        W18133  10.986   6.954  14.097 -0.1360 -0.1908  0.1467
 4720W        W18134  14.460   2.287   5.159  0.2070  0.0939  0.1188
 4721W        W18135   3.802   8.992   2.666  0.0156 -0.2143 -0.4394
 4722W        W18136   9.089   9.078  16.068 -0.3224  0.0241  0.0647
 4723W        W18137   9.438  14.898   1.911 -0.1142 -0.1143  0.2432
 4724W        W18138  15.637   0.199  12.914  0.0193  0.0483  0.0500
 4725W        W18139   4.186  18.337  12.215  0.1374  0.0702 -0.2163
 4726W        W18140  15.367   4.847   0.704  0.1365  0.0754 -0.2367
 4727W        W18141  13.314  14.850  10.506 -0.1554  0.0030  0.1533
 4728W        W18142  12.154   6.060  12.934  0.1597  0.5265  0.1897
 4729W        W18143   2.328  10.694  14.850  0.0080  0.0757  0.1754
 4730W        W18144   9.702  14.474   3.644  0.3299  0.1380  0.3197
 4731W        W18145  10.978   7.100  11.236  0.2276  0.0296  0.1332
 4732W        W18146   9.527   1.118   2.696 -0.1194 -0.1159  0.0372
 4733W        W18147   2.711   2.731   3.706  0.1511 -0.0740 -0.1343
 4734W        W18148  11.597   2.938   1.207  0.2430 -0.0686 -0.2236
 4735W        W18149   3.297  16.516   1.987  0.0118  0.2363  0.1872
 4736W        W18150   5.777  17.587  10.997 -0.2091  0.2271  0.1313
 4737W        W18151   4.242  12.824   4.773 -0.0433  0.1075 -0.0097
 4738W        W18152   7.314  13.554   2.976  0.0672  0.4131 -0.0962
 4739W        W18153   4.075  11.707   5.002  0.2050  0.2988  0.0903
 4740W        W18154  15.423   3.385   4.344 -0.1423  0.0327  0.1433
 4741W        W18155   9.130  10.600   1.802 -0.1415 -0.0891 -0.1137
 4742W        W18156   1.930  17.579   0.988 -0.0186  0.0541  0.1752
 4743W        W18157  10.515  18.271  10.558 -0.2156 -0.1045 -0.0809
 4744W        W18158   0.529  16.578  14.857  0.0925 -0.0551 -0.1118
 4745W        W18159   5.020  13.372   9.950 -0.0110  0.2834  0.2121
 4746W        W18160   4.641  13.483   4.277 -0.1267 -0.2477  0.0074
 4747W        W18161   3.255   1.864   4.162  0.0257  0.3504 -0.3382
 4748W        W18162  17.004   9.768  13.909 -0.0360  0.2787  0.0711
 4749W        W18163   6.867  10.809  11.130  0.3148  0.3078 -0.1296
 4750W        W18164   0.122  10.793   0.539  0.0246  0.1124  0.0046
 4751W        W18165   8.873   6.028  12.026  0.1157  0.1432  0.0568
 4752W        W18166   0.152  11.090   1.118 -0.0385  0.2083  0.3046
 4753W        W18167   2.125   8.278  12.127 -0.1179 -0.0916  0.5280
 4754W        W18168  14.290  10.682  10.788 -0.0149  0.1853 -0.1959
 4755W        W18169   6.867   2.023   2.854  0.2292  0.0969  0.1295
 4756W        W18170  12.222   8.247  14.697  0.0754 -0.0144 -0.1318
 4757W        W18171   8.768   4.434  16.049  0.0616 -0.0787 -0.2897
 4758W        W18172   8.523   4.403   1.081 -0.1091 -0.0521  0.0848
 4759W        W18173   9.949   9.739   3.643 -0.0836 -0.1671  0.1092
 4760W        W18174  16.077  15.734   1.083 -0.0294  0.1752 -0.2032
 4761W        W18175   2.397   9.651  12.371 -0.0715  0.2047 -0.0972
 4762W        W18176  17.974  16.264  14.354  0.2249 -0.0244  0.0276
 4763W        W18177   4.346  13.792   1.757 -0.1613  0.0805 -0.1909
 4764W        W18178  14.062   4.161  16.092  0.0031 -0.2106  0.2796
 4765W        W18179   9.366   8.740   5.002  0.0958  0.4069 -0.0154
 4766W        W18180  16.685  11.557  13.931 -0.0404  0.2729 -0.1173
 4767W        W18181  17.054  17.735  14.795  0.2289  0.1468 -0.2245
 4768W        W18182  11.725  11.207   1.242  0.0877  0.1055  0.0587
 4769W        W18183  12.433  14.189   2.947  0.1798  0.3013  0.1641
 4770W        W18184  17.829  10.892  15.895  0.5234  0.0226 -0.1077
 4771W        W18185   1.362   0.693  13.637  0.1972 -0.0352 -0.0943
 4772W        W18186  14.414   7.047  12.722 -0.0375  0.0869  0.1691
 4773W        W18187   7.789  14.476  15.624 -0.1792  0.0918 -0.0438
 4774W        W18188  12.233  10.578   5.839  0.0969 -0.2682  0.0040
 4775W        W18189  15.093  18.280  11.975  0.0980  0.2847  0.0877
 4776W        W18190   2.992   0.613  12.612 -0.2152  0.0784  0.2596
 4777W        W18191  12.493  14.064   2.000 -0.3171  0.1256  0.0417
 4778W        W18192  16.578   5.476   2.752 -0.2018  0.1664 -0.0610
 4779W        W18193   1.185   0.854  15.308  0.2659 -0.1914 -0.1914
 4780W        W18194  12.658  18.474   3.144  0.1604  0.4675 -0.0861
 4781W        W18195  18.153   8.642  12.107  0.0275  0.0799 -0.0073
 4782W        W18196   9.581   6.967  14.346  0.0279  0.2023  0.0401
 4783W        W18197  11.687  12.145   4.719 -0.1451  0.1334 -0.0963
 4784W        W18198   0.595  12.845  10.890  0.1933 -0.1631 -0.0362
 4785W        W18199  18.106   5.531   3.831 -0.2085 -0.2082  0.1575
 4786W        W18200  18.398   6.218   5.360 -0.0550  0.0523  0.0147
 4787W        W18201   0.298  18.291   1.230  0.0756  0.0996 -0.2527
 4788W        W18202  17.091   6.657   0.388 -0.0204  0.1073 -0.1197
 4789W        W18203  10.572  12.777  14.375 -0.0273 -0.2471  0.0099
 4790W        W18204  18.096  11.662   0.858  0.1767 -0.2356  0.0970
 4791W        W18205   0.348   2.394   0.335  0.2354  0.2461 -0.1853
 4792W        W18206   2.353   7.828   3.887 -0.0784  0.0281 -0.0268
 4793W        W18207   2.668  16.010   4.139  0.5588 -0.0957 -0.1421
 4794W        W18208   0.304  17.778   4.247 -0.2041 -0.0803  0.2054
 4795W        W18209  13.726   8.611  15.546  0.1055 -0.1236 -0.0493
 4796W        W18210   5.415   6.535   0.111 -0.3153  0.1402  0.2244
 4797W        W18211   2.272  13.247  14.780 -0.1308 -0.4239 -0.0968
 4798W        W18212   8.201  10.193  13.590  0.1159  0.0370 -0.1301
 4799W        W18213  10.350  18.426  11.114 -0.2829 -0.1537 -0.0260
 4800W        W18214  10.989   9.299  13.700 -0.0986 -0.2018  0.0982
 4801W        W18215   7.108  11.400   5.417 -0.0712 -0.0205 -0.0610
 4802W        W18216  14.377   0.161   3.426  0.0116 -0.3455 -0.0400
 4803W        W18217   3.751   0.757  10.441 -0.0169  0.2831  0.0761
 4804W        W18218  17.917   8.964   1.453  0.2722  0.1262  0.0575
 4805W        W18219  10.225   6.004  11.550 -0.1944  0.2022  0.1068
 4806W        W18220  13.715   2.998   0.474  0.1083 -0.0949 -0.1366
 4807W        W18221  10.403  14.573  15.505  0.0747  0.3172 -0.1486
 4808W        W18222  18.516   8.814   3.530  0.2583  0.0624  0.0207
 4809W        W18223   4.702   2.488  13.920  0.4614  0.1603  0.0029
 4810W        W18224  10.890  13.563  12.073 -0.2779 -0.1074 -0.1053
 4811W        W18225  14.744  10.552   2.923  0.3726  0.3215  0.2045
 4812W        W18226  12.602  17.783  11.989 -0.3630  0.1371  0.0617
 4813W        W18227  14.926   2.090   1.535  0.0088  0.1129  0.0580
 4814W        W18228   4.378  15.291   0.939  0.0665 -0.2021 -0.1467
 4815W        W18229   5.504   1.908   1.187 -0.1754  0.0843  0.1797
 4816W        W18230  15.602  12.909   3.483 -0.0613  0.2938 -0.2379
 4817W        W18231  17.565   2.536   1.563 -0.3863 -0.0091  0.2345
 4818W        W18232  12.577  10.276   3.340  0.0380 -0.2392 -0.0258
 4819W        W18233   8.386   1.048  15.512 -0.0328  0.2648  0.0459
 4820W        W18234  11.437  12.778   0.254 -0.2066 -0.0636  0.0199
 4821W        W18235   3.009  17.350   2.139  0.1328  0.0125  0.0358
 4822W        W18236   0.069   3.007  12.569  0.3204  0.1175  0.0089
 4823W        W18237   5.150   4.031   3.248  0.1582 -0.0429  0.1092
 4824W        W18238  11.442   3.077  15.171  0.1232  0.0625 -0.1097
 4825W        W18239  17.220  12.156   4.663  0.1274  0.0737  0.2719
 4826W        W18240   0.914  10.814  12.344  0.2384 -0.0603  0.1370
 4827W        W18241   6.142   3.660  14.428 -0.3005 -0.1318  0.2302
 4828W        W18242  15.004  17.773   3.397  0.3633 -0.3941  0.2794
 4829W        W18243   8.496  17.160  10.634  0.2507  0.0396 -0.2644
 4830W        W18244   9.274   9.692   0.273 -0.0147  0.1437  0.4156
 4831W        W18245  18.022  15.379  10.555 -0.1484 -0.0005 -0.0743
 4832W        W18246   8.477   6.531  11.242  0.1266 -0.1118 -0.1627
 4833W        W18247  14.180   4.091   3.415 -0.1868 -0.0551  0.2017
 4834W        W18248   3.233  14.162  11.236 -0.1670  0.3037 -0.0615
 4835W        W18249   9.149  10.339  13.916 -0.1723  0.2542  0.0497
 4836W        W18250   5.987   0.396  15.056 -0.2798 -0.0839 -0.1220
 4837W        W18251   9.025   5.096   5.583 -0.0486 -0.2761  0.0409
 4838W        W18252  11.727   1.605   9.998 -0.0225 -0.0366 -0.1701
 4839W        W18253  14.098  15.841  11.530 -0.3472  0.1231  0.2140
 4840W        W18254  12.390   9.636   1.784  0.3190 -0.0298  0.3356
 4841W        W18255   3.727  10.353   3.709  0.0579 -0.4168 -0.1153
 4842W        W18256  17.209  11.678   4.941  0.0358 -0.2867  0.0999
 4843W        W18257   7.297   5.260  12.454 -0.2829  0.0282  0.1699
 4844W        W18258   4.160  17.737  10.907 -0.0051 -0.0526  0.1297
 4845W        W18259   9.076  17.167  14.844 -0.0699  0.1016  0.2200
 4846W        W18260   2.065   6.573  16.115 -0.0378 -0.1614  0.2014
 4847W        W18261   8.733   4.897   1.058  0.2186  0.2150  0.1324
 4848W        W18262  14.080   7.970   0.948  0.0801  0.3616 -0.2278
 4849W        W18263  14.627   9.323  14.023 -0.1917  0.2197 -0.3448
 4850W        W18264  15.753   4.469   4.361  0.1613 -0.1865 -0.1627
 4851W        W18265  10.637   8.869  15.254  0.5814 -0.2789 -0.3990
 4852W        W18266   3.851  12.176   0.792 -0.0238 -0.3003 -0.2321
 4853W        W18267   2.181  17.194   1.881  0.0832 -0.0434 -0.0847
 4854W        W18268  10.379  10.193   4.832 -0.1397 -0.0212  0.0999
 4855W        W18269   6.782   4.634  16.084 -0.3443 -0.1800  0.2396
 4856W        W18270  16.568  16.776  12.847 -0.3157 -0.2450  0.0311
 4857W        W18271   6.617  10.118  13.651 -0.1642  0.0928  0.3595
 4858W        W18272  18.335   4.428   1.939  0.0217  0.1673  0.4048
 4859W        W18273   0.534  14.719  14.757  0.2439  0.0790  0.4402
 4860W        W18274   0.703  15.748   5.877  0.5153 -0.0640  0.2488
 4861W        W18275  11.806   5.642   0.527 -0.0381  0.1508  0.0284
 4862W        W18276   5.700   9.063  15.962 -0.1049  0.1343 -0.2607
 4863W        W18277  18.230  10.504  12.998 -0.1590 -0.1786  0.1296
 4864W        W18278  14.595   8.662   1.378  0.1980  0.1810  0.0718
 4865W        W18279  10.899  14.252   1.883 -0.1514 -0.2744 -0.2071
 4866W        W18280   6.233  10.169  15.305 -0.0455 -0.2758 -0.1322
 4867W        W18281   7.414   8.918   1.516 -0.0718  0.1947 -0.0588
 4868W        W18282  14.591  15.455   5.232  0.0046 -0.3095 -0.1468
 4869W        W18283   6.378  13.939  10.761  0.2278  0.1210 -0.1582
 4870W        W18284   2.565  13.189   0.197 -0.3439 -0.1883 -0.1405
 4871W        W18285  10.428  16.884  16.142  0.1596  0.1636 -0.0852
 4872W        W18286   4.390   5.261   1.034  0.1156  0.3400 -0.4184
 4873W        W18287   4.446   2.510  14.933 -0.0485 -0.1796  0.1512
 4874W        W18288  11.677  15.344  14.475  0.0853  0.1938  0.1530
 4875W        W18289   3.232  17.494   0.127 -0.0863  0.0334 -0.0751
 4876W        W18290  18.005  11.363   2.545  0.2569  0.1552  0.0174
 4877W        W18291   0.480  13.907  13.481  0.1206 -0.0471 -0.1168
 4878W        W18292   2.880  17.768  12.219 -0.0395 -0.2016 -0.3649
 4879W        W18293  15.860  10.317  13.423  0.1065 -0.0104  0.0438
 4880W        W18294  15.968  14.774  12.728  0.0807  0.1705 -0.1236
 4881W        W18295   2.510   8.578  14.465  0.0610 -0.0344  0.1911
 4882W        W18296  15.957  11.889   3.037  0.3542 -0.0883  0.0330
 4883W        W18297   6.076   4.505  14.751  0.0367  0.0353  0.1785
 4884W        W18298   1.327   6.555   2.339 -0.0067 -0.0925 -0.1485
 4885W        W18299   5.217  17.422  13.592  0.2174  0.0521 -0.1502
 4886W        W18300   2.168  17.238   3.237  0.0619 -0.0093  0.1060
 4887W        W18301   0.133  14.186  10.952 -0.1894  0.2552 -0.1066
 4888W        W18302   7.434   6.180  12.470 -0.1008  0.2114 -0.0437
 4889W        W18303  13.411   9.886  14.160 -0.0820  0.3307  0.3113
 4890W        W18304   8.957  14.890  12.374 -0.1307 -0.1208  0.3647
 4891W        W18305  11.741   8.632   0.884  0.2094  0.2461 -0.2393
 4892W        W18306  16.027   7.611  16.271  0.4959  0.0891  0.2630
 4893W        W18307  15.303  10.564  11.043  0.3276 -0.0500 -0.0797
 4894W        W18308  18.282  17.681   3.666 -0.0754 -0.5446 -0.0502
 4895W        W18309   1.483  15.617   2.335 -0.1563 -0.0243 -0.1069
 4896W        W18310  16.682   6.228   4.075 -0.1525 -0.1206  0.0611
 4897W        W18311   1.606   8.369  15.810  0.2370  0.0874  0.2465
 4898W        W18312  17.368  10.629   2.401 -0.1603 -0.2200  0.1805
 4899W        W18313   0.978  17.472  13.147  0.2782  0.0010  0.0931
 4900W        W18314   6.697   6.080   2.867  0.2488  0.0104  0.0443
 4901W        W18315   5.853  12.873   0.195  0.1875 -0.2697 -0.0689
 4902W        W18316  10.125  14.277   3.490  0.3597 -0.0055  0.1994
 4903W        W18317   1.749   1.858   0.208  0.2769  0.0973  0.0501
 4904W        W18318  16.400   8.788   6.003 -0.2966 -0.2456  0.4024
 4905W        W18319  12.913   3.484  16.022  0.1327  0.2456 -0.0402
 4906W        W18320   6.242  15.639  11.921  0.1536  0.2845 -0.0690
 4907W        W18321  15.955   3.674  11.139  0.1297 -0.1717 -0.0721
 4908W        W18322   2.768  12.456   1.132  0.1726 -0.0580  0.2537
 4909W        W18323   7.181  18.027  14.023 -0.0890 -0.0590 -0.1649
 4910W        W18324  17.105   4.025   4.983  0.1835  0.3815  0.0314
 4911W        W18325  13.353   8.964   0.370  0.4306 -0.1923  0.1553
 4912W        W18326  17.145   6.994   1.621  0.3147 -0.1436 -0.0468
 4913W        W18327   0.412  15.475   2.011  0.1376 -0.2735 -0.2105
 4914W        W18328  13.673   4.860  12.879  0.0845  0.0938  0.3956
 4915W        W18329  13.580   9.880   5.217  0.2713  0.0852 -0.3642
 4916W        W18330   9.864   8.880  12.714 -0.0633  0.0260 -0.0221
 4917W        W18331  10.191  10.192   3.443  0.1065 -0.2566 -0.1169
 4918W        W18332   3.039   6.144   5.175 -0.1655  0.0149  0.3296
 4919W        W18333   3.626  11.735  12.313  0.0608 -0.0541 -0.0619
 4920W        W18334  18.400   6.274  11.110  0.1107  0.2304  0.2268
 4921W        W18335  10.646   8.406  12.036  0.3028  0.0211  0.1861
 4922W        W18336   1.950  16.985   4.695  0.3412  0.2572 -0.1568
 4923W        W18337  14.895  15.386  13.682  0.0191  0.0738  0.0917
 4924W        W18338  15.287  10.615  12.228  0.2739 -0.0051  0.0773
 4925W        W18339  15.138  10.468   1.479  0.0406  0.0630  0.0591
 4926W        W18340   3.740  17.949   2.713 -0.1312  0.1014 -0.4516
 4927W        W18341  11.006   6.784   2.054  0.0495  0.0222  0.2924
 4928W        W18342  17.901  10.136  11.490  0.0573 -0.1269  0.1386
 4929W        W18343  11.360  11.532   0.449  0.1367  0.1690  0.0291
 4930W        W18344   6.411   1.964  10.827  0.0541  0.1183 -0.0635
 4931W        W18345   1.051   1.349   5.344  0.0389  0.0864  0.1136
 4932W        W18346  13.238   3.423   3.978  0.0562 -0.0817  0.1432
 4933W        W18347   1.016   0.049   2.313 -0.0084  0.0069  0.0568
 4934W        W18348  18.167  18.066  10.825 -0.1280  0.2178  0.2501
 4935W        W18349  13.801   3.184   3.396 -0.4634  0.1981  0.0388
 4936W        W18350  11.979   9.460  15.505  0.4540 -0.0737 -0.0475
 4937W        W18351   9.655  18.022  13.587  0.2157 -0.1068 -0.2817
 4938W        W18352   2.842  11.343   3.619  0.0171  0.1785 -0.2245
 4939W        W18353  11.176  12.213  13.208 -0.0535  0.0658 -0.1239
 4940W        W18354   4.636  14.148   1.246 -0.1417 -0.0756  0.0948
 4941W        W18355   7.281  18.515   1.493 -0.0359 -0.1246  0.0324
 4942W        W18356  16.202  17.113  12.363  0.0675  0.2409 -0.0243
 4943W        W18357  16.954   8.197   2.989 -0.2987 -0.0965 -0.1259
 4944W        W18358  14.690  13.031   0.117 -0.3721  0.1247 -0.3065
 4945W        W18359   3.557   2.572  13.290 -0.1607 -0.1018 -0.0360
 4946W        W18360   8.917  10.980   3.028  0.1106 -0.0047  0.0320
 4947W        W18361   6.046   1.396  13.943 -0.1787  0.1251  0.3983
 4948W        W18362  14.391   2.245   2.355  0.1358  0.1232  0.2846
 4949W        W18363  14.643   7.091   1.371 -0.1453  0.3305  0.0009
 4950W        W18364  14.932   9.842   6.736 -0.0106 -0.0871  0.0137
 4951W        W18365   9.937   0.331   2.547  0.0536 -0.1028 -0.2417
 4952W        W18366  16.082   3.379  15.395  0.1228 -0.0798  0.2575
 4953W        W18367  14.901  11.426  12.330  0.0987 -0.2048  0.0702
 4954W        W18368   0.038   2.269   3.232  0.1891 -0.1090  0.1978
 4955W        W18369  13.087   4.450   4.824 -0.0321  0.1188 -0.1419
 4956W        W18370   9.765  10.197  14.023 -0.0142 -0.3652 -0.0496
 4957W        W18371   5.986  13.026  10.052 -0.2529 -0.1555  0.4655
 4958W        W18372  14.248   2.142   6.152 -0.2481  0.2077  0.2276
 4959W        W18373   9.964   5.133   3.085 -0.0796 -0.0440 -0.1477
 4960W        W18374  14.183   2.591  10.847  0.2647  0.1765 -0.2570
 4961W        W18375  15.030   6.195   5.924 -0.3405  0.1101  0.3929
 4962W        W18376   4.198   9.128  16.127 -0.0533 -0.1289  0.1469
 4963W        W18377   5.423   4.077   1.926 -0.0401  0.1683 -0.0305
 4964W        W18378   7.961  16.826   5.495 -0.0973  0.1869  0.0187
 4965W        W18379  15.075   0.746  12.093  0.4823  0.0472 -0.1339
 4966W        W18380   2.163   3.747   1.062  0.3050 -0.3782 -0.1264
 4967W        W18381   7.052   8.850   3.123 -0.1761  0.1588  0.1099
 4968W        W18382   4.282  14.774  13.205 -0.0697  0.4473  0.0556
 4969W        W18383  17.499   1.027   2.217  0.0888 -0.0069  0.1463
 4970W        W18384   6.280   4.515   5.821 -0.1778  0.1204  0.1714
 4971W        W18385   7.544   6.811  11.658 -0.0849  0.3636 -0.3909
 4972W        W18386  14.217  11.013  15.240  0.1404  0.0755 -0.2181
 4973W        W18387  12.180   5.836   5.658 -0.2258 -0.2576  0.2833
 4974W        W18388   8.011  18.439  11.216  0.0725  0.3236 -0.0030
 4975W        W18389   7.770  13.550   1.002  0.1691 -0.3439  0.2545
 4976W        W18390  16.135  13.320  11.949  0.0090 -0.0361  0.1523
 4977W        W18391  14.231   4.457   2.095  0.1740  0.0988  0.2537
 4978W        W18392  16.728  14.255   3.930 -0.1128 -0.4139 -0.1326
 4979W        W18393  10.731  16.206  10.783  0.2311  0.2281  0.0548
 4980W        W18394   9.470   4.429  12.407 -0.0323  0.1653 -0.1309
 4981W        W18395  14.746   2.558  15.707 -0.0575 -0.1924  0.4209
 4982W        W18396   7.210  16.901   4.176 -0.0668  0.1109 -0.2901
 4983W        W18397  10.036   9.925  14.423  0.1608 -0.0361 -0.3022
 4984W        W18398  13.265  10.762  14.031 -0.0549 -0.2892 -0.1193
 4985W        W18399  14.492   5.827  10.189 -0.1675  0.2515 -0.1466
 4986W        W18400  13.589   9.948   4.052 -0.2053  0.0424  0.0998
 4987W        W18401  16.347   2.509  13.461  0.1101 -0.0170 -0.2668
 4988W        W18402   7.668   4.131   5.359 -0.0344  0.1115  0.0993
 4989W        W18403   2.941   0.769  14.471 -0.0870  0.1552 -0.0282
 4990W        W18404   6.330   4.008   0.533  0.1820 -0.2464  0.4838
 4991W        W18405   6.361   6.838  11.091  0.0405 -0.0480 -0.0594
 4992W        W18406   8.262   6.782   5.940  0.0849 -0.1938 -0.2713
 4993W        W18407  13.241  12.074   0.021 -0.0165 -0.2211  0.0060
 4994W        W18408   6.634   1.330  12.242 -0.1774  0.0087 -0.0237
 4995W        W18409   3.847   8.900  13.803 -0.1733 -0.1417 -0.3419
 4996W        W18410   7.499   3.540  16.115 -0.0904  0.1960 -0.2125
 4997W        W18411  10.191   8.588  15.123  0.1058  0.1638 -0.1181
 4998W        W18412   9.305   6.953   1.155  0.1486 -0.1434 -0.1934
 4999W        W18413  18.195   3.888   3.198  0.1847 -0.1913 -0.2060
 5000W        W18414  16.402  11.929   5.681 -0.0772  0.3461  0.0745
 5001W        W18415  12.512  10.644   2.303  0.3212  0.1023 -0.1297
 5002W        W18416   4.321  10.708   2.712 -0.1796 -0.0351  0.0234
 5003W        W18417   3.484   7.746  12.013 -0.0344  0.0184 -0.1052
 5004W        W18418   1.391  13.348  15.917 -0.1521  0.2165  0.0927
 5005W        W18419   1.202  11.167   3.687 -0.1104  0.0362  0.2064
 5006W        W18420   2.085  17.986  11.742 -0.0414 -0.1349  0.1797
 5007W        W18421   8.938  13.276   5.461 -0.2153 -0.0526 -0.1165
 5008W        W18422   6.014  16.007   2.128  0.0762  0.0138 -0.3853
 5009W        W18423   1.073   7.006  11.144 -0.3288  0.0969  0.0608
 5010W        W18424   0.381  11.839   2.194 -0.0285 -0.0716 -0.2012
 5011W        W18425  12.638  12.685  11.101  0.0532 -0.1240  0.2325
 5012W        W18426  16.614  14.792  16.004  0.0269  0.0732 -0.0093
 5013W        W18427  16.086   5.684  14.386 -0.1366  0.1496  0.0974
 5014W        W18428   4.058  11.169  12.560 -0.0682 -0.1111 -0.1340
 5015W        W18429   4.590   1.136  10.852 -0.4118  0.3004 -0.0918
 5016W        W18430   6.237   5.022   0.142 -0.1005 -0.0536 -0.1880
 5017W        W18431   3.065   4.010  13.596  0.0174  0.1225 -0.3132
 5018W        W18432  17.673   1.702  12.719  0.1392 -0.3037 -0.0381
 5019W        W18433  10.516  14.630   1.278 -0.4372  0.1213 -0.2974
 5020W        W18434  14.086   0.072  14.027 -0.1359 -0.1892 -0.2459
 5021W        W18435  14.626   6.122  12.927  0.1343 -0.3236 -0.0871
 5022W        W18436   3.759   7.366  12.682  0.4380 -0.0832  0.0925
 5023W        W18437   1.676  10.297   5.822 -0.0620 -0.1465 -0.0100
 5024W        W18438  11.088  17.834  13.701  0.1208 -0.0632  0.0789
 5025W        W18439   5.391   2.949  10.468 -0.1999  0.1683 -0.0477
 5026W        W18440   8.440  15.463  13.231  0.3673 -0.1844  0.2341
 5027W        W18441   5.936  17.645   5.043 -0.1322 -0.0928 -0.0194
 5028W        W18442   5.814   8.109  14.893  0.0388 -0.1697 -0.0046
 5029W        W18443   5.994   5.051  13.570  0.0873  0.2823  0.1799
 5030W        W18444   7.594  17.318   4.222  0.0366  0.0174  0.0013
 5031W        W18445   6.310   5.861   0.354  0.1086 -0.2202  0.0866
 5032W        W18446   3.457  14.657   2.920  0.1872 -0.1542 -0.3532
 5033W        W18447  12.615  18.053  14.449 -0.1222 -0.1499  0.1361
 5034W        W18448   8.172  14.782  15.888 -0.0766  0.0971  0.0330
 5035W        W18449   9.467   5.566  10.965  0.1571 -0.1657  0.1597
 5036W        W18450  10.656  11.889   3.167 -0.0733 -0.0109  0.2361
 5037W        W18451  17.182   0.253   5.440 -0.4509 -0.0431  0.2504
 5038W        W18452  15.497  17.693  15.618  0.1091 -0.0769  0.0224
 5039W        W18453   8.831  13.126  12.988 -0.0806 -0.1935  0.1169
 5040W        W18454   4.870  13.726  14.001 -0.1474  0.2233 -0.1191
 5041W        W18455   8.474  14.822  15.480 -0.3521 -0.2372  0.0659
 5042W        W18456  12.178  14.114   3.389  0.0302  0.0068  0.2289
 5043W        W18457   3.125  12.470  15.339  0.2335  0.1795 -0.1080
 5044W        W18458  16.022   8.924   1.557 -0.3600 -0.1965  0.1356
 5045W        W18459  17.091   2.598  14.756 -0.0213  0.0196 -0.2180
 5046W        W18460  15.855  14.836  13.571 -0.2198 -0.0725 -0.0947
 5047W        W18461   4.921   6.918  13.787 -0.0983  0.0634  0.2510
 5048W        W18462  11.420   1.596   6.056  0.2286 -0.0089  0.0624
 5049W        W18463  14.065   0.727   6.055 -0.1950 -0.0257  0.2303
 5050W        W18464  14.947   9.086   2.392  0.0463  0.0320  0.1427
 5051W        W18465   8.914   9.981  14.192 -0.3118 -0.0506  0.2637
 5052W        W18466  14.766   7.917   4.153  0.3440  0.3251  0.2038
 5053W        W18467  16.412   1.162  11.942  0.0131 -0.2160 -0.1065
 5054W        W18468  10.403   2.352  10.902 -0.1938 -0.0935  0.0427
 5055W        W18469   7.523  16.037   0.122  0.2186 -0.3060 -0.0612
 5056W        W18470   3.001  14.391   4.290 -0.0860 -0.1218  0.1240
 5057W        W18471   7.689   5.209  10.540 -0.1170  0.0389 -0.0071
 5058W        W18472   9.723   7.223   1.857 -0.2152  0.0786  0.1340
 5059W        W18473   1.896   9.706   5.401  0.2788 -0.2410 -0.0354
 5060W        W18474   8.120  18.350   4.211 -0.1587  0.0825  0.0829
 5061W        W18475  15.512  10.638   5.423 -0.2111  0.1312  0.1215
 5062W        W18476   9.763   0.104   1.549  0.2838  0.0198  0.3844
 5063W        W18477   4.598   7.913  10.934 -0.1462  0.3297 -0.1333
 5064W        W18478   0.659  17.697  10.966  0.1151  0.4354  0.1468
 5065W        W18479   9.169   3.545   1.849  0.2642 -0.1345  0.0486
 5066W        W18480   9.802   2.186  13.461 -0.0438 -0.1157 -0.2087
 5067W        W18481   7.271   3.035   3.864 -0.0958  0.0729  0.0748
 5068W        W18482  18.344   2.647   4.727  0.1460  0.0510  0.2285
 5069W        W18483   4.631  12.295   0.164  0.2458 -0.2039 -0.1929
 5070W        W18484  17.861   8.125  15.811  0.2749 -0.2067 -0.0120
 5071W        W18485  16.151  10.429   0.722  0.3794  0.1116 -0.1057
 5072W        W18486  13.538  17.612   4.349  0.0391  0.2993 -0.2425
 5073W        W18487   8.482   3.450  12.280  0.1610  0.2459  0.1196
 5074W        W18488   4.325  15.075   1.848 -0.1420  0.2658 -0.0112
 5075W        W18489   5.248   1.025  15.348 -0.0514 -0.3085 -0.0800
 5076W        W18490   3.011  18.398   0.103  0.2138 -0.0366  0.3022
 5077W        W18491  11.240  11.597  12.114 -0.0810  0.0294  0.1021
 5078W        W18492  10.671  10.837  15.618  0.1054  0.1520 -0.2554
 5079W        W18493  13.335  14.154   5.318 -0.0055  0.1458  0.1670
 5080W        W18494  11.248   4.885   4.287  0.2387 -0.1295 -0.2077
 5081W        W18495   5.113   4.441   3.666  0.1645 -0.0812 -0.2372
 5082W        W18496   9.605   1.511  14.567  0.2908 -0.1430 -0.2279
 5083W        W18497   6.184   9.535  11.067 -0.2000  0.1334 -0.0619
 5084W        W18498   7.936  15.162   0.950 -0.3780  0.1730 -0.2884
 5085W        W18499   1.477   3.555   2.296  0.1220 -0.0535  0.2756
 5086W        W18500  14.318   5.596  14.629 -0.2119 -0.1391  0.0483
 5087W        W18501   1.699   5.961   1.193  0.4340  0.1863 -0.1239
 5088W        W18502   0.993   6.734  15.884  0.2446  0.0381 -0.0796
 5089W        W18503  10.300   4.350   2.431  0.2500 -0.1085  0.0072
 5090W        W18504   6.221  14.809  11.087 -0.2635  0.0628  0.0138
 5091W        W18505   6.450  10.923   4.078 -0.2714  0.1578  0.0665
 5092W        W18506   4.375   2.827  10.897  0.0540  0.0976 -0.0904
 5093W        W18507  10.543  14.578  13.173 -0.2601 -0.0368 -0.0681
 5094W        W18508   7.346   7.224   1.003 -0.1544  0.1795  0.0380
 5095W        W18509  15.904   9.179   3.724  0.1951  0.0750 -0.1356
 5096W        W18510   6.309  10.600  14.238  0.2625  0.0952 -0.0489
 5097W        W18511   5.082   7.484   3.960 -0.1516  0.1643  0.2356
 5098W        W18512  11.070   1.837  10.471 -0.0551 -0.1104  0.2787
 5099W        W18513   4.809  17.149  13.461  0.1108  0.1037 -0.2994
 5100W        W18514   6.004   4.356   1.584 -0.2422  0.0017  0.1055
 5101W        W18515   9.851   8.016   3.599  0.0537 -0.0934 -0.1847
 5102W        W18516   0.261  14.115   5.192 -0.1624 -0.1234 -0.2481
 5103W        W18517  10.536   7.683   3.352  0.2662  0.2111 -0.0599
 5104W        W18518   5.512   7.727  12.238  0.0017  0.2442 -0.0783
 5105W        W18519   0.041  11.528  14.224  0.2903  0.1265  0.1048
 5106W        W18520   8.008  15.794  14.196 -0.1887 -0.1017 -0.2354
 5107W        W18521   5.036   5.618   2.540  0.1986 -0.0411 -0.1176
 5108W        W18522  14.048   4.457  12.210  0.1907  0.0951  0.3880
 5109W        W18523  12.023   4.849   5.724 -0.4217  0.0853 -0.0156
 5110W        W18524  12.399   4.483   1.233  0.1281  0.1472 -0.0368
 5111W        W18525   5.004  13.900   9.876  0.1068 -0.0851 -0.1803
 5112W        W18526  11.889   7.495   3.511  0.0798  0.0688  0.0237
 5113W        W18527  14.586  18.144   1.760 -0.0023 -0.2016 -0.0227
 5114W        W18528   9.770   3.660  15.329  0.0854  0.1491 -0.0472
 5115W        W18529  11.487   4.560  14.864  0.1775  0.2197  0.2564
 5116W        W18530   7.293   8.065   6.239  0.3794  0.0062  0.0486
 5117W        W18531  15.777   4.270  12.970 -0.0845  0.3229 -0.1343
 5118W        W18532  12.547   4.893  14.617 -0.3081 -0.0837  0.0534
 5119W        W18533   0.882   1.638   3.923  0.1840 -0.1968  0.2751
 5120W        W18534   9.826  15.650  13.155 -0.2631  0.1521  0.0675
 5121W        W18535   4.891   8.658  14.204  0.1072 -0.0257 -0.0077
 5122W        W18536   8.187   6.395   4.710 -0.2360 -0.1256 -0.2153
 5123W        W18537  15.848  15.998  12.287  0.2109  0.1233  0.2484
 5124W        W18538  15.087  13.032  14.762  0.1825  0.0474 -0.1882
 5125W        W18539   9.138   7.797   1.625 -0.2794  0.3091  0.2354
 5126W        W18540   2.691  13.160   4.839  0.1421 -0.0425 -0.2908
 5127W        W18541  14.237  16.730  13.700 -0.1577 -0.0808  0.3454
 5128W        W18542  15.677   2.204  10.085  0.0979 -0.1185 -0.2727
 5129W        W18543  15.270  17.658   5.572 -0.4503 -0.0641 -0.1533
 5130W        W18544   9.136  10.743  10.740  0.0379 -0.0680  0.3413
 5131W        W18545   4.678   0.963   0.082  0.0588 -0.2749 -0.0900
 5132W        W18546   4.283   5.383  15.196  0.0596  0.0315  0.0354
 5133W        W18547   2.869   8.039  10.683  0.2059  0.1716  0.0831
 5134W        W18548   3.582   2.650   2.529  0.3051 -0.0702 -0.0413
 5135W        W18549   9.074   9.459  11.833 -0.1150 -0.0020 -0.0928
 5136W        W18550   6.968   2.552   2.113 -0.4985 -0.2123  0.1370
 5137W        W18551  16.963  17.820   3.414  0.1226  0.3535  0.1672
 5138W        W18552   5.172  14.249  10.216  0.2673 -0.0726  0.1079
 5139W        W18553  16.366  15.676   2.159  0.0297  0.0141 -0.2226
 5140W        W18554   2.386   1.426  11.417  0.2104 -0.1898 -0.3844
 5141W        W18555   9.822   7.727   2.557 -0.1840  0.1528 -0.0862
 5142W        W18556   8.993  18.366  13.424 -0.1213 -0.1121  0.2529
 5143W        W18557  12.490  15.360  15.494 -0.0695  0.2553 -0.0415
 5144W        W18558   4.485  11.568  12.647 -0.3180  0.0184 -0.3370
 5145W        W18559   4.646  14.224  13.938 -0.1864 -0.0228  0.3539
 5146W        W18560   5.427   0.491  15.171  0.0660  0.0894 -0.0516
 5147W        W18561  10.800  11.835   3.762 -0.1983  0.0830 -0.1068
 5148W        W18562  11.837   2.393   5.290  0.0043  0.0437 -0.0542
 5149W        W18563  14.632  14.027   4.781 -0.3188 -0.1704 -0.0229
 5150W        W18564   5.592   4.882   2.263 -0.2614 -0.1034 -0.2069
 5151W        W18565  11.005  10.376   6.484 -0.2561 -0.0177 -0.0794
 5152W        W18566   9.051   8.530  11.622  0.0336 -0.2394 -0.1901
 5153W        W18567  16.171  16.658  10.418  0.1613 -0.1411 -0.1105
 5154W        W18568   8.422  18.194   3.407 -0.2558 -0.1377  0.1895
 5155W        W18569  10.938   0.057   1.047  0.0653  0.0503 -0.1121
 5156W        W18570  14.342  10.408   3.259  0.0432 -0.0032 -0.0201
 5157W        W18571  13.955   1.535  14.358 -0.0609 -0.1906  0.2213
 5158W        W18572  13.392   0.051   6.086 -0.0982 -0.3744  0.1981
 5159W        W18573   9.295   3.048   1.360 -0.1794  0.0783 -0.0880
 5160W        W18574  11.117   2.917  12.066 -0.2596  0.0018 -0.2881
 5161W        W18575  13.080   4.948  15.234 -0.0866 -0.0733 -0.2008
 5162W        W18576   0.141  14.635  12.849  0.1952 -0.0178  0.2656
 5163W        W18577   6.629   8.607  14.143  0.1070 -0.2590  0.0443
 5164W        W18578  14.021  15.345  14.197  0.4079  0.0309  0.0019
 5165W        W18579  10.239   4.164   4.351  0.0337  0.1973 -0.0033
 5166W        W18580  16.669   5.997  11.983  0.2717 -0.2320  0.1639
 5167W        W18581   6.627   1.255   2.652 -0.1435  0.4162 -0.0558
 5168W        W18582   1.598  15.096   2.264 -0.0332 -0.0389 -0.1211
 5169W        W18583   8.807  13.082  14.585 -0.0185  0.0083  0.2378
 5170W        W18584  12.667   1.090  15.030 -0.1831 -0.0386 -0.1448
 5171W        W18585   7.127  15.913  10.948  0.1880 -0.0333  0.0890
 5172W        W18586  10.700  15.230  11.807 -0.0822  0.0893 -0.3569
 5173W        W18587  13.232   6.066   0.870  0.1143  0.0085 -0.4906
 5174W        W18588  11.606   1.192   3.580  0.2639 -0.2576 -0.2196
 5175W        W18589   7.895   5.382  16.201  0.2195 -0.0544  0.0712
 5176W        W18590   1.894   5.446   3.166  0.3141  0.0420 -0.2059
 5177W        W18591   1.229   9.860   3.766  0.1463 -0.1080  0.3553
 5178W        W18592  14.917   1.561  13.004 -0.3264 -0.0424 -0.0962
 5179W        W18593   0.097  13.383   3.858  0.0648 -0.1882  0.0009
 5180W        W18594  15.682  15.534   2.941 -0.0400  0.0154  0.0835
 5181W        W18595  17.265   5.626   1.037  0.1823 -0.1908  0.1779
 5182W        W18596  11.628  11.688   1.670 -0.2697  0.1230 -0.2099
 5183W        W18597  15.772   3.297   2.814  0.1484 -0.0029 -0.2841
 5184W        W18598   6.161   4.167   3.045  0.1531 -0.0282  0.1747
 5185W        W18599  15.201  12.429  12.857  0.1213 -0.2170  0.1021
 5186W        W18600   1.769  11.377  13.942 -0.1300 -0.0783 -0.2005
 5187W        W18601  13.269  15.292   5.779 -0.2002 -0.5431  0.0559
 5188W        W18602   4.762   1.159  15.086 -0.1593  0.0772 -0.2386
 5189W        W18603  12.021   7.178   4.474 -0.1448 -0.0783  0.1929
 5190W        W18604  15.040   3.346  14.450  0.1712 -0.1463  0.2230
 5191W        W18605   3.750   2.093  13.233 -0.0198  0.3582  0.1791
 5192W        W18606   4.488   6.356  14.225 -0.0799 -0.0428  0.0121
 5193W        W18607  15.653  12.107   2.402  0.2968  0.0843  0.0463
 5194W        W18608   2.610  17.492   6.321 -0.0619 -0.1262 -0.3559
 5195W        W18609   2.152  13.089  12.528 -0.3616  0.4333  0.0930
 5196W        W18610  15.838   0.688  14.897 -0.0947  0.0434  0.2083
 5197W        W18611  17.910  17.716  13.193 -0.1707 -0.1192 -0.1975
 5198W        W18612   1.221  12.371  15.492  0.0945  0.0900 -0.0102
 5199W        W18613   9.530  14.858   2.776 -0.3211 -0.0139 -0.0884
 5200W        W18614  11.746   2.244  14.721  0.2410 -0.1306 -0.1826
 5201W        W18615  18.494   4.055   5.464 -0.0611 -0.2247  0.1206
 5202W        W18616   0.286  14.837  11.400  0.1691  0.2268 -0.2334
 5203W        W18617  14.317  10.223   1.403 -0.0904 -0.2726 -0.1188
 5204W        W18618   7.521   6.051   3.266  0.2987 -0.1707  0.1924
 5205W        W18619  16.870  17.342   3.136  0.0668 -0.1419  0.1507
 5206W        W18620  14.418   1.565  13.156 -0.0062 -0.2118  0.2208
 5207W        W18621  12.952   7.389   3.073  0.1882 -0.1464  0.0407
 5208W        W18622   0.063   0.385   1.957  0.0750  0.1706 -0.1374
 5209W        W18623  16.108   8.696  12.761 -0.3370  0.1488  0.2048
 5210W        W18624   4.079   8.526   2.816 -0.1792  0.2207 -0.1251
 5211W        W18625   2.621  17.068   3.123  0.1850 -0.2129  0.2122
 5212W        W18626   2.688  11.218   4.326 -0.1814  0.0116 -0.1134
 5213W        W18627   8.119  17.136  10.335 -0.0076 -0.0580 -0.1405
 5214W        W18628  13.807  11.775   1.723 -0.2650  0.1671 -0.0544
 5215W        W18629  16.462   3.744   6.305 -0.0158 -0.0966 -0.1095
 5216W        W18630   7.364   4.555   5.596 -0.4563 -0.1398 -0.0601
 5217W        W18631  13.177  11.762  14.313 -0.3164  0.1941  0.0425
 5218W        W18632  15.097   9.370   0.662  0.1616 -0.2673  0.1635
 5219W        W18633   6.482  13.178   3.039  0.1858 -0.0668 -0.1145
 5220W        W18634  11.197  15.745   4.504  0.1285  0.1188 -0.0686
 5221W        W18635   1.914  15.670  10.853 -0.0124 -0.3685 -0.1258
 5222W        W18636  15.449   7.357  15.597 -0.2501  0.1839  0.1284
 5223W        W18637   0.848   4.146  15.087  0.1630 -0.1496 -0.0653
 5224W        W18638   7.336  17.006  13.283  0.1967  0.0732  0.2248
 5225W        W18639   2.591  10.883  11.086 -0.0682 -0.1789  0.2312
 5226W        W18640   9.089   6.763  16.267  0.0460 -0.1822 -0.0455
 5227W        W18641  16.750   4.322   5.210 -0.1512  0.2074  0.1248
 5228W        W18642  14.386   7.391  13.231  0.1069 -0.0142  0.1759
 5229W        W18643  15.164   5.174   6.540 -0.0273  0.0347 -0.3520
 5230W        W18644  14.634  10.475  14.641 -0.0984  0.0332  0.0820
 5231W        W18645  16.166  13.494   2.399 -0.1242 -0.0814 -0.0693
 5232W        W18646  17.265  17.393   4.135  0.1203 -0.2823  0.2760
 5233W        W18647  10.015   2.399  12.402  0.3730  0.0847 -0.1607
 5234W        W18648  15.979  17.313  10.425 -0.2071 -0.0263 -0.1551
 5235W        W18649   1.522  17.260  12.899  0.3256  0.0176 -0.0823
 5236W        W18650  11.109   6.840   1.051 -0.1808 -0.1846 -0.0190
 5237W        W18651   0.792  14.078   4.429 -0.1970  0.1927 -0.0036
 5238W        W18652  15.669   5.116   5.107  0.1941 -0.3439  0.0136
 5239W        W18653   2.423   8.691   0.343 -0.3099 -0.5418 -0.2131
 5240W        W18654  10.794   7.166   1.259 -0.1937 -0.0491 -0.0079
 5241W        W18655   4.029   9.921   5.110  0.2760 -0.1518  0.0414
 5242W        W18656   4.249   3.077   0.981  0.2305  0.0718 -0.1844
 5243W        W18657  16.966   9.251   1.812  0.1477  0.1704  0.0836
 5244W        W18658  13.962  14.843  13.038  0.2436 -0.0204 -0.1515
 5245W        W18659   6.676   6.350  11.709  0.0657 -0.0183 -0.1339
 5246W        W18660   6.465  10.753  12.629 -0.1525  0.0813 -0.0488
 5247W        W18661   4.206   6.038   1.654 -0.3580 -0.2031 -0.3457
 5248W        W18662  14.005   7.279  12.412  0.1511 -0.0002 -0.1503
 5249W        W18663   6.521   6.143  15.622 -0.0286  0.0056 -0.2536
 5250W        W18664   8.170  16.835   0.307  0.2162  0.3170  0.0663
 5251W        W18665   6.024   6.597  14.827 -0.3034  0.2697  0.0822
 5252W        W18666   6.748  12.764   3.804 -0.1833 -0.0354 -0.1347
 5253W        W18667  17.971   6.603   2.828  0.1349 -0.0814  0.0668
 5254W        W18668   6.395  14.448  13.435 -0.0013 -0.1409 -0.1676
 5255W        W18669   1.215  18.176   0.559 -0.1818 -0.2549  0.0999
 5256W        W18670   5.075   4.341  14.928  0.1408  0.0843  0.0453
 5257W        W18671   2.108  15.100   1.688 -0.1125 -0.1270  0.0020
 5258W        W18672  13.296   6.063  16.004 -0.2305  0.0232 -0.0278
 5259W        W18673   1.457  13.734   1.780 -0.0227 -0.2369 -0.0216
 5260W        W18674  13.864  10.798   4.293  0.1547  0.0415  0.0162
 5261W        W18675   2.695   5.382   0.797 -0.1893 -0.0238  0.1537
 5262W        W18676  14.663   4.805   1.468  0.0328 -0.1145  0.0437
 5263W        W18677  16.217   2.391  11.267  0.2134 -0.2626 -0.2322
 5264W        W18678   7.685   0.099   5.427  0.0526  0.1692  0.0209
 5265W        W18679   3.976   2.489   0.654 -0.0976  0.1450 -0.0308
 5266W        W18680  10.753  14.596   5.696  0.0475 -0.1983 -0.5232
 5267W        W18681   6.538  17.008  13.969 -0.0028 -0.1385 -0.0595
 5268W        W18682  10.877  12.586  13.524  0.1661 -0.1186 -0.0358
 5269W        W18683   4.862   1.920   5.137 -0.0320  0.1844 -0.0018
 5270W        W18684  13.952  11.616  13.236  0.1172  0.3027  0.0997
 5271W        W18685  11.590   9.328  14.566 -0.2015  0.1021 -0.2873
 5272W        W18686  18.101   6.758  15.939  0.2381 -0.1439  0.1005
 5273W        W18687   5.362  13.295  13.212 -0.0498  0.0605 -0.3072
 5274W        W18688   0.504  12.428   2.763 -0.2331  0.0523 -0.0032
 5275W        W18689   9.722  16.328  15.735 -0.0052  0.1844  0.1636
 5276W        W18690  14.944   1.397   2.821 -0.2049 -0.1427  0.0323
 5277W        W18691   0.674   8.723   2.501 -0.0687 -0.0338 -0.1775
 5278W        W18692   7.712  15.918  15.247 -0.0633  0.3794 -0.3381
 5279W        W18693  16.455   8.281  11.579  0.1977 -0.1073  0.3339
 5280W        W18694  10.645  15.433   4.304  0.0425  0.0990 -0.0526
 5281W        W18695  15.700  11.937   4.595 -0.0140 -0.0055 -0.2115
 5282W        W18696  13.010  18.187  12.609 -0.2879 -0.2083  0.0607
 5283W        W18697  10.697   4.686   3.810  0.0068 -0.1664 -0.0945
 5284W        W18698   1.752   8.643   3.636  0.1252  0.3037  0.1284
 5285W        W18699  11.964  17.216  15.406  0.3947 -0.1193  0.1907
 5286W        W18700   8.835   8.991  15.517 -0.0793 -0.0029 -0.3221
 5287W        W18701   2.669  14.283   2.680 -0.2029  0.0122 -0.0818
 5288W        W18702  18.275   9.274   2.631 -0.1730 -0.1018 -0.0825
 5289W        W18703  14.749  10.549  13.148  0.1787 -0.1253  0.1090
 5290W        W18704  17.568  14.373  14.362  0.0072 -0.0548  0.0916
 5291W        W18705  14.272  17.293  11.391 -0.0602  0.2212  0.1384
 5292W        W18706   4.510   8.031  13.664  0.0888 -0.1076  0.1337
 5293W        W18707  15.347   9.773  14.515 -0.0400  0.1894  0.0071
 5294W        W18708   6.733   3.086  13.602 -0.1091  0.5552  0.1522
 5295W        W18709   8.477   5.334   5.899  0.1199 -0.1051  0.0128
 5296W        W18710   3.814  13.044   3.084  0.1868  0.2192 -0.0717
 5297W        W18711   8.123  13.774   3.273  0.1201  0.0355  0.1453
 5298W        W18712   7.083   7.647  11.408  0.0924  0.2121  0.0795
 5299W        W18713  16.910  16.672   6.173 -0.2263 -0.0427  0.0581
 5300W        W18714   2.777  13.603  10.448  0.1145 -0.0242  0.0223
 5301W        W18715  17.958   7.084   5.986 -0.0888  0.1812 -0.2745
 5302W        W18716  18.144   4.345   9.567  0.1956  0.0995 -0.0972
 5303W        W18717   0.583  11.402   2.328 -0.3530  0.0043 -0.2041
 5304W        W18718   8.749  17.907   3.150 -0.3615  0.1838 -0.1837
 5305W        W18719  13.212   0.200  14.594  0.0786  0.0747 -0.2987
 5306W        W18720  10.166  17.659  15.678 -0.1862 -0.2625  0.3883
 5307W        W18721  18.158  17.808   0.126 -0.0569  0.0810 -0.1284
 5308W        W18722  11.457  14.412  14.315  0.0484 -0.0406  0.0991
 5309W        W18723  12.941  10.456  14.441  0.1986  0.2144  0.1375
 5310W        W18724  15.930   9.608   3.325 -0.2045  0.0755  0.2094
 5311W        W18725   1.465  12.416  14.011 -0.1150 -0.3702  0.0458
 5312W        W18726  17.300   4.330   5.260  0.0774 -0.0906  0.2012
 5313W        W18727   4.728   4.250   1.132  0.0738  0.0519 -0.0249
 5314W        W18728  14.374   8.175  10.787 -0.0039  0.0713 -0.0287
 5315W        W18729  14.463  12.291  12.142 -0.1549 -0.2015  0.4218
 5316W        W18730  15.452   2.404  10.596 -0.0910 -0.0285  0.1753
 5317W        W18731   5.111  10.785   4.680  0.0349  0.2259  0.0063
 5318W        W18732  11.673   4.814  15.670  0.0042  0.0199 -0.1340
 5319W        W18733  17.863   7.443   3.903 -0.0748 -0.0977  0.0115
 5320W        W18734  11.054   8.417  13.050 -0.2663  0.1942  0.3444
 5321W        W18735   5.204  16.455   0.388  0.2968  0.0837 -0.0323
 5322W        W18736  13.659   6.077  11.996  0.1490 -0.0278 -0.2507
 5323W        W18737   9.113   1.947  12.516  0.1265 -0.0797 -0.0348
 5324W        W18738  15.735  10.566  14.565 -0.1997 -0.1491 -0.3161
 5325W        W18739   4.114   9.811  14.080  0.1948 -0.1149  0.1561
 5326W        W18740  15.260  15.034   3.423  0.0209 -0.0413  0.1341
 5327W        W18741   4.015   1.054   6.449  0.0344 -0.0622 -0.2220
 5328W        W18742   9.400   7.955   4.666  0.0471  0.1160 -0.1134
 5329W        W18743  17.153   4.637   0.446  0.0468  0.0321  0.0187
 5330W        W18744   8.589   2.041  11.675  0.1569  0.1773  0.1065
 5331W        W18745   2.143  11.275  12.639 -0.1982  0.0539  0.1560
 5332W        W18746  17.717   4.813  15.557  0.1217  0.0901  0.2526
 5333W        W18747   2.105   8.254   0.600  0.0028  0.2212  0.0096
 5334W        W18748   4.697   5.180   3.667  0.2419  0.1152  0.0718
 5335W        W18749  17.264   0.268   2.258  0.2436  0.1350 -0.0989
 5336W        W18750  14.577   8.020   1.924  0.1161 -0.1880  0.0859
 5337W        W18751   7.641  13.671  14.464  0.0296 -0.1759  0.1346
 5338W        W18752   6.479  16.687  14.492 -0.0539 -0.1490  0.2212
 5339W        W18753   4.853  11.350  10.158 -0.2878  0.1413 -0.0435
 5340W        W18754   9.779   6.311   0.199  0.1644 -0.1401  0.0110
 5341W        W18755   1.120   3.474  14.413  0.1326 -0.0184 -0.1663
 5342W        W18756  14.650   5.310   6.279  0.1038 -0.1780 -0.2422
 5343W        W18757  16.614  17.115   5.627 -0.0355  0.0643 -0.0483
 5344W        W18758   2.091  10.565   9.604 -0.4783  0.0165  0.4722
 5345W        W18759  16.673  11.523  14.411  0.0877 -0.1461 -0.2361
 5346W        W18760   9.092  18.052   2.101  0.2211 -0.0030  0.2218
 5347W        W18761   7.526   4.470   3.190  0.2637 -0.1354  0.0257
 5348W        W18762   0.765  15.174   1.923  0.0593 -0.0088  0.0409
 5349W        W18763   5.591   5.710  14.678  0.2103 -0.1082  0.2032
 5350W        W18764  15.107   4.038   2.566  0.0884 -0.3320  0.1716
 5351W        W18765  12.754   6.121  15.324 -0.1532 -0.0303 -0.1274
 5352W        W18766  15.473  17.325   2.596 -0.0622 -0.1034  0.2196
 5353W        W18767  13.345   4.471   4.312  0.2850 -0.4456 -0.1024
 5354W        W18768   7.116   3.325   3.136  0.1569  0.0558 -0.0513
 5355W        W18769   5.016   9.803   6.279 -0.1597 -0.0763 -0.1507
 5356W        W18770  17.531  17.166   2.338  0.0623  0.0405  0.2563
 5357W        W18771  12.383   7.479  13.198 -0.0944 -0.2378 -0.1858
 5358W        W18772  12.694  13.435   4.791  0.0912 -0.2685 -0.2299
 5359W        W18773   2.074   1.951   4.922  0.0140  0.0643 -0.1727
 5360W        W18774   2.378   4.559   0.761  0.0847  0.0601 -0.2468
 5361W        W18775   1.273   3.607  11.225 -0.0664 -0.1224 -0.2874
 5362W        W18776  12.785  10.936   4.149  0.0598 -0.4410  0.1601
 5363W        W18777  12.549   5.595  15.141  0.2569 -0.0822  0.2766
 5364W        W18778  11.249  12.274   1.169  0.0173 -0.1548 -0.0700
 5365W        W18779  11.780   4.074   1.744 -0.0985 -0.1116 -0.0209
 5366W        W18780  18.161  11.385   1.268 -0.0809  0.1343 -0.2177
 5367W        W18781   7.243  14.427  14.845  0.2231  0.1426 -0.0549
 5368W        W18782  15.811  16.881   2.804 -0.0343 -0.0554  0.0189
 5369W        W18783   6.949   1.092   4.626 -0.0895 -0.2393 -0.0192
 5370W        W18784   8.102   8.684   4.721  0.0533 -0.0135  0.1120
 5371W        W18785  14.974   2.347   1.943 -0.0582  0.1072  0.2224
 5372W        W18786  15.609  17.302  12.787  0.0184 -0.1934 -0.2200
 5373W        W18787  13.581   6.337  11.195 -0.4305 -0.1456 -0.2610
 5374W        W18788  12.802   3.807   5.057  0.1517  0.2968  0.3917
 5375W        W18789   2.899  17.001   4.497  0.2378 -0.2043 -0.2720
 5376W        W18790   9.646   5.344  15.809 -0.0678  0.0460  0.0257
 5377W        W18791   0.410   1.752  15.706  0.0013 -0.0710 -0.1398
 5378W        W18792   1.536   0.480  14.056  0.1609 -0.1121  0.2822
 5379W        W18793   7.209  11.045  10.403 -0.1731  0.0151 -0.0952
 5380W        W18794  18.312  15.337   4.052 -0.2321 -0.1054  0.0214
 5381W        W18795   8.013  16.836  10.762 -0.0701  0.0752  0.2180
 5382W        W18796   8.984   3.129  14.516  0.0136 -0.1002  0.1044
 5383W        W18797  11.440  16.485  15.510 -0.0275 -0.2466  0.0035
 5384W        W18798  17.149   5.213   2.069  0.2184 -0.1506  0.2358
 5385W        W18799  10.378  13.402   5.238 -0.3151  0.1760  0.3657
 5386W        W18800  14.974   3.730   3.710  0.2436 -0.0892  0.4101
 5387W        W18801   3.282   5.747  13.850 -0.1165 -0.1025 -0.2458
 5388W        W18802   7.494  12.462   0.764  0.0019  0.1202 -0.0268
 5389W        W18803   7.410  10.291   1.777 -0.0283  0.0100  0.0055
 5390W        W18804   5.362   9.623  13.242 -0.0034  0.2381 -0.0214
 5391W        W18805  14.567  13.675  14.783 -0.1633  0.1370 -0.0762
 5392W        W18806   9.503   3.993   0.084  0.0867  0.1115  0.0438
 5393W        W18807  11.045  16.154   4.875 -0.0836 -0.0518 -0.0170
 5394W        W18808  17.094  13.686  13.442 -0.0894  0.0302 -0.0281
 5395W        W18809  18.243   5.595  13.947 -0.0225 -0.1710 -0.2068
 5396W        W18810  14.685  12.798   5.267  0.1494  0.2404  0.1297
 5397W        W18811   8.504   7.443  13.601  0.0963  0.2219 -0.1595
 5398W        W18812   0.564   8.969  10.727  0.1336  0.1917  0.0738
 5399W        W18813  16.531   2.892  11.681 -0.0956 -0.0123 -0.0451
 5400W        W18814  15.893  12.244  15.835 -0.2990  0.0452  0.0460
 5401W        W18815  16.869   6.155   1.527  0.0463  0.0115 -0.1382
 5402W        W18816  11.508  18.071   2.256 -0.0460 -0.0019 -0.0130
 5403W        W18817  16.764   1.781   2.983 -0.4362 -0.3238 -0.0520
 5404W        W18818   3.660  11.269   3.218  0.4051  0.1647  0.0081
 5405W        W18819  10.275   4.861   5.391 -0.3570  0.0712  0.0361
 5406W        W18820   4.491  15.580  11.722 -0.0563  0.2350  0.1057
 5407W        W18821  13.955   0.801  12.814  0.1952 -0.0789  0.2344
 5408W        W18822   5.595   9.033  12.662  0.3373  0.1218  0.3523
 5409W        W18823   2.635  13.477   3.970 -0.0878  0.1033 -0.2781
 5410W        W18824  11.859   0.361  15.809 -0.0387  0.3133  0.3283
 5411W        W18825   5.153  13.585   2.944  0.3046  0.1339  0.0483
 5412W        W18826   6.656  10.698   4.603 -0.1840 -0.0369  0.0681
 5413W        W18827   8.916   4.890   2.155 -0.0976 -0.0007 -0.2096
 5414W        W18828   1.600   6.487   1.930 -0.0772 -0.1164  0.3918
 5415W        W18829   2.533  17.865  13.499  0.2636 -0.3779  0.0582
 5416W        W18830   9.675   1.852  14.951  0.2437  0.1434  0.0188
 5417W        W18831  11.506  17.800   3.219  0.1646 -0.1507  0.0385
 5418W        W18832   8.140   6.637  15.026 -0.0064 -0.3883 -0.0233
 5419W        W18833   9.644   2.217  12.122 -0.2410  0.1245 -0.2047
 5420W        W18834   1.786  15.353   0.896  0.3327  0.2594  0.0625
 5421W        W18835  16.834   9.448   0.901  0.1884 -0.2139 -0.0975
 5422W        W18836  13.534   5.389  12.859 -0.0057  0.0191 -0.3388
 5423W        W18837   6.254  14.348  12.380  0.2769 -0.0045  0.4183
 5424W        W18838   8.862   7.192   1.195  0.1259 -0.3205  0.1908
 5425W        W18839   3.267   9.480  14.919 -0.2764  0.0604  0.0046
 5426W        W18840  13.614  11.883  14.081  0.2982  0.0795  0.3014
 5427W        W18841   6.236   1.144   3.516 -0.0840 -0.0121 -0.3604
 5428W        W18842   3.684   1.465  15.775  0.2814 -0.4339 -0.2405
 5429W        W18843   2.734   6.790  13.142 -0.0510 -0.3033  0.0359
 5430W        W18844   8.656  12.670   5.464  0.1680 -0.1119 -0.5798
 5431W        W18845  16.807   7.330   2.692 -0.2031  0.0383  0.2578
 5432W        W18846  13.416   4.031   2.824 -0.0058  0.1183  0.0255
 5433W        W18847  14.068  13.009  10.471  0.1070 -0.0487  0.0933
 5434W        W18848   9.153   2.190   3.806 -0.2703 -0.0588 -0.0105
 5435W        W18849  12.166  16.649   4.710  0.1365 -0.0206 -0.2847
 5436W        W18850   2.995   0.284   5.092  0.1044 -0.3088  0.1483
 5437W        W18851  10.585  13.372  16.064  0.0861  0.2581 -0.0396
 5438W        W18852   0.412   4.105  12.837  0.0386 -0.0845 -0.0684
 5439W        W18853   9.510  15.285   2.632 -0.1831 -0.1129  0.2909
 5440W        W18854   8.040  11.885  12.123 -0.0912 -0.1344 -0.1339
 5441W        W18855  12.990   1.958  14.807 -0.0515 -0.1244 -0.0155
 5442W        W18856  10.029  12.821   3.455  0.0380  0.0156  0.0193
 5443W        W18857   7.559  12.163  12.186  0.1641 -0.0517 -0.2237
 5444W        W18858  14.598   6.384   0.871 -0.1765  0.0046 -0.1447
 5445W        W18859   6.007  12.169   3.243  0.0001  0.3628 -0.1162
 5446W        W18860  14.506   0.941   5.792 -0.0493  0.2052 -0.1100
 5447W        W18861  11.360  18.019  10.725 -0.0513 -0.1285  0.2634
 5448W        W18862   0.749  10.702   2.657  0.0324  0.0779 -0.0296
 5449W        W18863   7.315   4.139   1.698  0.3810  0.3048  0.2037
 5450W        W18864   1.133   5.926  12.989  0.2223  0.1906 -0.0720
 5451W        W18865  17.075   3.369   6.423  0.0957 -0.0129  0.3215
 5452W        W18866  12.267   1.383   3.959 -0.0964  0.0055 -0.0747
 5453W        W18867   7.578  17.978  13.241 -0.3724 -0.0288  0.0879
 5454W        W18868   8.082   4.060   0.404 -0.3097  0.0894 -0.2201
 5455W        W18869  17.917  12.347   6.655  0.2389 -0.5093 -0.1524
 5456W        W18870  10.850  14.444  15.670 -0.1966 -0.3568 -0.1845
 5457W        W18871  15.734   7.848  12.776 -0.3428  0.1509  0.0088
 5458W        W18872  14.297   2.816  13.486 -0.0532  0.4700  0.3923
 5459W        W18873  13.970   5.535  14.970 -0.2101  0.2364 -0.1029
 5460W        W18874  12.256   6.932   1.940 -0.0392  0.1671  0.0179
 5461W        W18875   7.882  10.835   3.533 -0.1418  0.0523  0.2409
 5462W        W18876   6.031  14.432   0.922 -0.0307  0.3484 -0.1075
 5463W        W18877  14.017   8.441   0.152  0.1702 -0.0804  0.2507
 5464W        W18878   2.743  18.237  11.193  0.0125 -0.0273 -0.0511
 5465W        W18879  15.057  12.730  10.821  0.6082  0.1808  0.1075
 5466W        W18880  16.412  11.204  12.839 -0.4614 -0.1767  0.0761
 5467W        W18881   1.472  14.502   5.040 -0.1262 -0.0149 -0.0617
 5468W        W18882  14.840  14.935   3.043 -0.0225 -0.2221 -0.0006
 5469W        W18883  16.629  17.084  14.407 -0.1986  0.0454 -0.7420
 5470W        W18884  10.289   7.317   4.559 -0.1834  0.2870  0.1208
 5471W        W18885   9.563  10.825   3.834  0.1034  0.1752 -0.0077
 5472W        W18886   7.096   9.577  15.984  0.0429  0.1620  0.4142
 5473W        W18887  15.688  13.680   2.912 -0.1913 -0.0073 -0.2550
 5474W        W18888  10.861   0.149   2.150  0.0194 -0.0086 -0.2793
 5475W        W18889  17.553   4.628   0.918  0.3382 -0.3306 -0.1968
 5476W        W18890  17.502  18.384  13.661  0.0175  0.0015 -0.4512
 5477W        W18891   4.806  11.228  12.521  0.1021 -0.0676 -0.3270
 5478W        W18892  14.137  16.663  10.893 -0.1226  0.1955 -0.0224
 5479W        W18893  13.395   6.751  15.037 -0.0853 -0.2264  0.0589
 5480W        W18894  13.570   4.635  10.937 -0.0894  0.0023 -0.0825
 5481W        W18895   9.313   1.323   3.493  0.0671  0.2820 -0.2122
 5482W        W18896   2.537  17.069  13.206  0.1004  0.2500 -0.2973
 5483W        W18897  15.846   2.405  12.692 -0.1939  0.2754  0.0526
 5484W        W18898  14.225   4.792   1.272  0.1351 -0.3565  0.1125
 5485W        W18899  15.699   2.534  12.208  0.1130 -0.0829 -0.0424
 5486W        W18900  17.184  11.808   2.784  0.0916  0.0310 -0.0710
 5487W        W18901  10.137  11.927  10.262 -0.4135  0.4371 -0.2514
 5488W        W18902   9.486   1.155   1.231 -0.0784  0.2220  0.2811
 5489W        W18903   4.170  16.388  13.736  0.3845 -0.5067 -0.2569
 5490W        W18904  10.853   2.500   5.219 -0.2293  0.1235 -0.1858
 5491W        W18905  11.017   3.209   0.237  0.2862  0.2277  0.3903
 5492W        W18906   7.435  15.102   0.025 -0.1151 -0.0723 -0.0300
 5493W        W18907  13.119   9.677  16.073 -0.0981 -0.1835 -0.3185
 5494W        W18908   5.125   7.806   3.045 -0.0883  0.3157  0.0421
 5495W        W18909   3.552   4.077   1.254 -0.0355 -0.2095 -0.3331
 5496W        W18910  14.748   0.606  13.988 -0.2699  0.0610  0.2838
 5497W        W18911  12.761  15.749   2.506 -0.2949 -0.0085  0.1078
 5498W        W18912  13.039  11.285   4.346 -0.2834  0.1444 -0.0615
 5499W        W18913  18.251  12.110   0.998  0.2958 -0.0369  0.1208
 5500W        W18914   7.111   4.402   6.564  0.2180 -0.0430  0.0383
 5501W        W18915   7.685  17.272   3.773 -0.1389 -0.2959  0.1983
 5502W        W18916   7.031  12.484   1.201  0.1017  0.2096  0.4479
 5503W        W18917   0.482  18.175   2.665 -0.1561  0.0298 -0.1355
 5504W        W18918   0.198   4.767  12.132  0.2345  0.0968  0.1275
 5505W        W18919  11.931  10.616   2.589  0.0532  0.1125 -0.0678
 5506W        W18920   4.281   6.514  11.431 -0.4059  0.0273 -0.1538
 5507W        W18921  17.077   9.456  15.027  0.1612  0.2228 -0.0062
 5508W        W18922   0.596  15.607  14.300 -0.1103  0.0103  0.6127
 5509W        W18923  10.981   5.662  13.338  0.1833  0.0487  0.0061
 5510W        W18924  15.657  16.181  12.720 -0.1580  0.0174 -0.2776
 5511W        W18925  17.504   8.240  15.504 -0.1505 -0.1753  0.1806
 5512W        W18926   2.853   9.435   1.520 -0.1526  0.2331  0.4132
 5513W        W18927   1.413   8.670  14.595 -0.1362 -0.1548  0.2461
 5514W        W18928   5.704   7.005   3.885 -0.0154 -0.0975  0.0314
 5515W        W18929   0.798   6.296   5.912 -0.1212 -0.0151  0.1875
 5516W        W18930   2.189  14.577  12.032 -0.1025  0.1387  0.0535
 5517W        W18931  10.004  18.448  12.403 -0.1377 -0.0244  0.1494
 5518W        W18932   2.295  15.633   5.313  0.1313 -0.0521 -0.1473
 5519W        W18933  11.896  16.096   5.688  0.1009 -0.2060  0.3901
 5520W        W18934  11.840  15.630  10.787  0.1971  0.3796  0.3303
 5521W        W18935   4.900  10.786  12.872  0.3178 -0.0848  0.0674
 5522W        W18936  18.153  18.010  12.821  0.1979 -0.0381  0.2276
 5523W        W18937  13.704  10.879  15.004 -0.1532 -0.2514  0.0356
 5524W        W18938  16.445   9.215  14.606 -0.1029 -0.1027  0.0645
 5525W        W18939   2.541  11.520   3.976 -0.1550  0.0828  0.1162
 5526W        W18940  15.584   6.969   2.074 -0.0459 -0.0787  0.1667
 5527W        W18941  17.816  18.337   3.371  0.2086 -0.0403  0.1245
 5528W        W18942   3.062   6.750  11.093  0.0341 -0.1512 -0.0177
 5529W        W18943   8.038   0.230   5.985 -0.2305 -0.1902 -0.2064
 5530W        W18944  10.293   9.941   3.915  0.1545 -0.0826 -0.2241
 5531W        W18945   8.215  15.732   1.948  0.2144  0.0106  0.2251
 5532W        W18946   3.665   8.428  10.304 -0.0177 -0.0318  0.1949
 5533W        W18947  11.264  16.233  15.921  0.1573 -0.1075  0.0870
 5534W        W18948   9.862  17.510  11.582  0.0307  0.0712  0.0434
 5535W        W18949   8.556   6.161  10.624 -0.1015  0.1788  0.0838
 5536W        W18950  13.108   7.659   1.563  0.2953 -0.0126 -0.1202
 5537W        W18951  17.009   7.915  12.232 -0.0915  0.1239 -0.1431
 5538W        W18952  17.778  14.896   6.168  0.4614  0.0075  0.0371
 5539W        W18953   5.394   0.389  12.141 -0.1447 -0.2035  0.0938
 5540W        W18954  14.351  13.067  10.893 -0.0869 -0.1759  0.2503
 5541W        W18955   1.954   8.613   5.106  0.1403 -0.0145 -0.1309
 5542W        W18956   0.273  11.682  14.938  0.0317  0.1564 -0.0329
 5543W        W18957  17.119   9.045   0.679 -0.2315 -0.2040 -0.2436
 5544W        W18958  13.287   9.534  12.678  0.2298  0.1218  0.0310
 5545W        W18959   2.609   5.715   4.923  0.0369  0.0649 -0.1315
 5546W        W18960   6.058  11.228   5.903 -0.0176 -0.1344 -0.0154
 5547W        W18961   3.203  16.018   2.694  0.5573  0.1846  0.1575
 5548W        W18962   4.876   8.257   6.229  0.0035 -0.0277 -0.0449
 5549W        W18963  13.927   6.380  12.551  0.0141  0.2169 -0.4713
 5550W        W18964   4.923   8.100   2.306 -0.1929 -0.0149 -0.1937
 5551W        W18965   1.430   9.930   3.195  0.3203 -0.0798  0.1066
 5552W        W18966   5.201   3.638   0.058 -0.2044 -0.1000 -0.1117
 5553W        W18967  13.675   6.634   5.690  0.4378 -0.2311 -0.0363
 5554W        W18968   7.891   7.852   1.247  0.0174 -0.1284  0.0292
 5555W        W18969   4.064  14.487   4.137 -0.1432  0.0226 -0.1151
 5556W        W18970   1.288   5.009  13.003  0.2954 -0.3028 -0.2116
 5557W        W18971   6.842   8.962   3.991 -0.2854 -0.3398  0.1355
 5558W        W18972  11.945   3.231  11.995 -0.2514  0.4559 -0.0312
 5559W        W18973   2.348  15.670   2.427 -0.0452  0.5123 -0.2341
 5560W        W18974   7.174   6.643   5.609  0.1083  0.0521 -0.2221
 5561W        W18975   1.986   0.546  13.051 -0.2625 -0.1939 -0.0501
 5562W        W18976  12.860   5.548   5.634  0.0604  0.2013  0.1690
 5563W        W18977   9.554   9.595   1.528  0.1740  0.4000 -0.3809
 5564W        W18978  15.425  17.946  13.546  0.1608  0.0972 -0.2298
 5565W        W18979  12.185   8.981  13.961 -0.0308 -0.1487 -0.0487
 5566W        W18980  12.382  17.131  11.213  0.4487  0.1761  0.0572
 5567W        W18981  11.975   4.554   2.164  0.1992 -0.2202  0.0565
 5568W        W18982   2.581  11.547   1.314 -0.3499 -0.0197 -0.0925
 5569W        W18983   7.156   6.955  10.161 -0.4010  0.0276 -0.0559
 5570W        W18984  17.051  11.147   4.349  0.0912 -0.1767  0.0228
 5571W        W18985  17.235   9.938  12.331 -0.0374  0.0386  0.1046
 5572W        W18986   9.659   6.052   3.323  0.1032 -0.0046 -0.0587
 5573W        W18987   9.532   1.853  13.096  0.0569 -0.1930  0.0055
 5574W        W18988   3.955   6.749   0.224  0.2938 -0.0590 -0.1938
 5575W        W18989   2.823   5.099  15.606  0.2780  0.0636  0.1415
 5576W        W18990   5.744  15.697   1.658  0.0802 -0.0975  0.3044
 5577W        W18991  18.169  11.566   0.337 -0.2203  0.2570 -0.0954
 5578W        W18992  13.523  14.554   2.034  0.1048 -0.0115  0.0571
 5579W        W18993  16.496  16.234  12.200 -0.0740  0.0125 -0.0279
 5580W        W18994  13.099   9.578  15.506 -0.2850 -0.0999  0.0181
 5581W        W18995   0.519   5.536   1.898 -0.0615  0.0679  0.2523
 5582W        W18996   6.156   4.596  13.759 -0.0192 -0.1999  0.1509
 5583W        W18997  18.493   9.072  13.104  0.1867 -0.0703 -0.0994
 5584W        W18998   5.125   5.911   5.435 -0.2087 -0.3785 -0.0979
 5585W        W18999   5.245  11.523   4.342  0.0459 -0.0958  0.0740
 5586W        W19000   2.840   1.865   5.482  0.1846 -0.1123 -0.3504
 5587W        W19001   0.264  10.033   1.634 -0.1089 -0.2262  0.4473
 5588W        W19002   9.338  17.226  12.393 -0.0672  0.1781  0.0002
 5589W        W19003   9.531   5.549   3.344  0.4285  0.0354  0.1590
 5590W        W19004   1.372   6.930   4.678  0.0341 -0.1287  0.0608
 5591W        W19005   5.367  17.447   4.161 -0.1732 -0.0941 -0.0539
 5592W        W19006  14.094  16.763   3.282  0.0722 -0.2716  0.1264
 5593W        W19007   6.946   6.593  15.532 -0.0921 -0.4478 -0.0982
 5594W        W19008   6.193   9.485   1.673 -0.0675 -0.3487  0.0165
 5595W        W19009   2.548   6.340  12.991 -0.1391 -0.0936 -0.1618
 5596W        W19010  13.423   1.049  13.017  0.1961  0.0136 -0.0874
 5597W        W19011  12.363   9.179  15.171 -0.0940 -0.1679 -0.1503
 5598W        W19012  18.098   7.255   1.672  0.0635 -0.1766  0.0951
 5599W        W19013  10.294   2.042  11.365  0.3377 -0.0427  0.1161
 5600W        W19014   0.216  17.642  12.350 -0.1402  0.0787  0.0667
 5601W        W19015  12.791  13.567  10.863  0.0551  0.0727 -0.1428
 5602W        W19016   9.156  13.775   2.781 -0.1699 -0.0529  0.0809
 5603W        W19017  15.843  18.118   2.328 -0.1960  0.1994  0.2368
 5604W        W19018   4.390   9.846  10.516 -0.1556  0.2292  0.0505
 5605W        W19019   0.633   0.876  11.605  0.1422  0.4628 -0.2178
 5606W        W19020   5.167  12.944  10.307 -0.2203  0.1620  0.0156
 5607W        W19021  10.959  10.914  12.629  0.1412 -0.3374  0.4555
 5608W        W19022   1.726  10.063  13.676 -0.0631 -0.0637  0.0695
 5609W        W19023   9.460  14.415  15.458  0.1006  0.1158 -0.1375
 5610W        W19024   9.429   2.024  14.487  0.2560 -0.0149 -0.2608
 5611W        W19025  12.911  12.277   5.777  0.3937 -0.3292 -0.0469
 5612W        W19026   4.607  12.790   1.575  0.0325  0.1191  0.3231
 5613W        W19027   7.926   7.178  15.066 -0.0523 -0.0895 -0.1969
 5614W        W19028   1.154   8.107  12.585  0.1000  0.2447  0.1400
 5615W        W19029   1.406   8.516   5.294  0.0995 -0.0786  0.0857
 5616W        W19030   9.097  12.628  10.783 -0.0520 -0.2566 -0.2358
 5617W        W19031  12.838  10.539  13.770  0.1089  0.0504  0.1349
 5618W        W19032   5.262   5.710   4.993  0.1202  0.1547 -0.1019
 5619W        W19033  17.070  11.519  15.126 -0.3055 -0.0362  0.1621
 5620W        W19034   3.439  12.317   2.877  0.2216  0.1057  0.1090
 5621W        W19035   3.627   9.900   3.548 -0.1498 -0.1552  0.3537
 5622W        W19036  16.142  11.759   2.563 -0.1804 -0.0178  0.3229
 5623W        W19037   7.569  14.084  15.405 -0.1994  0.3989  0.2743
 5624W        W19038   9.719  16.185  11.901  0.0820  0.1175  0.3748
 5625W        W19039  15.921   5.363   2.142 -0.0286 -0.1392 -0.0418
 5626W        W19040   3.874   7.006  13.677  0.0189  0.3763  0.0297
 5627W        W19041  16.997   7.535  10.822 -0.0002  0.2623  0.0004
 5628W        W19042   0.499  13.160   5.369  0.0707 -0.2163 -0.0588
 5629W        W19043  11.210   4.636  13.369  0.1981 -0.1402 -0.3307
 5630W        W19044  16.429   6.319   4.506  0.3594  0.0286  0.0778
 5631W        W19045  18.196   0.833   4.299 -0.1466 -0.0587 -0.1169
 5632W        W19046   5.609  15.213  14.264  0.0789  0.0504  0.1106
 5633W        W19047  11.624   3.270   1.722 -0.0177  0.2863 -0.3996
 5634W        W19048   7.673  13.957  14.876  0.2576  0.1747  0.2584
 5635W        W19049  16.989  11.787  14.656  0.4240 -0.3832  0.3435
 5636W        W19050   1.478   8.199  14.753  0.1681 -0.0820 -0.2436
 5637W        W19051  10.717  14.255  14.447 -0.3527 -0.0559  0.1128
 5638W        W19052   5.994   2.632   1.531 -0.0121 -0.2424 -0.1907
 5639W        W19053  15.889   8.267   0.785 -0.0891 -0.0051  0.3898
 5640W        W19054   3.529  13.083   4.261  0.2164  0.0177  0.1169
 5641W        W19055   9.131  12.716   3.017  0.1973 -0.0909 -0.1031
 5642W        W19056  15.042   0.173  12.932 -0.0752 -0.0312 -0.0883
 5643W        W19057  14.760  14.504   1.178 -0.3030 -0.2608 -0.0856
 5644W        W19058   7.720  16.962  12.197 -0.3419 -0.1648  0.0149
 5645W        W19059  12.934   5.355  10.925  0.1503  0.0920 -0.0828
 5646W        W19060   4.077  17.523   5.125  0.0397  0.2811 -0.2717
 5647W        W19061   4.224   7.802   2.717  0.0064  0.2334  0.1344
 5648W        W19062  12.325   0.502  12.732 -0.0486  0.2573  0.3160
 5649W        W19063  12.406  15.663  11.553  0.0213  0.4366  0.0956
 5650W        W19064  14.539   9.135  10.602  0.0457  0.1478  0.0998
 5651W        W19065   6.216   1.636   0.967 -0.0752 -0.1353 -0.2327
 5652W        W19066   9.233  18.167  10.495 -0.0446 -0.1464 -0.0809
 5653W        W19067   6.597  13.362   3.813 -0.1806 -0.1331 -0.0713
 5654W        W19068  15.782  11.841  13.294  0.1301  0.0300  0.1341
 5655W        W19069   0.427  10.460   1.804  0.0434 -0.3398  0.2519
 5656W        W19070   5.459  15.435   0.044 -0.1187 -0.4092  0.1300
 5657W        W19071   2.633   7.492  13.639  0.0472 -0.2339 -0.0793
 5658W        W19072  13.042  10.799   5.138 -0.0488 -0.1100  0.1704
 5659W        W19073  14.711   9.061  14.959  0.0148  0.0757 -0.1530
 5660W        W19074   3.827  15.695  15.701 -0.1115 -0.0100  0.0559
 5661W        W19075   7.062  11.882   0.326 -0.4309 -0.2754 -0.3326
 5662W        W19076   5.733   5.145  10.942 -0.3074  0.0200 -0.1473
 5663W        W19077   2.411   5.122   1.289  0.2604 -0.2335 -0.2321
 5664W        W19078   7.478  16.962  15.772 -0.0125 -0.1785  0.2752
 5665W        W19079  15.765  15.414   4.885  0.0447 -0.2907  0.1663
 5666W        W19080   2.879   3.808   1.536  0.0623  0.1031  0.0026
 5667W        W19081  16.597  15.559   1.398  0.3920  0.1065  0.2014
 5668W        W19082   7.582   3.117  13.433  0.0524  0.0716 -0.1686
 5669W        W19083  12.988   6.983   5.123 -0.0088  0.0228 -0.1237
 5670W        W19084   2.432   0.801  12.880 -0.0460  0.0480 -0.1521
 5671W        W19085  11.906  14.732  15.034 -0.5975 -0.0217  0.0882
 5672W        W19086   5.359   3.697   4.834  0.2547 -0.1013  0.2021
 5673W        W19087  14.040   7.418   2.335  0.6049 -0.1166  0.1235
 5674W        W19088   7.756   3.608  12.637 -0.0706 -0.0508 -0.1995
 5675W        W19089   6.040  17.277  14.043  0.0757 -0.0105 -0.1155
 5676W        W19090  17.845   2.086  13.607 -0.1297  0.0646  0.1119
 5677W        W19091   5.957   7.960   5.258 -0.0754 -0.0773  0.2613
 5678W        W19092   5.544  18.296  12.458  0.2508  0.3558  0.0475
 5679W        W19093  11.351   8.662   6.418 -0.0559  0.0188  0.0488
 5680W        W19094  10.577   3.605   3.050  0.0948  0.1101 -0.0663
 5681W        W19095  17.350   7.133   0.327 -0.0478  0.0309  0.2372
 5682W        W19096  11.974  15.567   4.596  0.2504 -0.0803 -0.0075
 5683W        W19097   3.489   6.757  16.177 -0.0800 -0.0750 -0.2703
 5684W        W19098  11.398  11.371  12.602  0.0374  0.2726 -0.2690
 5685W        W19099   1.316  14.827  12.187  0.2547  0.1858  0.2355
 5686W        W19100  12.478   8.298   5.767 -0.2136 -0.2353  0.1899
 5687W        W19101  16.606  13.424   3.332 -0.1780 -0.0768 -0.0362
 5688W        W19102  17.058  17.158  16.080 -0.0500  0.2217  0.2075
 5689W        W19103   3.353  14.356   1.528 -0.1373 -0.0131 -0.0753
 5690W        W19104  10.980   3.745   2.322  0.1593 -0.0400 -0.1884
 5691W        W19105  10.666   5.166   2.032 -0.2457 -0.1991 -0.0963
 5692W        W19106  11.397  12.568   6.297  0.0856 -0.2824  0.0599
 5693W        W19107   6.287   5.402   4.094 -0.0869 -0.3153  0.1930
 5694W        W19108  11.811  11.832   2.807 -0.0901 -0.0446 -0.2221
 5695W        W19109  18.097  13.871  12.196  0.3628 -0.0432  0.2837
 5696W        W19110  14.289  14.986   1.669  0.0724  0.2007 -0.2030
 5697W        W19111   9.290  11.932  15.814 -0.1690 -0.1769 -0.2647
 5698W        W19112  17.848   2.547  13.458  0.1064 -0.1549  0.0653
 5699W        W19113  13.595  13.051   4.579 -0.5553  0.0162  0.0462
 5700W        W19114   1.940   6.601   4.371 -0.0474 -0.2258  0.5474
 5701W        W19115   7.970   0.792  15.328 -0.1555 -0.3205 -0.0132
 5702W        W19116   5.414   3.083   0.764  0.0790  0.1017 -0.0962
 5703W        W19117   0.225  14.311  11.422  0.1733  0.0723  0.0347
 5704W        W19118  12.747  12.601  12.514 -0.0497 -0.1249  0.1861
 5705W        W19119   5.721   2.016  13.182  0.0615 -0.1622  0.0505
 5706W        W19120  17.546  17.118   5.920  0.2679  0.0167 -0.4073
 5707W        W19121  13.133  18.514  11.800  0.2271  0.1631  0.1256
 5708W        W19122  15.598   5.899   1.249 -0.0005  0.1163  0.0133
 5709W        W19123   0.976  13.077  13.750 -0.1914 -0.0935  0.1772
 5710W        W19124   2.114   5.426   3.614 -0.0058  0.1002 -0.0753
 5711W        W19125  13.155   8.894  13.946 -0.1854 -0.1828  0.0088
 5712W        W19126   6.720   2.056  16.023  0.0068 -0.2444  0.2045
 5713W        W19127  14.724  13.086  11.638 -0.3933  0.1820 -0.1651
 5714W        W19128  11.775   0.099   1.714 -0.3303  0.2134  0.2815
 5715W        W19129   9.483   2.432   2.319  0.3841  0.0409 -0.0383
 5716W        W19130  18.363   5.095   3.605  0.0363 -0.0626 -0.0196
 5717W        W19131  14.718  15.978   7.141  0.4809  0.1831  0.3804
 5718W        W19132  11.269   5.275  11.186 -0.4689 -0.3848  0.4073
 5719W        W19133  15.143   2.963   1.713 -0.0055  0.4561 -0.0260
 5720W        W19134   2.757   4.686   3.385  0.0967  0.2232 -0.0471
 5721W        W19135   6.607  17.760  11.232 -0.0245 -0.3069  0.0402
 5722W        W19136   6.184  14.684   5.035  0.2961  0.2118 -0.1996
 5723W        W19137  16.290  14.962   4.181  0.4883 -0.1271 -0.0108
 5724W        W19138  15.806   1.281   3.880  0.1650  0.4115 -0.3192
 5725W        W19139  10.612   1.609   4.602  0.2797 -0.2342 -0.0083
 5726W        W19140   6.322  17.831   0.722  0.2756  0.0627  0.2895
 5727W        W19141   5.421  18.362  15.426 -0.2236  0.0756  0.0955
 5728W        W19142  16.274  15.296   1.087 -0.2488 -0.0431  0.2229
 5729W        W19143   5.210   4.477  14.328  0.0529 -0.1337  0.0570
 5730W        W19144  13.334  16.559  12.432 -0.1088  0.1259 -0.0762
 5731W        W19145  12.298   9.263   1.484  0.1255  0.0866 -0.0785
 5732W        W19146   3.214  17.028  14.614 -0.1120  0.1422 -0.0965
 5733W        W19147   0.138  13.642  13.745  0.1689 -0.1547  0.2858
 5734W        W19148  10.787   2.824   6.426  0.0100 -0.0858  0.0805
 5735W        W19149   2.610   2.467   2.453  0.0513  0.0129 -0.5007
 5736W        W19150   8.805  13.957   4.094 -0.0146 -0.2821  0.1198
 5737W        W19151  11.822   3.860  11.660  0.0995 -0.1024  0.0401
 5738W        W19152  11.556  14.729  11.468  0.0155 -0.0983 -0.1123
 5739W        W19153  11.330  16.291   3.876 -0.1238  0.1387  0.0875
 5740W        W19154   8.067   2.041  15.737  0.2438 -0.1370  0.1456
 5741W        W19155  10.405   4.660   4.533  0.0560 -0.3316  0.1885
 5742W        W19156  14.169  16.509  15.539 -0.2117 -0.2852  0.2340
 5743W        W19157   6.126  12.594  10.203 -0.1541 -0.3709  0.0050
 5744W        W19158  13.293   5.847   4.498  0.0995 -0.1610  0.0847
 5745W        W19159  10.247   0.550   6.581  0.1532 -0.0603  0.1486
 5746W        W19160  16.053  18.306  11.674  0.1708  0.2021  0.1542
 5747W        W19161   5.543   4.758  15.464 -0.2783  0.0194 -0.0262
 5748W        W19162   1.934   1.046  13.024 -0.4084 -0.3384 -0.1536
 5749W        W19163  14.476  12.286  11.638 -0.2376 -0.1171  0.0755
 5750W        W19164  15.065  11.536   6.282  0.1464  0.0436 -0.0058
 5751W        W19165  11.256   4.864   6.559 -0.2145  0.1508  0.0757
 5752W        W19166  18.355   7.585   1.031  0.0764 -0.0694  0.1539
 5753W        W19167  11.192   9.220   3.409 -0.0318 -0.0960  0.1384
 5754W        W19168   4.300   1.359  12.310 -0.4143 -0.1222  0.1270
 5755W        W19169  16.236   7.865  13.675  0.0567  0.4445 -0.3378
 5756W        W19170  10.677   1.368  11.865  0.0642  0.0224  0.2513
 5757W        W19171  18.395   0.548  13.856 -0.0294  0.2918 -0.5450
 5758W        W19172   3.377   7.408   5.011  0.0888  0.0297  0.2406
 5759W        W19173   2.584   0.332   2.322 -0.2001 -0.0066  0.3336
 5760W        W19174   0.050   7.038   0.776 -0.0377  0.2812 -0.0304
 5761W        W19175   6.002   0.302  13.279 -0.1626 -0.1227 -0.2297
 5762W        W19176   2.090   6.733  15.639  0.0496 -0.1638  0.1679
 5763W        W19177  14.954   3.977   5.437 -0.3532  0.0677  0.0871
 5764W        W19178   8.614   0.968  14.358 -0.0220 -0.3057  0.1596
 5765W        W19179  18.418  11.560   1.685 -0.0821 -0.2368  0.0984
 5766W        W19180  13.931  12.267   1.740 -0.0051  0.0778 -0.0903
 5767W        W19181   3.671   3.174  13.850  0.3803  0.0554 -0.0652
 5768W        W19182  15.813  16.711   5.746  0.2041  0.0317 -0.1418
 5769W        W19183   0.308   7.923   5.301 -0.0197 -0.0780 -0.0630
 5770W        W19184   9.529   1.034  14.739 -0.0006 -0.0075  0.1350
 5771W        W19185   6.518   8.644  10.704  0.3135  0.0575  0.1689
 5772W        W19186  14.942   7.186  15.335  0.0321 -0.0291 -0.1576
 5773W        W19187  12.182  11.981  14.044  0.0348  0.3929  0.0533
 5774W        W19188   2.604  13.794   2.978 -0.1670  0.0076 -0.0634
 5775W        W19189   1.485   5.470   1.677 -0.2855  0.0027 -0.0193
 5776W        W19190   3.837  10.677  10.257  0.0204  0.1853 -0.1839
 5777W        W19191   1.596  12.055  14.388  0.4645 -0.0423  0.1638
 5778W        W19192   3.612   1.796  12.008  0.1124  0.1722  0.0386
 5779W        W19193   3.571   8.787  12.482  0.0693 -0.3041 -0.0173
 5780W        W19194  11.801  11.682   3.815 -0.2645 -0.0226 -0.0128
 5781W        W19195  17.771  17.837  10.102  0.0912  0.1380 -0.2370
 5782W        W19196   4.050  10.763  12.863  0.3168  0.3462 -0.3339
 5783W        W19197   1.021  11.837   0.386  0.0085 -0.1158  0.0205
 5784W        W19198   0.259   9.343  12.488 -0.0053 -0.1116  0.1618
 5785W        W19199  10.999  13.883   2.693 -0.1992  0.0728  0.0358
 5786W        W19200  13.807  11.144   4.688 -0.2167  0.2568 -0.2467
 5787W        W19201  17.912  11.235  16.260 -0.0117  0.0550 -0.3160
 5788W        W19202  12.940   4.682  13.195 -0.2160  0.2848  0.3300
 5789W        W19203   2.367   0.367   1.552  0.0349 -0.1539  0.1872
 5790W        W19204  12.027   1.848   4.070 -0.0256  0.3954 -0.0957
 5791W        W19205   1.966   3.286   2.582  0.3722  0.0611  0.1526
 5792W        W19206   5.520   8.072  12.750  0.1271  0.1458  0.2537
 5793W        W19207  15.383  18.470  13.785  0.5692  0.0194  0.0279
 5794W        W19208  17.910  10.702  11.219  0.1245 -0.0941 -0.0456
 5795W        W19209  17.174   6.688  12.510  0.0312 -0.0378  0.0855
 5796W        W19210   1.616   4.177  14.058  0.4349 -0.1774 -0.0813
 5797W        W19211   4.163   1.078   3.178 -0.0571 -0.1178  0.1505
 5798W        W19212   6.393   5.786  10.630 -0.3510 -0.2250  0.0587
 5799W        W19213   7.373  14.744  15.638 -0.1117  0.1368  0.3468
 5800W        W19214  13.985   6.519   2.159 -0.0961  0.0717 -0.3008
 5801W        W19215  17.456   2.239   0.605  0.3710  0.0086  0.0915
 5802W        W19216  10.912  15.131  16.111  0.0488  0.2418 -0.3955
 5803W        W19217   0.402  11.080  10.734 -0.3187  0.1049  0.1301
 5804W        W19218   0.860  17.292  15.931 -0.0891  0.2694  0.2902
 5805W        W19219  16.485   9.741   3.439 -0.0775 -0.2163 -0.0463
 5806W        W19220   9.038  14.181   4.485 -0.2304 -0.1787 -0.0702
 5807W        W19221   7.237  10.888   1.677  0.0743 -0.2160  0.2528
 5808W        W19222  13.949  15.265  12.149  0.4284 -0.2174  0.2231
 5809W        W19223   0.819  10.724   5.054 -0.0736  0.0533  0.3928
 5810W        W19224   9.537   4.025  12.067  0.0114  0.0340  0.0300
 5811W        W19225  12.041  11.885  13.104 -0.0956  0.0359 -0.1669
 5812W        W19226   1.959   7.192  10.950  0.1223 -0.0135  0.2748
 5813W        W19227   7.979  13.396  12.393 -0.0636 -0.1131  0.2063
 5814W        W19228   0.923   1.276  13.587 -0.1561 -0.2582 -0.1034
 5815W        W19229   1.350  11.809   1.901  0.0409  0.3756 -0.2247
 5816W        W19230  16.996   5.021  10.782 -0.2335  0.2581  0.2154
 5817W        W19231   7.783   0.638   0.862 -0.1101  0.0866  0.1430
 5818W        W19232   6.076  14.145   3.455  0.0097 -0.0715 -0.0731
 5819W        W19233   6.824  14.492  13.751 -0.0462  0.0708 -0.2010
 5820W        W19234  11.658  10.374   3.931 -0.1179 -0.0205  0.0611
 5821W        W19235  15.410  16.709   3.963 -0.3336  0.1573 -0.2508
 5822W        W19236  15.927   6.028  13.513 -0.0989  0.0981 -0.2211
 5823W        W19237  18.450   1.722  11.084 -0.2306  0.0921 -0.1857
 5824W        W19238   0.398   5.676   0.752 -0.1985 -0.3373  0.2518
 5825W        W19239  14.312   5.906   2.824  0.3112 -0.1773 -0.1472
 5826W        W19240  18.130  13.038   5.319 -0.1317 -0.1090  0.1496
 5827W        W19241   8.143  13.706  11.387  0.1951 -0.2318 -0.2514
 5828W        W19242  14.360   1.048  11.802 -0.2895 -0.0563  0.1411
 5829W        W19243  12.860   9.880   1.053  0.0473 -0.1001 -0.2826
 5830W        W19244   0.660  16.627   3.303 -0.1563  0.0023  0.0201
 5831W        W19245   5.334  15.150   3.963  0.0200 -0.0202  0.0212
 5832W        W19246   5.859   3.832   2.857 -0.0922  0.3019  0.0808
 5833W        W19247   9.237  14.180   3.455 -0.1596 -0.1224 -0.1678
 5834W        W19248  16.444  12.803  11.199 -0.0576  0.0344  0.2413
 5835W        W19249   5.490  17.347   5.064 -0.0761 -0.1317 -0.2261
 5836W        W19250   7.581   0.515  15.114  0.0829  0.1497  0.1152
 5837W        W19251   5.609   7.456   4.634 -0.0682 -0.1732 -0.1050
 5838W        W19252   8.852  10.558  12.965 -0.0514  0.2928  0.0936
 5839W        W19253  12.690  11.394   3.848 -0.3143  0.0505  0.1044
 5840W        W19254  15.586  10.455   4.945 -0.1080 -0.0772  0.0902
 5841W        W19255   0.248  16.559   2.991 -0.6832  0.1148 -0.0338
 5842W        W19256  14.310  12.407   3.457 -0.1782  0.1517 -0.1329
 5843W        W19257  16.010   2.569   5.455 -0.2049  0.1058  0.1166
 5844W        W19258   7.902   1.062   3.737  0.0242  0.3141  0.0918
 5845W        W19259  12.906   9.401  14.408 -0.1254 -0.1618 -0.2865
 5846W        W19260  15.064  15.368   5.169 -0.1655  0.2192 -0.0132
 5847W        W19261  13.582  11.632  11.103 -0.1541 -0.1239 -0.1586
 5848W        W19262   8.498  12.145   2.835 -0.0316  0.1265 -0.0567
 5849W        W19263   9.664  16.624   2.102  0.0883 -0.0205 -0.0828
 5850W        W19264   9.985  14.128   4.756  0.3489  0.0079 -0.0871
 5851W        W19265  16.906   2.814   2.181  0.0682 -0.0216  0.5225
 5852W        W19266   1.421  12.000  12.565 -0.2912 -0.0430 -0.1815
 5853W        W19267  13.929  16.620   9.913  0.0682 -0.2113  0.0616
 5854W        W19268  11.759  18.273  16.017  0.3516  0.3393 -0.1870
 5855W        W19269  13.296   0.654   4.188 -0.3044  0.3939 -0.0062
 5856W        W19270   7.286   2.787  13.562  0.0506  0.1833  0.2870
 5857W        W19271   5.408  11.530   0.385  0.0334 -0.2090  0.2269
 5858W        W19272   4.574   5.100   3.177 -0.1572 -0.1569 -0.0551
 5859W        W19273   7.421  18.040  15.809 -0.1250 -0.0649  0.1296
 5860W        W19274   3.807   1.431  11.106  0.2038 -0.0554  0.1364
 5861W        W19275  16.689  18.379  15.774  0.0655  0.0006 -0.1561
 5862W        W19276  17.008   3.403   2.100  0.0461 -0.0933 -0.2388
 5863W        W19277   0.464   1.449  13.428 -0.2878  0.1868 -0.1199
 5864W        W19278  12.149  17.998  13.708 -0.0207 -0.1232 -0.3125
 5865W        W19279   3.870   7.505   0.656  0.1761  0.3976 -0.0401
 5866W        W19280   6.495  12.725   2.668 -0.2504 -0.1783 -0.1272
 5867W        W19281  10.884   8.670   4.681 -0.0778 -0.0667 -0.1925
 5868W        W19282   7.196   2.399  12.136  0.1546 -0.0003  0.1522
 5869W        W19283  15.238   1.220  12.813  0.1309 -0.2909  0.1965
 5870W        W19284   7.227  17.584   2.447 -0.0219 -0.1066 -0.2350
 5871W        W19285   9.962   2.711   3.899 -0.0250  0.0511  0.0520
 5872W        W19286   8.745   8.963   0.978 -0.2643  0.0373 -0.1290
 5873W        W19287  10.573  15.465   1.879  0.5556 -0.0535  0.3310
 5874W        W19288   1.299  17.464   2.728 -0.2136  0.2781 -0.0379
 5875W        W19289   8.474  16.999   3.119 -0.0106  0.3116  0.0756
 5876W        W19290  13.111  16.738  14.099 -0.2708  0.0680 -0.1560
 5877W        W19291  16.733  13.061   0.728 -0.1176  0.0584 -0.0906
 5878W        W19292   3.815   5.081  13.462 -0.3120 -0.0927  0.2433
 5879W        W19293   6.991  13.014   4.343  0.0348  0.0377 -0.0586
 5880W        W19294  17.097  18.314   0.920  0.1852 -0.0933  0.0497
 5881W        W19295   0.195   8.759  11.184 -0.1056  0.0899 -0.1786
 5882W        W19296  16.786   9.562   4.564  0.2526 -0.2392  0.3392
 5883W        W19297  10.498  18.197   1.953 -0.0954  0.2348 -0.0145
 5884W        W19298  16.940   7.382  11.830  0.0244  0.2261  0.3295
 5885W        W19299  12.333   5.114   4.006 -0.0400  0.0994  0.2397
 5886W        W19300   4.710  10.819   3.054  0.1214 -0.2567 -0.0898
 5887W        W19301  18.231   9.779  11.483 -0.2568 -0.1061 -0.2190
 5888W        W19302   7.171  13.418  12.036 -0.1872 -0.0870 -0.2515
 5889W        W19303   4.001   8.813   3.688 -0.2030  0.0779 -0.0186
 5890W        W19304   2.238   7.298   5.092  0.0328 -0.0795 -0.1917
 5891W        W19305   2.845  16.598  13.742  0.1096  0.1198  0.3306
 5892W        W19306   5.004  16.062  14.221  0.1852  0.3137  0.3529
 5893W        W19307   0.928  15.166   4.433  0.1157 -0.2971 -0.1194
 5894W        W19308   0.445   4.340   2.725  0.0445  0.3284 -0.2278
 5895W        W19309   4.148   9.298   0.359  0.1329  0.0406 -0.3012
 5896W        W19310  15.910  14.519   2.387 -0.1897 -0.1823  0.2155
 5897W        W19311   8.245   5.243   3.314  0.0401  0.3389 -0.3485
 5898W        W19312  15.878   0.716  14.036 -0.2787  0.0443  0.3887
 5899W        W19313  14.068   5.039   4.213 -0.2273 -0.2932 -0.0534
 5900W        W19314  11.031   2.512   1.798 -0.1924  0.0265  0.0915
 5901W        W19315  16.241  14.721  13.173  0.0179  0.2443  0.0931
 5902W        W19316   4.549  17.717   0.865  0.1759  0.1085 -0.1000
 5903W        W19317   5.034  16.104   4.448  0.2173 -0.4503  0.1116
 5904W        W19318   1.843  12.010   0.901  0.2135 -0.0822 -0.0027
 5905W        W19319   9.877   0.597   5.079 -0.0259 -0.1314 -0.1528
 5906W        W19320  12.544  10.179  13.614 -0.0769 -0.1135  0.2914
 5907W        W19321  16.887   0.850  11.076  0.1983 -0.0952 -0.0206
 5908W        W19322  16.475  15.533  12.882  0.1285 -0.0878  0.0401
 5909W        W19323  12.389   7.365  13.696  0.1701  0.4527 -0.0155
 5910W        W19324   2.007   2.384  14.572  0.0263  0.2221 -0.1855
 5911W        W19325  18.353   0.865  12.271 -0.1020  0.3089 -0.5227
 5912W        W19326  16.883  13.839  14.714  0.2568  0.0214 -0.3023
 5913W        W19327  16.385   3.172  12.161 -0.3685 -0.0502 -0.0477
 5914W        W19328   5.919   4.853  15.159 -0.4822  0.0574  0.0522
 5915W        W19329   7.625   5.383   1.298 -0.2125 -0.0135  0.0854
 5916W        W19330  16.901   9.423   3.658 -0.0963  0.5024  0.2747
 5917W        W19331   8.344  10.497   4.309  0.2614 -0.0340 -0.0943
 5918W        W19332  17.327  15.894   2.428  0.2652 -0.4362  0.1247
 5919W        W19333  15.171  12.273   1.539 -0.1332  0.1444  0.0748
 5920W        W19334   1.792  11.260  15.774 -0.1981 -0.2136 -0.0959
 5921W        W19335   8.532   0.797  10.540  0.2843 -0.0123 -0.0688
 5922W        W19336  17.031   8.468  13.264 -0.2143 -0.0032  0.1884
 5923W        W19337   9.610  13.355  15.064 -0.3360 -0.1740  0.2931
 5924W        W19338  18.141   5.740   1.264  0.1691 -0.1381  0.0329
 5925W        W19339  12.058   4.557  14.231  0.2645 -0.0832  0.0835
 5926W        W19340   1.484   1.240  15.890  0.1708 -0.3333  0.2179
 5927W        W19341   1.745  15.393  12.364  0.1648  0.1310  0.1425
 5928W        W19342  12.770  11.137  16.223  0.1726  0.1985 -0.2383
 5929W        W19343   3.280   6.651  10.678  0.1114  0.2661 -0.0174
 5930W        W19344  12.251  16.796  12.029 -0.1958 -0.2177  0.2272
 5931W        W19345   5.577   6.440   4.694  0.2748 -0.3263  0.3894
 5932W        W19346  13.902  11.135  11.864 -0.1206  0.0341  0.1762
 5933W        W19347   4.941   9.372   5.524  0.2210 -0.0852 -0.2120
 5934W        W19348  16.381  13.566   1.569 -0.1359  0.1049  0.1281
 5935W        W19349  12.496   7.393  12.714 -0.2832 -0.1057  0.0065
 5936W        W19350   2.450   1.639  11.878 -0.3671  0.0163 -0.0114
 5937W        W19351   5.869  13.601   0.465  0.1763 -0.0925  0.0957
 5938W        W19352   4.134  10.804   4.964  0.1058  0.1445 -0.1876
 5939W        W19353   3.739   6.330   0.845 -0.1572  0.1655 -0.3560
 5940W        W19354  10.632  17.564  13.069  0.0938  0.1292  0.1513
 5941W        W19355   9.475  10.122   2.342  0.0895  0.3213 -0.1001
 5942W        W19356  11.965   2.403   3.911 -0.0184  0.2636  0.1283
 5943W        W19357   7.590  10.724  11.376  0.0495 -0.2096  0.0290
 5944W        W19358   8.116   0.252   4.995 -0.0567  0.0906 -0.1532
 5945W        W19359  14.992  11.238   5.364 -0.2647 -0.1796 -0.0816
 5946W        W19360  10.973   5.539  15.284  0.0576  0.2078 -0.2089
 5947W        W19361   9.597   7.334   0.977 -0.0168  0.1922  0.1757
 5948W        W19362   5.304   9.447  15.880 -0.0042  0.0744  0.1073
 5949W        W19363  14.627  18.386   5.412  0.0313 -0.1148  0.2399
 5950W        W19364  17.496   6.465   2.864  0.1778  0.1754 -0.3624
 5951W        W19365  16.717   3.184   4.165 -0.1398 -0.0803  0.0679
 5952W        W19366  16.864  17.895   1.738  0.2060 -0.0052 -0.2031
 5953W        W19367  12.281   0.019   3.577  0.3698  0.2088 -0.2156
 5954W        W19368   5.931  17.214   5.298  0.1228 -0.1339 -0.0857
 5955W        W19369  13.414  11.568   3.082  0.2877 -0.3111 -0.3528
 5956W        W19370  10.413  15.366   2.531  0.0515  0.0247  0.0134
 5957W        W19371  12.272   2.130  13.500  0.1296  0.1933  0.0646
 5958W        W19372  16.386  18.081  10.044  0.1663  0.1821 -0.2142
 5959W        W19373  15.060  12.683   4.838 -0.0982 -0.1084 -0.0637
 5960W        W19374   5.765  12.223  10.633 -0.2543  0.0727 -0.1657
 5961W        W19375   1.264   6.047   5.672 -0.0521 -0.0701  0.1013
 5962W        W19376   5.277  17.035   5.469  0.1929  0.2940  0.1105
 5963W        W19377   9.343  11.466   5.896  0.0234  0.1538  0.0634
 5964W        W19378  15.049   5.855  12.838  0.0555  0.1952 -0.1175
 5965W        W19379  16.834   3.098  11.065 -0.0313  0.1894  0.0655
 5966W        W19380  14.276   1.136  13.407  0.0010  0.0062  0.0384
 5967W        W19381  14.632  10.777  12.679  0.0874  0.1498 -0.0106
 5968W        W19382   9.963   0.894   1.033  0.0900  0.1040  0.0927
 5969W        W19383   0.675   9.599  15.875 -0.0979 -0.0398  0.0691
 5970W        W19384   8.409   7.245  11.942 -0.3950 -0.1301  0.2048
 5971W        W19385  17.134  10.690  12.291 -0.2176  0.0860  0.4078
 5972W        W19386  10.949   5.909   1.727  0.2148  0.1452 -0.0860
 5973W        W19387  11.823   1.314   0.617 -0.0318  0.0830  0.0300
 5974W        W19388   1.113   8.538  11.787 -0.4479 -0.2793  0.1340
 5975W        W19389  15.286   1.095   0.933 -0.0352  0.1165 -0.0810
 5976W        W19390  17.102   1.209   5.298 -0.0794  0.1365 -0.1243
 5977W        W19391  15.455   9.346  14.816 -0.1077  0.0728 -0.3500
 5978W        W19392  10.578   5.425   5.269 -0.1815 -0.0507 -0.1497
 5979W        W19393   8.152   4.299   2.269  0.2601 -0.1703  0.1729
 5980W        W19394   2.931   1.228  11.973  0.0512 -0.1836 -0.0051
 5981W        W19395  13.342   9.517   2.068 -0.2018  0.3467 -0.1703
 5982W        W19396   7.068  13.388  10.715  0.1271 -0.1618 -0.1160
 5983W        W19397  13.135  17.443   3.718 -0.0495 -0.1118 -0.0974
 5984W        W19398   5.247   3.843  11.534 -0.0046 -0.0063 -0.0284
 5985W        W19399  12.890   0.691   5.102 -0.0057 -0.0843  0.0926
 5986W        W19400   4.248  15.828  12.624 -0.0756  0.1429 -0.0483
 5987W        W19401   7.192   0.300   1.041 -0.2676 -0.1658 -0.4003
 5988W        W19402  13.492  11.938  12.982 -0.4262 -0.1535  0.3271
 5989W        W19403  17.601   1.325  12.313 -0.0185  0.0912 -0.0814
 5990W        W19404  17.431  17.548  15.755  0.0448 -0.4397  0.6970
 5991W        W19405  13.825   9.311   6.128 -0.0278  0.0536 -0.2428
 5992W        W19406  13.825   2.991   6.305 -0.1111  0.1230 -0.0786
 5993W        W19407   5.352   2.809  15.173 -0.2535 -0.3394  0.0378
 5994W        W19408  13.267  12.280  15.706 -0.0462  0.0015 -0.2310
 5995W        W19409  16.141  15.188  12.069 -0.0441  0.1365 -0.1830
 5996W        W19410  15.900  17.976   0.519 -0.1903  0.1301 -0.0070
 5997W        W19411   9.240  11.410   3.983  0.0479  0.0743  0.2379
 5998W        W19412  12.362   3.995  15.996 -0.3138  0.0749  0.2516
 5999W        W19413   3.729   0.683   1.530 -0.0636 -0.3407 -0.1944
 6000W        W19414  12.255  14.012   3.846  0.2006 -0.0336 -0.2335
 6001W        W19415   7.841  13.047  14.884 -0.0299  0.2434  0.3560
 6002W        W19416   0.505  14.931   4.809  0.0597 -0.1451  0.1424
 6003W        W19417   1.828  11.076  12.322  0.2203  0.2470  0.0244
 6004W        W19418   9.830  15.822  10.351 -0.0175 -0.1712 -0.2845
 6005W        W19419   7.118  13.071  15.833  0.0288 -0.2926  0.0908
 6006W        W19420  11.501  11.296  14.161  0.0035 -0.1551  0.0318
 6007W        W19421  10.795   1.522   3.683  0.0949  0.3040  0.2683
 6008W        W19422  18.205   5.340   6.057 -0.0911  0.1174 -0.2329
 6009W        W19423  10.540   4.805   6.660 -0.1217  0.1071  0.1720
 6010W        W19424   9.311   2.273   1.042 -0.0208  0.4279  0.0976
 6011W        W19425   6.448  17.788   0.251  0.3319  0.1829 -0.1132
 6012W        W19426   4.163   5.323  13.215 -0.1617  0.0458  0.1895
 6013W        W19427   4.909  12.968   0.369 -0.1339 -0.0930  0.0973
 6014W        W19428  13.892  16.177   5.038  0.0621 -0.0166  0.1039
 6015W        W19429  13.387   6.558  15.743 -0.4420 -0.0363  0.1128
 6016W        W19430   9.775   2.230   1.972  0.1614 -0.0826 -0.0018
 6017W        W19431  16.799   9.515   5.155  0.0217  0.3375  0.2751
 6018W        W19432   3.045   4.008   6.478 -0.0238  0.0764  0.3015
 6019W        W19433   7.958  15.343   5.353  0.1441  0.0274 -0.2771
 6020W        W19434   0.311  12.206  12.888 -0.1007 -0.0251 -0.1764
 6021W        W19435  14.382   1.051   4.831  0.2334 -0.0536  0.0017
 6022W        W19436   0.307   2.091  11.332 -0.1144  0.2010 -0.0399
 6023W        W19437   7.242  12.358   1.682 -0.2023 -0.1920 -0.0879
 6024W        W19438   2.508  10.759   3.869  0.0876 -0.3918  0.0526
 6025W        W19439  15.581   7.493  12.495  0.2376  0.2690  0.2263
 6026W        W19440  10.429  17.107   5.154  0.0815 -0.0916  0.3264
 6027W        W19441   6.371   8.808  15.026 -0.2937  0.3111  0.1442
 6028W        W19442  15.286  13.187  12.551 -0.0368 -0.2728 -0.4897
 6029W        W19443  14.881   4.025   2.089  0.3237 -0.1877  0.1638
 6030W        W19444   8.701   7.652  10.547  0.0007 -0.3194  0.0559
 6031W        W19445  11.606  16.801   2.355  0.0235 -0.2202 -0.1869
 6032W        W19446  14.031  18.114  13.935 -0.0245 -0.4535 -0.0681
 6033W        W19447   8.960  15.086  11.946  0.0946 -0.4034 -0.3232
 6034W        W19448  14.935   6.363   1.749 -0.0846  0.1114 -0.0265
 6035W        W19449  11.463  13.423   2.495  0.1928  0.0876 -0.2052
 6036W        W19450   4.592  14.933   4.828  0.3550  0.2242  0.0315
 6037W        W19451   0.416  18.318   4.132  0.0229  0.0662 -0.3266
 6038W        W19452  17.369  14.644  14.701  0.0771 -0.0249 -0.1637
 6039W        W19453   2.063   8.258   2.644  0.0258  0.0844 -0.1291
 6040W        W19454   4.807  12.983  12.709  0.1552 -0.0812  0.0121
 6041W        W19455   7.093   7.224  13.914  0.1713  0.2267 -0.4782
 6042W        W19456   1.792  10.467  16.114 -0.0385  0.1105  0.1451
 6043W        W19457   4.744   5.631  15.260  0.2836  0.2855  0.1026
 6044W        W19458   7.516   3.060   6.236  0.0872 -0.0798 -0.1097
 6045W        W19459  13.122   0.922   3.755 -0.2074 -0.1105  0.1859
 6046W        W19460   4.528   1.873   5.728 -0.0172  0.0043  0.1889
 6047W        W19461  15.689   7.149  14.815  0.2384  0.1204  0.0762
 6048W        W19462  10.902  17.502  12.684 -0.1279 -0.0970 -0.0840
 6049W        W19463  15.054   8.050   1.698 -0.0162  0.4115 -0.0667
 6050W        W19464  16.235   5.126   3.105  0.3447 -0.0896 -0.0233
 6051W        W19465  13.794  18.194  11.539 -0.1163  0.1154  0.0368
 6052W        W19466  12.494   4.612   1.907  0.0444 -0.0399  0.1581
 6053W        W19467  16.523   5.572   5.237  0.0464  0.1044 -0.1790
 6054W        W19468   2.761   6.678  10.672 -0.1026 -0.1681  0.0592
 6055W        W19469   6.314   8.974   0.524 -0.1564  0.1455 -0.2294
 6056W        W19470  11.504   1.630  11.396 -0.2236 -0.2937  0.4143
 6057W        W19471  11.021   9.614  11.807  0.2925  0.1664  0.1043
 6058W        W19472   2.798   9.423  14.548 -0.0618 -0.0949  0.2169
 6059W        W19473  12.442   5.291  12.578  0.0690 -0.0738  0.4654
 6060W        W19474   2.262  14.017   0.567  0.1485 -0.0361  0.3403
 6061W        W19475   9.407  18.165   2.476  0.1348  0.1578  0.0545
 6062W        W19476   0.221   7.787   0.628 -0.1941 -0.1848  0.3617
 6063W        W19477   9.049   4.300   0.250 -0.0206 -0.1320 -0.2160
 6064W        W19478  10.572   2.906   5.195 -0.2313  0.0303 -0.1217
 6065W        W19479   2.885  10.379   3.795 -0.2699 -0.1358 -0.2620
 6066W        W19480  13.907  10.015   3.504  0.1591  0.0647  0.1087
 6067W        W19481  16.788   5.532   2.318  0.1779  0.1785 -0.0718
 6068W        W19482   9.137  13.041   4.848 -0.0639 -0.2096  0.1380
 6069W        W19483   0.301   8.115   1.003  0.1246 -0.0280 -0.0926
 6070W        W19484  14.892   4.889   0.460 -0.1366  0.0129 -0.0690
 6071W        W19485   2.853   0.097  11.574  0.0754  0.0285  0.1163
 6072W        W19486   5.323   9.420  12.673  0.1542  0.0372  0.1229
 6073W        W19487  11.640  13.946   3.192  0.0109 -0.0387  0.3277
 6074W        W19488  18.444  16.805   4.392 -0.3818 -0.2387 -0.1168
 6075W        W19489  12.525  16.052  14.771 -0.1621  0.1854  0.1840
 6076W        W19490   2.747   0.435   1.204  0.0237  0.2060  0.2804
 6077W        W19491   3.671   6.613   2.812 -0.1072  0.1256 -0.0911
 6078W        W19492   8.458   6.022   5.041  0.1739  0.0523 -0.1077
 6079W        W19493  14.120  11.018   5.726  0.3226 -0.1423  0.0480
 6080W        W19494   2.291   6.775  14.875  0.1557 -0.1409  0.5160
 6081W        W19495  16.594  11.501   4.327 -0.0814  0.0975  0.3262
 6082W        W19496   0.944   5.945   5.122  0.2348  0.2646 -0.0089
 6083W        W19497   2.492   7.241   4.642  0.0482 -0.3372 -0.1575
 6084W        W19498   0.007   2.577   0.656 -0.0979 -0.0946 -0.5220
 6085W        W19499   7.707   7.305   4.853  0.2284 -0.0480  0.1425
 6086W        W19500   4.248   9.809   0.370  0.1188 -0.0767  0.3200
 6087W        W19501  12.103   2.907   4.006  0.0012 -0.1422 -0.0678
 6088W        W19502   3.554   1.210   6.397 -0.2460 -0.0804 -0.0975
 6089W        W19503   4.073  11.860   3.413 -0.3336  0.3036  0.1619
 6090W        W19504   2.423  18.471  12.615  0.2845 -0.1548 -0.1750
 6091W        W19505  15.366   8.063   0.835  0.0944 -0.1149 -0.3105
 6092W        W19506   5.614  14.041   0.868  0.1072 -0.3209 -0.0258
 6093W        W19507  11.305   4.886   1.386  0.2393 -0.2154 -0.1030
 6094W        W19508   8.538   7.565  15.921  0.2550  0.1741 -0.0633
 6095W        W19509  15.890   4.098   1.488  0.0757  0.1599 -0.2208
 6096W        W19510  15.254  17.388   1.107 -0.0414 -0.3672  0.0893
 6097W        W19511   6.647  16.047   5.123 -0.1222  0.2178 -0.0843
 6098W        W19512   7.417   7.818  15.013 -0.2107 -0.1127  0.1335
 6099W        W19513   0.830   2.409   0.268  0.0065  0.1738  0.2023
 6100W        W19514  13.012   9.817   2.490 -0.1794  0.0853  0.1555
 6101W        W19515  13.638   8.689  14.731  0.1643  0.0718 -0.1829
 6102W        W19516   5.543   1.157   0.541  0.0804 -0.0747 -0.0957
 6103W        W19517   2.307   5.230   4.074  0.0601 -0.4170  0.1999
 6104W        W19518  16.616   5.698  15.226  0.0679 -0.2444 -0.0585
 6105W        W19519  13.858   2.066   0.882  0.1554 -0.0199  0.2096
 6106W        W19520  17.296   3.071   5.248  0.1148  0.0397 -0.1206
 6107W        W19521   2.805  17.597   0.866  0.1614  0.0337  0.1888
 6108W        W19522   9.446  12.567   5.012 -0.1279 -0.0413 -0.1631
 6109W        W19523   8.231  17.300  16.255 -0.1802  0.0614  0.1357
 6110W        W19524   6.472   8.787  11.246  0.0722 -0.0978  0.1281
 6111W        W19525   4.749   5.043  16.160 -0.0203 -0.0291 -0.0839
 6112W        W19526  15.185   4.586  10.510 -0.0406  0.0810 -0.0253
 6113W        W19527  17.416  13.077   3.640 -0.0139 -0.0984  0.0759
 6114W        W19528   9.152   0.485  11.482  0.0216  0.1347  0.3970
 6115W        W19529  18.445  10.266  15.952  0.1123  0.1456  0.3112
 6116W        W19530   1.817   6.049  12.063  0.1874  0.1602 -0.1536
 6117W        W19531   0.241   2.347  14.609 -0.3946 -0.0157  0.1717
 6118W        W19532   8.440   7.157  13.101  0.0487 -0.1812 -0.0508
 6119W        W19533   2.450  16.981   3.667  0.0087 -0.2927  0.0744
 6120W        W19534   7.465  16.092  15.845  0.1649  0.0353  0.0099
 6121W        W19535   4.740  13.378  13.574  0.1681 -0.0410  0.3229
 6122W        W19536  17.838  11.894   3.951  0.0945 -0.0663  0.1623
 6123W        W19537   3.063   5.337  14.040  0.1867 -0.0537 -0.1443
 6124W        W19538   3.074   0.427  15.767  0.1040 -0.2270  0.0960
 6125W        W19539  16.270   9.401  13.272  0.3095 -0.2271  0.0876
 6126W        W19540   8.628   0.153  15.805  0.0902  0.1195  0.0971
 6127W        W19541  17.748   9.222  13.543  0.2062 -0.3416 -0.2071
 6128W        W19542   0.494   6.756  11.840  0.0570 -0.1645  0.0036
 6129W        W19543   7.046  11.678   4.381  0.2343  0.2555 -0.0676
 6130W        W19544   8.575   2.462  10.707 -0.0416 -0.1313 -0.0150
 6131W        W19545   9.772   8.203  12.149 -0.0525  0.1084 -0.3094
 6132W        W19546   1.285  16.010  14.771 -0.0533  0.0778  0.2401
 6133W        W19547  14.146  15.395   2.466 -0.4207  0.0157  0.1156
 6134W        W19548   9.745   1.770   4.530 -0.2100 -0.2376  0.2234
 6135W        W19549   8.154  14.072   1.429  0.2034 -0.0645  0.5679
 6136W        W19550  18.250  16.034  13.432  0.0569  0.0267 -0.1812
 6137W        W19551  14.215  10.029  11.110  0.3494 -0.0231  0.1095
 6138W        W19552  10.495  11.786  14.207 -0.3195  0.1755 -0.0594
 6139W        W19553  14.222  15.747  13.562  0.3211 -0.1822 -0.0769
 6140W        W19554  16.330   9.155   4.697  0.0438 -0.1666 -0.0749
 6141W        W19555   3.587  17.291  14.689 -0.0742 -0.1581  0.0806
 6142W        W19556  11.623   4.651   1.751 -0.2242 -0.2818  0.0271
 6143W        W19557  16.058   1.624  14.586  0.1445  0.0308 -0.1787
 6144W        W19558   0.402   0.068   2.168 -0.2363  0.0844  0.1763
 6145W        W19559  17.403  12.242   1.255 -0.0066 -0.0649  0.1580
 6146W        W19560   6.858  10.875  13.004 -0.2152  0.2562  0.0009
 6147W        W19561  14.879   1.905  11.828  0.2738  0.2988 -0.3994
 6148W        W19562  14.940   9.913   5.867 -0.3733  0.1833 -0.2452
 6149W        W19563  17.751   4.000   0.179 -0.1317  0.1005 -0.3355
 6150W        W19564   1.712  14.517   3.421 -0.2141  0.2006  0.2594
 6151W        W19565  18.395   4.403  11.983 -0.3337  0.3696 -0.2464
 6152W        W19566  18.431   3.752   2.737  0.0444 -0.0483  0.1033
 6153W        W19567   6.504   5.444  14.857 -0.3347 -0.0699  0.3928
 6154W        W19568   2.121   0.592  15.295 -0.0218  0.0336  0.0638
 6155W        W19569  10.557   8.368  15.364  0.1300 -0.4830  0.3362
 6156W        W19570   9.285  12.810  14.656  0.3110  0.0887  0.1427
 6157W        W19571  16.130  17.209  11.846 -0.1582  0.4119 -0.0673
 6158W        W19572  14.790  15.738  10.859 -0.1506  0.1261 -0.1769
 6159W        W19573   9.391   6.213   2.923  0.2289  0.1908  0.1675
 6160W        W19574   5.592   8.065   5.621 -0.0127 -0.0225 -0.1794
 6161W        W19575   5.558   3.746  12.870 -0.2920 -0.0977 -0.3641
 6162W        W19576   1.219  13.306  12.599 -0.0936 -0.0524 -0.2431
 6163W        W19577   5.161  17.348   0.041 -0.3721  0.2751  0.1838
 6164W        W19578  16.267  17.794   1.697 -0.0103  0.1408 -0.0076
 6165W        W19579  18.227   9.940  14.037  0.6957 -0.3411  0.1527
 6166W        W19580   8.107   2.604  15.667 -0.1367  0.2192 -0.3255
 6167W        W19581  12.646  16.076  13.412  0.0152 -0.1117 -0.2263
 6168W        W19582  16.395   5.404   1.499 -0.2336  0.1487  0.0996
 6169W        W19583  13.952  10.144  14.212  0.0751  0.0882  0.0055
 6170W        W19584   8.034   7.977   3.359  0.0721 -0.3098 -0.2655
 6171W        W19585   3.643   1.553  10.648 -0.1780  0.4141  0.3288
 6172W        W19586   0.174   7.100  11.491  0.0005 -0.0609  0.1681
 6173W        W19587   7.456   7.578  10.986  0.0518  0.2466  0.0365
 6174W        W19588  10.380  14.341   0.733  0.0508  0.0445 -0.0474
 6175W        W19589  10.346   1.966  16.179 -0.2630  0.1456  0.3506
 6176W        W19590  10.933   4.563   1.389 -0.0858  0.1303 -0.0160
 6177W        W19591  12.535  18.144  12.943  0.1372 -0.0080  0.1137
 6178W        W19592  15.419   0.064  15.287 -0.1059  0.0597 -0.1371
 6179W        W19593  15.815   4.854  16.063  0.1242 -0.1657  0.0380
 6180W        W19594  13.715  17.189   5.993 -0.1865  0.0960 -0.1215
 6181W        W19595  14.950  17.289   0.629 -0.0046  0.2231 -0.0642
 6182W        W19596   3.916  10.491   0.903  0.5356  0.1125  0.1296
 6183W        W19597  13.838  12.685   2.088  0.0660  0.0203 -0.2108
 6184W        W19598   3.552   7.127   5.412  0.1660  0.1327 -0.0341
 6185W        W19599   8.248  16.133  11.908 -0.1288  0.1230 -0.1373
 6186W        W19600   4.127   1.595  15.924 -0.3736 -0.5224  0.1840
 6187W        W19601   0.009  11.683   2.944  0.1596 -0.1108 -0.0455
 6188W        W19602   0.723   4.595   4.158  0.2024  0.1506 -0.0834
 6189W        W19603   1.451  14.504  14.862 -0.0197 -0.0318 -0.2245
 6190W        W19604   0.427  15.581  11.091  0.2062  0.0043 -0.0641
 6191W        W19605   8.429  18.166  10.883 -0.0067  0.1945  0.3439
 6192W        W19606   0.068   7.904  15.188 -0.0958 -0.2382 -0.0816
 6193W        W19607   7.642   3.964   3.296  0.1356  0.1737 -0.0012
 6194W        W19608   7.237   9.443   1.877  0.2805  0.0545 -0.1055
 6195W        W19609   6.687   0.808   2.420  0.1767  0.0625 -0.2608
 6196W        W19610  14.731  14.344  12.138  0.1382  0.0104 -0.2211
 6197W        W19611  16.769   2.495   0.613  0.2508  0.0659  0.1661
 6198W        W19612   3.060  10.109  16.046  0.1026  0.0884  0.0221
 6199W        W19613  17.213   1.654  12.391 -0.1724 -0.0663 -0.1512
 6200W        W19614  10.102   7.471  13.857 -0.1604 -0.0533  0.3161
 6201W        W19615  17.250   3.082  14.682 -0.0380  0.0752 -0.0145
 6202W        W19616   2.726   0.003  13.686 -0.2105  0.0719  0.0383
 6203W        W19617  11.680   7.149   2.575 -0.0513 -0.4643  0.1064
 6204W        W19618  12.319   1.130  12.127  0.0927 -0.1634 -0.2473
 6205W        W19619  12.387  10.451  15.264  0.2457 -0.3113  0.0117
 6206W        W19620   9.121   5.933  13.339  0.1153  0.1214  0.0860
 6207W        W19621   3.019  11.346   4.683 -0.1440  0.0918 -0.0980
 6208W        W19622   5.451   0.287   2.384  0.1059 -0.0840 -0.3120
 6209W        W19623   5.173  11.204   5.961  0.0597  0.0148  0.0893
 6210W        W19624   3.610  14.864  13.256 -0.3631  0.2030 -0.1688
 6211W        W19625   6.630   2.906  10.273 -0.0237  0.0148 -0.0928
 6212W        W19626   4.440   7.379   4.426 -0.2605 -0.1702 -0.1312
 6213W        W19627   9.147  14.418  15.999 -0.1333 -0.2340  0.1217
 6214W        W19628  13.334   3.863   0.384 -0.0065  0.0440  0.1026
 6215W        W19629  11.432   3.498  10.952  0.0920  0.0012 -0.1588
 6216W        W19630   9.440  14.997   0.367 -0.1564  0.4836  0.0756
 6217W        W19631  10.113   4.726  14.948 -0.1947  0.0148  0.2205
 6218W        W19632  11.516   1.159  11.934 -0.4817  0.1401 -0.0890
 6219W        W19633  17.214   8.835  14.295  0.2597  0.0655 -0.1174
 6220W        W19634  13.668   7.594  12.601  0.2821 -0.0179 -0.0330
 6221W        W19635   4.801   4.664   1.384  0.0183 -0.0035  0.0267
 6222W        W19636   1.367   4.045   0.931 -0.0257  0.2758 -0.1876
 6223W        W19637   9.855   0.489   9.613  0.3714  0.0229 -0.0603
 6224W        W19638  18.246   5.968   3.209 -0.1989  0.1533 -0.2667
 6225W        W19639   9.527   7.971   0.264 -0.0624 -0.2212  0.0112
 6226W        W19640  12.236   6.991   2.493 -0.2405  0.2428 -0.0263
 6227W        W19641   8.252  13.190   9.809  0.0127 -0.1295 -0.4844
 6228W        W19642  14.971  12.150  15.163  0.2241 -0.1338  0.0360
 6229W        W19643   7.702  11.176  12.607  0.0660  0.0032 -0.0710
 6230W        W19644  12.684   2.729   5.568 -0.0698  0.1281  0.1015
 6231W        W19645   5.193   8.208   0.852 -0.1857 -0.2621  0.1463
 6232W        W19646   5.207  14.869  13.365 -0.2147 -0.0412  0.0255
 6233W        W19647  18.322   6.320  15.849  0.0548 -0.1567 -0.1547
 6234W        W19648   9.501   5.057   1.953 -0.0402 -0.3171 -0.0324
 6235W        W19649  14.672  11.449  13.207  0.0333 -0.1885 -0.1352
 6236W        W19650   3.722   9.393  10.847 -0.1198  0.0759 -0.0403
 6237W        W19651   2.353   4.817  15.780 -0.1715  0.2751 -0.1928
 6238W        W19652  11.213   9.577   3.823 -0.0710  0.1773  0.0353
 6239W        W19653   7.568  13.559   5.459 -0.4159  0.2986  0.1512
 6240W        W19654   6.582   8.651   2.513 -0.0282 -0.4398  0.0777
 6241W        W19655  16.612   0.701   4.772 -0.0510 -0.1468  0.2802
 6242W        W19656   6.419   4.401  11.844 -0.1942 -0.0963  0.0217
 6243W        W19657   7.975  16.715  14.069  0.2080 -0.0149 -0.2526
 6244W        W19658   6.326  13.493  11.248  0.0817  0.1323  0.0645
 6245W        W19659   3.468   6.221  10.968  0.3802  0.2247 -0.0436
 6246W        W19660  14.401  11.818   5.066  0.3512 -0.0711 -0.0131
 6247W        W19661  11.460   2.856   4.710  0.1964 -0.2346 -0.0685
 6248W        W19662   1.007   7.859   3.895 -0.1143  0.2767  0.0225
 6249W        W19663  17.249  14.555  15.257 -0.3733 -0.3752 -0.0497
 6250W        W19664   8.122   1.412  15.110 -0.1975  0.2715 -0.4256
 6251W        W19665  15.605  14.435   1.005  0.1698 -0.4322  0.4033
 6252W        W19666  14.690   2.580  14.588  0.0338  0.1974  0.1544
 6253W        W19667  10.393  11.821   4.031 -0.2499  0.2912  0.1602
 6254W        W19668   2.994  17.391   5.836  0.0509 -0.3269  0.1004
 6255W        W19669   2.206   1.312   5.200 -0.1514  0.1699  0.1112
 6256W        W19670  18.492  11.826   4.756  0.0101 -0.0916  0.1133
 6257W        W19671   5.062  14.565  13.743  0.2200 -0.2326 -0.4198
 6258W        W19672   7.636   9.111  14.559  0.0481 -0.0660  0.0249
 6259W        W19673   3.080  17.157   3.679 -0.1042 -0.3113 -0.0477
 6260W        W19674   4.105   5.526   3.891 -0.0464  0.0406 -0.1012
 6261W        W19675   0.901  11.900  10.928  0.1271  0.1515 -0.3372
 6262W        W19676  12.890  11.407   6.034 -0.0881  0.1112  0.4709
 6263W        W19677   1.840  14.747   3.950  0.4311  0.2515 -0.0541
 6264W        W19678  14.410   4.013  15.592  0.1531  0.2294  0.0292
 6265W        W19679  16.152  11.604  13.658 -0.0201 -0.2823 -0.3508
 6266W        W19680   6.919  10.694  10.653 -0.2730 -0.1775 -0.2033
 6267W        W19681  16.478   4.186  16.041  0.2509  0.2877  0.0601
 6268W        W19682   4.239   2.509   4.600 -0.2397 -0.0690  0.0022
 6269W        W19683  17.236  13.211  13.636  0.2138 -0.2493 -0.2956
 6270W        W19684  12.226  13.067  13.353 -0.0299 -0.0504 -0.2384
 6271W        W19685  10.851  15.787  15.271  0.1029 -0.0191 -0.1138
 6272W        W19686   9.420   9.848  13.844  0.0107 -0.1421  0.2907
 6273W        W19687  16.633   4.714   2.359 -0.2094  0.2066 -0.1262
 6274W        W19688  15.218  13.969  11.206  0.0517  0.0010  0.1669
 6275W        W19689   4.958   4.861   2.363  0.0606  0.1121  0.0040
 6276W        W19690   3.371   4.412  15.584 -0.2385 -0.3426 -0.1468
 6277W        W19691   7.485   7.681  13.080  0.0880 -0.1231 -0.0608
 6278W        W19692   5.436  14.682  14.062 -0.1628  0.0393  0.2797
 6279W        W19693  13.121   1.827   1.448  0.1036 -0.1712 -0.3851
 6280W        W19694   4.823   8.869  13.757 -0.0794  0.2280  0.2588
 6281W        W19695   5.129  14.975  14.303  0.6728 -0.3183  0.0506
 6282W        W19696  13.193   4.324  11.077 -0.1772 -0.0447  0.2613
 6283W        W19697   2.961   1.524   2.979  0.0181 -0.0980  0.0766
 6284W        W19698  15.959   4.101  11.897  0.3470  0.1051  0.0532
 6285W        W19699   4.741   6.872  15.225  0.0512  0.1077  0.0171
 6286W        W19700  15.501   3.450   3.783 -0.3472 -0.1626  0.0209
 6287W        W19701  10.190  10.409   0.042  0.0491 -0.2517  0.1178
 6288W        W19702   4.387   5.360   5.219  0.1561  0.2893  0.3399
 6289W        W19703   7.505   4.915  14.441  0.4322 -0.2857  0.0213
 6290W        W19704   3.281  10.127   3.814 -0.2144  0.0673  0.0265
 6291W        W19705  13.829  16.765   0.804 -0.1136  0.0107  0.1229
 6292W        W19706  14.418  11.243   1.026 -0.0635 -0.0861  0.0365
 6293W        W19707   9.592   6.941   5.648 -0.2147  0.0313  0.0185
 6294W        W19708  10.296   3.851   4.828  0.0844  0.1340 -0.1338
 6295W        W19709  15.235  17.641  10.907  0.0435 -0.1029 -0.4074
 6296W        W19710  15.919   8.636   1.101 -0.0963  0.2075 -0.0339
 6297W        W19711  11.139   2.752   2.619  0.3664 -0.2666  0.2918
 6298W        W19712  13.246  14.669   0.883  0.1545 -0.1520  0.2642
 6299W        W19713   6.636  16.244   1.779 -0.0034 -0.4669 -0.1234
 6300W        W19714   0.625  11.518  11.106 -0.0424 -0.2503 -0.2259
 6301W        W19715  17.137   8.741   2.517  0.3290 -0.0945  0.1136
 6302W        W19716   1.748  11.444   1.291  0.3539  0.0375 -0.2345
 6303W        W19717   1.475   4.945  15.875 -0.0325 -0.0535  0.3591
 6304W        W19718   6.989   9.872   1.979  0.3648 -0.1161 -0.1701
 6305W        W19719  15.779  10.563   4.325 -0.1291  0.1179  0.1122
 6306W        W19720   5.036  12.660   1.310  0.0358 -0.2414  0.2348
 6307W        W19721  10.997  12.550   0.235  0.1829  0.3489 -0.2809
 6308W        W19722  14.291  14.288   5.178  0.1132 -0.1843 -0.1840
 6309W        W19723  14.561   6.800   1.785  0.2553 -0.1281  0.0114
 6310W        W19724   6.834  11.409  15.831 -0.0971  0.1042 -0.1251
 6311W        W19725   0.961   2.145  12.867 -0.6130  0.2849 -0.5486
 6312W        W19726  17.798   4.750  11.048  0.0286  0.3246  0.1514
 6313W        W19727   8.827  17.000   3.965  0.2255 -0.1707 -0.1605
 6314W        W19728   3.025  13.528  15.819 -0.0950 -0.0925  0.2880
 6315W        W19729   8.325  16.508   3.812 -0.0140  0.0352 -0.0398
 6316W        W19730   2.955   2.986   3.256  0.2516 -0.1366  0.0222
 6317W        W19731  12.144  11.266   5.271  0.1974 -0.0128 -0.3146
 6318W        W19732  14.582   4.432   4.692  0.0754  0.0227 -0.0554
 6319W        W19733  13.995  12.860   1.662  0.1917  0.1796 -0.1252
 6320W        W19734  11.756   2.017  11.169  0.1190 -0.0582  0.0925
 6321W        W19735   9.902   8.415  10.339  0.2969  0.0261  0.2873
 6322W        W19736   4.824   1.640  13.953  0.0488 -0.1438 -0.1016
 6323W        W19737  13.414   2.279   4.262 -0.1969 -0.1114 -0.0105
 6324W        W19738   1.017  16.669  13.554  0.0190 -0.4681 -0.0973
 6325W        W19739  12.866  14.005   0.793 -0.3932  0.2860  0.5786
 6326W        W19740   8.564   0.093   0.623  0.0709 -0.1032 -0.1214
 6327W        W19741   5.697   9.820   6.057 -0.0022 -0.0970  0.0155
 6328W        W19742   9.789   0.335   0.293 -0.4277  0.0036 -0.0525
 6329W        W19743  13.892   9.090   2.626  0.0123 -0.1056  0.2854
 6330W        W19744  11.810   1.414  12.281 -0.1256  0.2162  0.2219
 6331W        W19745   7.832  14.897  14.020 -0.0369  0.2310  0.1925
 6332W        W19746   5.466   1.661   0.311 -0.1408  0.0174  0.1267
 6333W        W19747   1.954   7.341   2.555 -0.0838 -0.0377  0.0014
 6334W        W19748   0.361  10.377   5.659 -0.0574 -0.1823 -0.0777
 6335W        W19749  14.357   8.663   4.033  0.0102  0.1040 -0.2831
 6336W        W19750   2.785   6.903  11.588 -0.0217 -0.2698 -0.3266
 6337W        W19751  17.545  15.663   3.557  0.0669  0.2325 -0.2355
 6338W        W19752   5.517  12.371  11.116 -0.0442  0.1238 -0.0758
 6339W        W19753  15.921   5.904   5.693  0.3953 -0.3164 -0.1499
 6340W        W19754  16.159   4.683  12.022  0.0284  0.2862  0.1910
 6341W        W19755  10.539  17.768  13.857 -0.2262 -0.0375  0.0611
 6342W        W19756   0.243   5.948   2.512  0.2397  0.0707 -0.2419
 6343W        W19757  12.140  14.866  11.701 -0.1283 -0.0636  0.0913
 6344W        W19758  18.125   7.694  14.574 -0.0677 -0.0227  0.1071
 6345W        W19759   4.231   8.182  10.989 -0.0408  0.0070  0.1761
 6346W        W19760  15.422  16.358  11.762 -0.1604  0.1287 -0.0180
 6347W        W19761   0.306   9.253  11.085  0.4231  0.3006 -0.0085
 6348W        W19762  15.717  12.568  15.468  0.1608  0.2447 -0.1161
 6349W        W19763  18.274  12.225   5.344 -0.1525  0.2376  0.0258
 6350W        W19764  10.022   7.047  11.575 -0.0536  0.2365  0.0297
 6351W        W19765   7.393  13.934   4.455 -0.0262 -0.1838  0.0427
 6352W        W19766  10.109  14.911   5.005  0.1108  0.1269 -0.1090
 6353W        W19767  15.066   8.164  14.477  0.1766  0.3654 -0.1890
 6354W        W19768  12.667   2.408   2.557 -0.2414  0.0921  0.1810
 6355W        W19769  15.578   5.440   2.464  0.3313 -0.0917  0.1018
 6356W        W19770   1.196   0.952   0.050 -0.3583  0.1798  0.0200
 6357W        W19771   2.930   9.117  15.191  0.1430  0.2324 -0.0873
 6358W        W19772   0.077   2.403   5.042 -0.0155  0.1244  0.0643
 6359W        W19773  17.117   2.171  11.897 -0.5089  0.0495  0.2900
 6360W        W19774  15.054  15.042   4.001 -0.0680 -0.2642  0.0289
 6361W        W19775   0.833  10.117  11.135 -0.0796  0.1975  0.2203
 6362W        W19776  11.356  13.040   2.845  0.5359 -0.0672  0.2249
 6363W        W19777   3.434  12.851   0.066 -0.0132 -0.3042  0.0545
 6364W        W19778   8.497  14.713  12.223 -0.3230 -0.3695 -0.0139
 6365W        W19779  13.556  10.840  12.594  0.3261  0.0599 -0.0488
 6366W        W19780   6.362  16.040   4.491 -0.0929  0.1325  0.1077
 6367W        W19781  13.915  16.678  11.754 -0.1625 -0.0751  0.2538
 6368W        W19782   3.241   5.416   5.275 -0.2418  0.0520  0.0040
 6369W        W19783   4.286   9.518  10.875 -0.0761 -0.4226 -0.1855
 6370W        W19784  15.652  13.070   3.033 -0.0480 -0.0542 -0.1613
 6371W        W19785   0.537   3.089  15.918 -0.0474 -0.1392 -0.1005
 6372W        W19786   2.135  16.804  11.903 -0.1115 -0.0887 -0.1364
 6373W        W19787  16.239   3.448   2.390 -0.2974  0.2972  0.2233
 6374W        W19788   8.820   6.750  13.334  0.0302 -0.2174 -0.2036
 6375W        W19789   0.143   9.061   4.830 -0.2045  0.1419 -0.0872
 6376W        W19790  18.086  13.592  15.753  0.3235 -0.0400 -0.0225
 6377W        W19791  11.539   1.477  10.488 -0.1352  0.1447 -0.2755
 6378W        W19792  14.194   8.812  11.267 -0.0080  0.0925  0.0948
 6379W        W19793   8.091  13.247   1.291  0.1146  0.0610  0.1730
 6380W        W19794   2.708   3.042   2.426  0.1768 -0.3215 -0.1066
 6381W        W19795   6.108  15.673   9.598 -0.4420 -0.1649  0.1164
 6382W        W19796  12.530  16.416  12.250  0.2091 -0.1090 -0.1309
 6383W        W19797   4.301   8.818  13.555 -0.1038 -0.0181 -0.0935
 6384W        W19798  14.735   0.697  15.157 -0.2558 -0.2566 -0.0391
 6385W        W19799  13.123   3.896  11.968  0.0187  0.1464  0.0379
 6386W        W19800  16.609  16.404   2.944 -0.0286 -0.2375 -0.0626
 6387W        W19801   2.987  10.340   0.762  0.0709  0.3021  0.0688
 6388W        W19802   1.663  13.431  11.282  0.2543  0.0554  0.3461
 6389W        W19803  10.328   2.497  11.547 -0.3412  0.1426 -0.0672
 6390W        W19804   1.676   3.531  15.659 -0.1050 -0.0602 -0.1744
 6391W        W19805   9.041   3.668   6.528 -0.0611 -0.4064  0.0847
 6392W        W19806  16.589  13.777   3.861 -0.3062  0.1522 -0.1711
 6393W        W19807   9.447   3.199  11.087 -0.2860 -0.1016 -0.2102
 6394W        W19808  13.261   9.751   4.493 -0.2407  0.0599 -0.2429
 6395W        W19809   5.034  14.176  11.305 -0.0293  0.1109 -0.3421
 6396W        W19810  11.309  10.572   5.907 -0.1474  0.1289  0.0046
 6397W        W19811   1.030   1.550  14.660  0.1990 -0.1653 -0.0157
 6398W        W19812  15.669   5.740   0.750  0.0893 -0.2936 -0.0164
 6399W        W19813   8.337  10.487  14.101 -0.1191  0.2550 -0.0132
 6400W        W19814  12.893  12.087  12.574 -0.0322 -0.0664 -0.2778
 6401W        W19815   5.061  13.955  15.913  0.2559 -0.1767  0.2435
 6402W        W19816  12.314  13.887  14.299  0.0779 -0.1544 -0.1847
 6403W        W19817  13.207   2.744  12.378 -0.0657 -0.2154  0.1433
 6404W        W19818   3.699   4.431  16.056 -0.0160 -0.1620 -0.4111
 6405W        W19819  16.745  15.648  14.184 -0.0738  0.3455 -0.4228
 6406W        W19820   9.967   5.477  11.108  0.0234  0.0125 -0.2641
 6407W        W19821   2.924   1.886   2.506  0.1288 -0.0330 -0.2774
 6408W        W19822   3.317   4.518   2.006 -0.0743 -0.1871  0.0019
 6409W        W19823   4.227   2.335  14.042  0.1673  0.1401  0.1710
 6410W        W19824  12.293   4.820   0.830 -0.1137  0.1165 -0.1898
 6411W        W19825   7.473  12.709  12.816 -0.3584 -0.1213  0.2083
 6412W        W19826  18.156  14.495   3.063 -0.0131  0.0999  0.0194
 6413W        W19827  16.768   0.439  10.805  0.1276  0.0591 -0.0817
 6414W        W19828   6.831  17.331   2.655  0.0060  0.3608  0.0779
 6415W        W19829   1.334  15.358   3.274 -0.0996  0.2484 -0.0688
 6416W        W19830   3.619  17.457  15.949 -0.1138  0.3351  0.0772
 6417W        W19831   0.623   6.834  11.312  0.1353 -0.1786  0.0606
 6418W        W19832  10.792  11.282   5.476  0.1308 -0.3970 -0.0005
 6419W        W19833  16.024  16.345  11.935 -0.0325 -0.1083  0.1601
 6420W        W19834   8.360  12.514   1.852 -0.1493 -0.4057  0.1311
 6421W        W19835   8.960  14.222   1.708 -0.2687  0.1854 -0.1602
 6422W        W19836   9.482  11.124   5.544  0.1148 -0.1351  0.0298
 6423W        W19837   4.067  16.795  16.057  0.0332 -0.0761  0.0171
 6424W        W19838   4.743   9.288   2.805 -0.0277 -0.1914 -0.1743
 6425W        W19839  15.689   4.533   2.372  0.0067 -0.2321  0.0023
 6426W        W19840  16.215   8.669  11.243 -0.2152 -0.1171  0.0141
 6427W        W19841  12.563   3.604  13.067  0.0281 -0.2337  0.1869
 6428W        W19842   2.919  17.218   5.032  0.2792  0.2792 -0.1154
 6429W        W19843  11.960   0.849   1.715 -0.1267  0.0731 -0.0836
 6430W        W19844   7.838   9.744  13.515  0.1035  0.0967  0.0160
 6431W        W19845   0.264   2.098  12.248  0.0511  0.0844 -0.0896
 6432W        W19846  13.674  16.013   3.499 -0.0820  0.2314 -0.3926
 6433W        W19847   7.214   8.524   2.530 -0.5105 -0.2368 -0.3055
 6434W        W19848   8.180  12.947   4.891 -0.1206 -0.0808 -0.0088
 6435W        W19849   2.478  15.184  16.034 -0.0874 -0.0386 -0.0509
 6436W        W19850  13.801  11.400  15.008  0.1518  0.3031 -0.0292
 6437W        W19851   9.845   3.090   3.418 -0.0860 -0.1030 -0.2909
 6438W        W19852  10.691  17.576   1.229  0.0125  0.3569  0.2307
 6439W        W19853   1.091  15.588  12.053  0.1151  0.3155  0.1736
 6440W        W19854  13.504   8.120  13.982  0.3169 -0.1041 -0.3915
 6441W        W19855   5.265   6.008   0.259 -0.0587 -0.1619 -0.1249
 6442W        W19856   7.436  13.279  11.589 -0.0467 -0.2756  0.2072
 6443W        W19857   5.813   8.642   0.349 -0.0278  0.1459 -0.1692
 6444W        W19858   4.608   2.570  11.259 -0.0492 -0.1604 -0.1476
 6445W        W19859   6.443   9.277  14.755 -0.1517  0.1255  0.1224
 6446W        W19860   6.814  10.573   5.635 -0.0019  0.0893  0.3025
 6447W        W19861  14.608  13.113   3.468 -0.0530  0.0898 -0.0530
 6448W        W19862   1.337   2.160   4.639 -0.4162  0.1111 -0.1428
 6449W        W19863   9.024  10.923   4.685  0.0751  0.0096 -0.1628
 6450W        W19864   6.953   5.785  12.596 -0.0527  0.1800 -0.2882
 6451W        W19865   0.567   6.686  13.384  0.1127  0.1246 -0.0051
 6452W        W19866   8.023   1.366   0.965  0.0897  0.1347 -0.1774
 6453W        W19867   9.701  17.683  15.379 -0.2088 -0.0457  0.0089
 6454W        W19868   6.757   6.188   0.447  0.1230  0.0587 -0.1824
 6455W        W19869   9.427  16.513   3.692  0.1794 -0.0716  0.0811
 6456W        W19870   1.056  12.014  15.229  0.1605  0.1096  0.1078
 6457W        W19871  10.917   5.561  16.265  0.3551  0.1865 -0.2319
 6458W        W19872   0.013   8.483  12.933 -0.0504 -0.0906 -0.0088
 6459W        W19873  14.261   8.506   0.625 -0.1044  0.2974 -0.0561
 6460W        W19874   9.382   6.822   5.163  0.1511 -0.0882  0.0910
 6461W        W19875  11.292   6.565  13.198 -0.1090  0.0281 -0.3135
 6462W        W19876   5.853  13.142   0.804 -0.0045  0.0209 -0.2194
 6463W        W19877   8.108   7.988  11.676 -0.1606 -0.6944 -0.2837
 6464W        W19878   5.501  16.109  14.046  0.2082  0.2412 -0.1286
 6465W        W19879   1.206  13.677   2.872 -0.1461 -0.1820  0.0437
 6466W        W19880   9.117  17.670  15.332 -0.1122 -0.0317 -0.1783
 6467W        W19881  16.632   0.477   5.518  0.0684 -0.1770 -0.1233
 6468W        W19882   1.273  11.328  13.755  0.2034 -0.2033 -0.0443
 6469W        W19883  11.587   3.981  10.812  0.1530  0.1220  0.0283
 6470W        W19884  11.489   2.698  13.432 -0.1040  0.1183  0.4203
 6471W        W19885   8.814   4.553  15.144 -0.2408 -0.4995  0.1863
 6472W        W19886  10.194   9.834   5.230  0.4057 -0.0757  0.2125
 6473W        W19887   3.143   0.307   0.917 -0.2051 -0.3793  0.2512
 6474W        W19888   4.804   0.409   4.493  0.4162 -0.2350 -0.2103
 6475W        W19889   3.965   0.236   4.395  0.4670  0.1210  0.0604
 6476W        W19890   0.055   6.481  14.974  0.0825  0.2768 -0.0091
 6477W        W19891  12.902  13.150  11.202 -0.0967  0.2384 -0.1663
 6478W        W19892  11.901  15.665  12.515 -0.1340 -0.0948  0.3123
 6479W        W19893  12.692  14.466   0.799  0.0766 -0.0856  0.2214
 6480W        W19894  14.665   2.788   1.777  0.4140 -0.0667 -0.0357
 6481W        W19895  13.604   4.921  14.728 -0.0168 -0.1161 -0.2494
 6482W        W19896  15.836  16.433   1.668 -0.0058 -0.0087 -0.0544
 6483W        W19897  18.254   6.703  12.417  0.1485 -0.3798 -0.2158
 6484W        W19898  16.684  15.308   3.688 -0.1279 -0.0753  0.3427
 6485W        W19899   6.673   8.509   0.964  0.3982  0.1089 -0.2797
 6486W        W19900  17.539   4.732   2.091 -0.1654  0.0869 -0.1088
 6487W        W19901   3.696  17.860   1.146  0.0470  0.0095  0.2532
 6488W        W19902  12.524   6.554  12.322  0.3447  0.2184 -0.1007
 6489W        W19903  16.872  15.879   2.130  0.0361 -0.0516 -0.2547
 6490W        W19904   1.898  11.467  11.458  0.0454  0.0197 -0.0077
 6491W        W19905   1.000   3.612   5.097  0.0162 -0.3476  0.1300
 6492W        W19906   5.141   2.131  11.652  0.0822  0.1669 -0.2948
 6493W        W19907  17.944  16.376  12.217 -0.0102 -0.1988 -0.2351
 6494W        W19908  16.825   8.682   1.044  0.0617 -0.1659  0.1996
 6495W        W19909   2.030   3.668   5.974  0.0409  0.0673  0.4401
 6496W        W19910  12.265  11.309   4.777  0.1973 -0.1639 -0.1007
 6497W        W19911  17.218  14.486  12.778  0.2253 -0.0092  0.1187
 6498W        W19912   7.407  15.925   9.780  0.1177 -0.2564 -0.3682
 6499W        W19913  13.457  18.207  15.057  0.0766 -0.1639 -0.0351
 6500W        W19914   3.868   2.832   1.836  0.2597 -0.1852  0.1919
 6501W        W19915   8.652  12.165   1.508  0.1497  0.0288 -0.1223
 6502W        W19916  13.079  16.659  14.595 -0.1719  0.4134  0.2579
 6503W        W19917  10.869  12.864  15.892  0.3251  0.1904 -0.0994
 6504W        W19918  16.184   5.145   4.964 -0.1684  0.0807  0.0774
 6505W        W19919   2.548  14.180   5.532 -0.3125  0.2402  0.1308
 6506W        W19920   4.772   9.073   5.159  0.0764  0.0305  0.0958
 6507W        W19921  12.613   6.642   0.323 -0.0904 -0.1960 -0.2307
 6508W        W19922  15.911   3.520   5.608 -0.1964  0.3499  0.0323
 6509W        W19923   1.635  13.738  12.121 -0.1283  0.1756  0.2228
 6510W        W19924   8.074  15.729   4.346  0.0551 -0.4175  0.1218
 6511W        W19925   6.039   4.148   2.525 -0.0685  0.0309 -0.1147
 6512W        W19926   4.398   3.957   4.852  0.0341  0.0773 -0.0765
 6513W        W19927   2.942   2.582   4.805  0.1776 -0.2151  0.1291
 6514W        W19928   4.966   9.281  10.903  0.1880  0.1244  0.3465
 6515W        W19929  11.782   0.933  13.970  0.1944 -0.0892  0.1667
 6516W        W19930  12.711   4.009  14.347 -0.1388  0.0301 -0.0717
 6517W        W19931  10.432  10.646   5.725 -0.1593  0.0404 -0.2238
 6518W        W19932  14.414   6.714   3.932  0.0370 -0.1594 -0.1899
 6519W        W19933  16.153  15.925   3.913 -0.0897  0.0352 -0.1213
 6520W        W19934   8.202   2.784  15.165  0.2735  0.2250  0.0140
 6521W        W19935  11.626   2.654   0.240 -0.0723 -0.0327  0.1261
 6522W        W19936   7.100  12.771  11.456  0.4439  0.1640 -0.0156
 6523W        W19937  17.515  12.782   0.957 -0.2000 -0.0996  0.1574
 6524W        W19938  10.248   4.206  13.063 -0.1913 -0.1550  0.0079
 6525W        W19939  10.905   3.563   6.036 -0.0259 -0.0710 -0.1322
 6526W        W19940   6.943   6.067  13.294  0.0394  0.0399  0.0038
 6527W        W19941   8.043  11.240  13.002 -0.1801 -0.2137 -0.2512
 6528W        W19942   4.947   6.419   0.106  0.2018 -0.1030 -0.1773
 6529W        W19943  11.362  12.025   2.053 -0.0596  0.3275  0.2244
 6530W        W19944  10.932  12.259   3.435  0.3979  0.0738  0.0788
 6531W        W19945  15.422   5.927   3.408 -0.1617 -0.0673  0.2217
 6532W        W19946   1.871  15.457   9.848  0.1022 -0.0627 -0.0256
 6533W        W19947   6.900  16.037  15.639 -0.1689  0.0235  0.3499
 6534W        W19948  10.690  17.058   2.727 -0.2442 -0.1479  0.3042
 6535W        W19949   5.333   9.803   4.367 -0.1747  0.1386  0.1515
 6536W        W19950   5.375   7.162   4.233 -0.1265 -0.1541  0.2888
 6537W        W19951   8.448  15.075  10.111  0.1931  0.0466 -0.1743
 6538W        W19952   7.178  16.552   3.336 -0.1329  0.0833 -0.1211
 6539W        W19953   9.626  13.595   2.843 -0.2657  0.4290 -0.1154
 6540W        W19954  15.729  16.346  10.913  0.1440 -0.2155  0.2717
 6541W        W19955  17.573   7.149   2.891 -0.0405  0.0433 -0.2250
 6542W        W19956  17.514   7.860   3.839 -0.3603  0.0045 -0.1131
 6543W        W19957   5.050   2.380   4.985  0.1640  0.1145 -0.0897
 6544W        W19958   1.512   1.153  14.198 -0.1618  0.1138 -0.1311
 6545W        W19959   0.286   9.907   5.933 -0.2806  0.2549 -0.0358
 6546W        W19960   8.134  11.785   1.138 -0.0322 -0.1526 -0.1681
 6547W        W19961   6.872  15.613  15.258 -0.0901 -0.2328  0.3755
 6548W        W19962   8.186   7.835  10.355 -0.0978  0.0544  0.1218
 6549W        W19963  14.245  12.505   4.450  0.1943 -0.0361  0.2745
 6550W        W19964  13.725   9.976  10.993 -0.2231 -0.1199  0.1553
 6551W        W19965   5.979   6.564  11.281  0.1407  0.2920 -0.0802
 6552W        W19966  10.879  17.389   1.691 -0.0790 -0.0542  0.1382
 6553W        W19967  13.438   6.738   0.165 -0.0140 -0.0597 -0.2046
 6554W        W19968   0.367  10.335  11.069  0.0474  0.2534 -0.0342
 6555W        W19969  10.363  10.182   1.989  0.1700  0.0196  0.0192
 6556W        W19970   5.865  18.240   2.683 -0.1394  0.2712  0.1635
 6557W        W19971  16.572  16.132   4.175 -0.1616  0.0638  0.1058
 6558W        W19972   7.665   1.786   6.000 -0.5502  0.0333  0.1498
 6559W        W19973  17.436   5.402  12.337  0.0592 -0.2479 -0.1892
 6560W        W19974   2.595   9.864  10.871 -0.3220  0.1454  0.0841
 6561W        W19975  17.581  16.922  12.233  0.1520  0.2130  0.2209
 6562W        W19976   6.896   7.090  12.349 -0.1217  0.1910 -0.0866
 6563W        W19977   0.769   8.951   1.384  0.2743 -0.0078 -0.2335
 6564W        W19978   5.242  10.628   1.069  0.0796 -0.3792 -0.4756
 6565W        W19979   2.440   9.584   5.293  0.2069  0.0680  0.2223
 6566W        W19980  15.942   6.363   5.472 -0.1757  0.2633 -0.1709
 6567W        W19981  10.188  10.852  15.424  0.0829  0.1070  0.1556
 6568W        W19982  10.233  12.698  12.405  0.0042 -0.1281 -0.0484
 6569W        W19983  11.363  11.840   3.944 -0.2679  0.0845 -0.1112
 6570W        W19984  16.584   4.550   1.850 -0.4375 -0.1600 -0.2983
 6571W        W19985  14.252  11.837   3.369  0.1671  0.0727  0.1718
 6572W        W19986   9.749   4.105   1.184 -0.1780  0.1175 -0.1366
 6573W        W19987  15.278  15.024  11.541 -0.1563  0.1175 -0.1964
 6574W        W19988   6.637  12.106   0.074 -0.0379  0.2477 -0.1654
 6575W        W19989  11.335   8.840  10.564 -0.0819  0.3418  0.1886
 6576W        W19990   1.883   8.130   1.066  0.1409  0.0400  0.1915
 6577W        W19991  17.820   6.295   1.885 -0.1857 -0.2202 -0.3196
 6578W        W19992   0.336  15.564   0.794  0.2463 -0.3586 -0.1652
 6579W        W19993   1.054   6.111  14.086  0.1981 -0.0467 -0.0090
 6580W        W19994  16.138  14.139  10.893  0.0701  0.0041  0.2745
 6581W        W19995  10.728  17.436  12.093  0.1957 -0.0095 -0.0336
 6582W        W19996   0.895   9.415   4.613  0.3881 -0.0983  0.0883
 6583W        W19997   6.926   6.545   2.874 -0.1532 -0.0911 -0.1798
 6584W        W19998  11.419   8.140  13.350 -0.0018  0.1306 -0.1358
 6585W        W19999   2.110  10.711   0.823 -0.1617 -0.1268  0.0601
 6586W        W20000   3.282  12.954  14.359 -0.0156  0.1228 -0.1271
 6587W        W20001  11.066   7.784   0.597 -0.0520 -0.0737 -0.0456
 6588W        W20002   8.518   1.304   0.103 -0.1661  0.1560 -0.1446
 6589W        W20003  12.718   8.505   0.972  0.0296 -0.0816 -0.3018
 6590W        W20004   4.257   7.236  13.451  0.0123  0.1811  0.1758
 6591W        W20005  11.951   6.437   4.282  0.0523 -0.2093  0.1249
 6592W        W20006  11.481  16.801  14.429  0.3703  0.1532 -0.4755
 6593W        W20007  10.832  10.144   2.257  0.2586  0.0119  0.0741
 6594W        W20008  18.326   1.994  14.582 -0.0505 -0.1748 -0.1544
 6595W        W20009   8.922   2.420  11.850  0.1664 -0.1489  0.1253
 6596W        W20010   2.656   4.685   1.222  0.0909  0.2324 -0.0120
 6597W        W20011   4.786  12.627   3.336 -0.2205 -0.1617 -0.2091
 6598W        W20012   8.878  17.878  13.556  0.0375  0.1723 -0.1753
 6599W        W20013  12.175   3.674  13.432 -0.2409  0.0021 -0.0654
 6600W        W20014  15.392   9.126   2.927 -0.1327 -0.0351 -0.1053
 6601W        W20015   8.469  16.683   1.649  0.0255  0.1007  0.0367
 6602W        W20016  18.296   5.766  10.897 -0.1790  0.0944 -0.2338
 6603W        W20017   5.632   3.914   2.435  0.1717 -0.0436 -0.0452
 6604W        W20018   3.734  15.955  11.464 -0.0288  0.1885 -0.5087
 6605W        W20019  14.295  16.190  15.903  0.3593  0.2678  0.1140
 6606W        W20020   0.615  13.303   0.663  0.1326 -0.0978  0.1867
 6607W        W20021   5.619   5.767   5.396  0.1624  0.1341 -0.0899
 6608W        W20022   1.178   7.885  14.269  0.0348  0.0421 -0.0280
 6609W        W20023  10.141  12.437  14.392 -0.0988  0.2845 -0.3107
 6610W        W20024  10.059   7.145   5.669  0.0538 -0.1373  0.3889
 6611W        W20025   3.323   7.213  11.939  0.2063  0.0723  0.0755
 6612W        W20026   9.389   0.193   0.565 -0.0976 -0.0087  0.2088
 6613W        W20027   7.312  15.757  15.491 -0.1457  0.2727 -0.1179
 6614W        W20028   2.972  15.876  15.525  0.0690  0.1391  0.0324
 6615W        W20029  11.320   7.338   4.408  0.0818  0.1893  0.1655
 6616W        W20030   2.167   3.926  14.913 -0.3934 -0.0381 -0.1130
 6617W        W20031  12.966  14.735   3.526 -0.0018  0.0601 -0.0697
 6618W        W20032  15.050  11.762   3.010 -0.2081 -0.2684 -0.4849
 6619W        W20033   8.349   5.093  13.800 -0.0327 -0.2261 -0.0221
 6620W        W20034  15.987   9.660   1.329 -0.1949 -0.0178  0.0801
 6621W        W20035   3.692   0.245   3.731  0.1081 -0.0166  0.1363
 6622W        W20036  12.674  15.306   2.131  0.0327 -0.0001 -0.0047
 6623W        W20037   1.242  13.691   4.325 -0.1608  0.0737 -0.0757
 6624W        W20038  10.533   2.866   3.888 -0.3262  0.1264 -0.2275
 6625W        W20039   4.432   5.912   1.106  0.1790 -0.0134 -0.2010
 6626W        W20040  14.947   5.198  13.378 -0.2431  0.2943 -0.5305
 6627W        W20041   9.687   9.916  12.884 -0.1393  0.1525  0.0251
 6628W        W20042   9.632   0.453  11.703 -0.0276 -0.1157  0.0181
 6629W        W20043   1.665  15.772  14.288  0.1997 -0.0352  0.0098
 6630W        W20044   1.585   5.221   0.462  0.0259 -0.1451 -0.0415
 6631W        W20045   6.603  14.868  10.664 -0.0342 -0.0221  0.2195
 6632W        W20046  13.229  12.011   3.136  0.0828  0.2211 -0.0626
 6633W        W20047   5.072   8.102   1.769 -0.1271  0.0667  0.3345
 6634W        W20048   6.831   4.707  13.441 -0.0622  0.1465  0.2823
 6635W        W20049  13.321   1.930   4.682 -0.2306  0.0163  0.0533
 6636W        W20050  17.949   0.418  11.899 -0.0369 -0.0186 -0.1166
 6637W        W20051   0.059   5.054  16.193 -0.2410  0.2712 -0.0326
 6638W        W20052   9.893  14.403   2.973 -0.0196 -0.0297 -0.1581
 6639W        W20053  10.393  14.012   5.019  0.1033  0.1598  0.0129
 6640W        W20054  16.564   8.719  14.998 -0.0253 -0.1205  0.1607
 6641W        W20055   0.778  11.526   3.858 -0.3837  0.0232 -0.2967
 6642W        W20056   9.087   2.591  13.821 -0.1095  0.0736  0.0693
 6643W        W20057  15.612   1.063  11.446  0.0570 -0.2731 -0.2985
 6644W        W20058  13.520  17.946  14.020  0.0286  0.0660  0.2650
 6645W        W20059   2.490  16.334   4.974  0.3034  0.1560  0.0527
 6646W        W20060   8.736  11.562   2.324 -0.1472  0.1697 -0.2505
 6647W        W20061   1.425   8.715  13.188 -0.1071  0.0103  0.2535
 6648W        W20062   0.748   6.926   9.807 -0.2230 -0.1764  0.0124
 6649W        W20063   4.420   4.136  15.347 -0.0096  0.0443 -0.2112
 6650W        W20064   0.085  15.740   5.108  0.1793 -0.1340  0.1785
 6651W        W20065   1.186   6.889   5.408  0.3223 -0.0546  0.1308
 6652W        W20066  11.790   0.699   9.867  0.0438 -0.5114 -0.3239
 6653W        W20067   0.946   6.348  13.620  0.1747 -0.0377  0.2627
 6654W        W20068  18.500  16.877   0.777 -0.2748 -0.5621 -0.0316
 6655W        W20069   8.136  13.734   1.927  0.1135  0.0004 -0.0119
 6656W        W20070   5.902   7.722  12.547  0.1926 -0.3357 -0.0475
 6657W        W20071  14.964  12.497  11.550 -0.1732  0.1737 -0.0323
 6658W        W20072  12.488  16.666   2.942  0.2622  0.0640 -0.0558
 6659W        W20073   1.476   9.172   4.605  0.1179  0.0854  0.2667
 6660W        W20074   2.323   8.282   5.248 -0.1645  0.2652  0.0100
 6661W        W20075  16.086  14.193   1.067  0.1759  0.0112 -0.1051
 6662W        W20076   7.800  15.368  14.416  0.0991  0.2623  0.0217
 6663W        W20077   7.365   0.092  14.957 -0.1142 -0.1249 -0.0983
 6664W        W20078   9.904  12.626   1.045  0.0426 -0.3849 -0.0627
 6665W        W20079   0.504  15.852   2.662  0.0832 -0.1213 -0.2082
 6666W        W20080   3.570   6.371  12.024  0.0301 -0.0640  0.1653
 6667W        W20081  16.731  17.639   5.171 -0.0599 -0.3658 -0.3300
 6668W        W20082   7.986  11.765  14.304  0.2275 -0.2549  0.0329
 6669W        W20083   7.453  13.050  15.348 -0.1166  0.3376  0.1028
 6670W        W20084  10.661   9.596   2.234 -0.1733 -0.1502  0.2715
 6671W        W20085   9.536  14.282  13.386  0.0679  0.0351  0.0017
 6672W        W20086  11.078   6.115  11.099 -0.0075 -0.1482  0.1133
 6673W        W20087   6.847   4.740   0.383 -0.1394 -0.2089 -0.0524
 6674W        W20088  15.283  11.773   0.325 -0.0533 -0.0998 -0.1412
 6675W        W20089   1.515   8.549  12.607 -0.0846 -0.1687 -0.1343
 6676W        W20090   0.164   9.068  14.445 -0.0786  0.4414  0.0700
 6677W        W20091  18.060  15.013  15.994  0.0701  0.1374 -0.4740
 6678W        W20092   7.362   2.826   1.165 -0.1392 -0.0777  0.0517
 6679W        W20093   6.569   8.142  15.489  0.0393 -0.1028  0.0173
 6680W        W20094  17.731  17.833   0.905  0.0172  0.1991 -0.0137
 6681W        W20095   8.049   0.339   0.296 -0.1348  0.0402 -0.0938
 6682W        W20096   3.978   1.969   0.426  0.1912  0.1241 -0.1238
 6683W        W20097   6.960  15.076  11.533 -0.1555 -0.1539 -0.0205
 6684W        W20098   3.069   4.070  15.649  0.1262  0.2647 -0.0703
 6685W        W20099  16.723   2.037  12.218  0.0474 -0.1045  0.0404
 6686W        W20100   0.104  12.983  11.512  0.2593  0.1311  0.2980
 6687W        W20101   9.672  10.454   2.745  0.1294  0.0661  0.3009
 6688W        W20102  12.962   8.259  13.192 -0.0815 -0.0870  0.1029
 6689W        W20103   2.244   2.500  12.419  0.0780 -0.1653 -0.0553
 6690W        W20104   4.128  17.482  14.249 -0.1632  0.0804 -0.0048
 6691W        W20105   2.483  14.495   3.179  0.2927  0.2495 -0.0499
 6692W        W20106  15.094   9.073  16.022 -0.0196  0.0257 -0.0008
 6693W        W20107  15.324  14.272   2.946 -0.2351  0.0476 -0.0658
 6694W        W20108  16.902  11.874   1.269  0.0400  0.1078 -0.2936
 6695W        W20109  11.195   8.819  12.783 -0.0829  0.0877  0.0584
 6696W        W20110   4.063  14.692  10.572  0.0522 -0.0420 -0.6137
 6697W        W20111  15.121  15.859   4.440  0.1751 -0.0527  0.1054
 6698W        W20112  12.192  14.553  15.450  0.4043 -0.0991 -0.0193
 6699W        W20113  12.199   7.256   4.961 -0.2843  0.2515 -0.0816
 6700W        W20114  13.115   6.727  14.629 -0.2773 -0.1006 -0.4455
 6701W        W20115  14.181   9.900   4.255 -0.1560 -0.0741 -0.1638
 6702W        W20116   5.538  11.708  12.336 -0.1427  0.3105 -0.0256
 6703W        W20117   8.109   7.989   5.547  0.1267  0.1516 -0.1511
 6704W        W20118   5.412  18.518   4.061 -0.2048  0.1492  0.0686
 6705W        W20119  16.153  18.511  15.924 -0.0918 -0.2593  0.0668
 6706W        W20120  10.274   5.902   0.031 -0.0219  0.2075  0.0020
 6707W        W20121   8.089   0.115   0.780 -0.3310 -0.1373 -0.0208
 6708W        W20122   7.119  10.284  13.730 -0.2549 -0.1473 -0.1258
 6709W        W20123  17.590  17.004   3.529  0.1156  0.1955  0.0968
 6710W        W20124   6.713  16.969  13.387 -0.1175 -0.0536  0.1453
 6711W        W20125  16.148   5.285  12.525 -0.1558 -0.2262  0.0206
 6712W        W20126   8.304   9.939   3.306 -0.2492  0.0566 -0.0634
 6713W        W20127   1.029  10.254   2.682 -0.2368  0.1052 -0.0246
 6714W        W20128  10.604  11.590  16.204 -0.1204  0.0292  0.1594
 6715W        W20129  14.524   0.626   3.152 -0.1826 -0.1145 -0.2341
 6716W        W20130  11.926   8.081  10.975  0.2826 -0.4692 -0.0444
 6717W        W20131  14.679  16.343  15.565  0.0531  0.0777  0.0101
 6718W        W20132   4.060  16.354  11.228  0.1788  0.2496 -0.0733
 6719W        W20133  12.490  14.525   5.173 -0.3064 -0.1160  0.1197
 6720W        W20134  14.856   8.106  12.914  0.0516 -0.1046  0.0272
 6721W        W20135  12.138   5.433  13.802  0.0174 -0.1129 -0.2025
 6722W        W20136   2.163  15.177   5.192 -0.1056 -0.0135  0.1417
 6723W        W20137   7.527  11.655  12.074 -0.0750  0.1146 -0.1339
 6724W        W20138  14.584   8.400   5.230  0.2816  0.0309 -0.2974
 6725W        W20139   3.179   3.936  11.246 -0.2628 -0.1980  0.0351
 6726W        W20140  16.932  17.848   4.770  0.4181  0.0580 -0.1122
 6727W        W20141  16.995   9.077   2.899 -0.1645 -0.2811  0.1817
 6728W        W20142   7.615   1.781   3.609 -0.2274 -0.0077  0.0339
 6729W        W20143   2.838   8.753  15.646 -0.1804 -0.3347 -0.0300
 6730W        W20144   5.172  13.197   2.631 -0.0800  0.0542 -0.0447
 6731W        W20145  14.877   3.316  11.305 -0.1188  0.1505  0.1207
 6732W        W20146   6.745  15.379   0.502 -0.1847  0.1432 -0.3445
 6733W        W20147   6.197   4.150   5.467  0.3637 -0.3375 -0.0767
 6734W        W20148   6.515   6.088   3.374 -0.1156  0.0298  0.0520
 6735W        W20149  11.617   2.938  12.237  0.1499 -0.1781  0.0825
 6736W        W20150  14.893   1.201  15.256 -0.1543  0.2280  0.1198
 6737W        W20151   6.780  17.286  11.465  0.1640 -0.1431 -0.0361
 6738W        W20152   9.292  15.201  10.855 -0.0510 -0.1868  0.0765
 6739W        W20153   2.310  13.568   5.429 -0.0031 -0.0907  0.1260
 6740W        W20154  11.142  18.269   4.407  0.4652  0.0465  0.1604
 6741W        W20155   1.506  11.906  15.400 -0.0078  0.1176  0.0634
 6742W        W20156   1.971  14.489   0.151  0.0382 -0.1153  0.1329
 6743W        W20157  10.043  10.752  12.286 -0.1812 -0.2214 -0.1069
 6744W        W20158   3.646   9.834  14.264 -0.0694  0.0471 -0.1019
 6745W        W20159   6.948  16.803  11.299  0.1764 -0.0072 -0.0504
 6746W        W20160   7.790  13.773   2.908 -0.0978 -0.2294 -0.1366
 6747W        W20161  16.635  11.388   1.939  0.2769  0.0891  0.0151
 6748W        W20162   1.349  15.674   0.812 -0.1575  0.0125  0.1309
 6749W        W20163   2.121  15.945  14.195  0.3396 -0.1063  0.1975
 6750W        W20164   5.095   8.486   4.443 -0.2173 -0.0981  0.1422
 6751W        W20165   4.250  13.460  14.525  0.2729 -0.3105  0.0527
 6752W        W20166  12.431   1.590  15.036 -0.0728  0.1259  0.2984
 6753W        W20167  10.434  12.615  11.455 -0.1596  0.2892  0.0962
 6754W        W20168  13.764   6.190   5.110  0.1575  0.0525 -0.0144
 6755W        W20169  12.538   6.515   2.251 -0.1100 -0.0276 -0.4082
 6756W        W20170  12.037   5.112  12.957 -0.0878  0.2744 -0.1845
 6757W        W20171   8.869  13.148   3.113 -0.0529  0.0112  0.1973
 6758W        W20172   4.190   5.721   9.947 -0.3026  0.3019 -0.1797
 6759W        W20173   4.612  13.415  12.807  0.0686  0.4637  0.0712
 6760W        W20174   0.502   3.539   1.371  0.0267 -0.1840  0.2490
 6761W        W20175   5.741   2.338  14.516  0.2346 -0.0666 -0.0181
 6762W        W20176   2.003  17.543   1.542 -0.1427 -0.2845  0.3622
 6763W        W20177   7.911  10.504   0.533 -0.0032 -0.1558  0.3701
 6764W        W20178  14.247   7.160   3.286  0.0177 -0.0627 -0.3337
 6765W        W20179   8.634   7.192  14.543 -0.4172 -0.1537  0.4853
 6766W        W20180  13.308  15.702  14.221 -0.1142 -0.0120  0.0032
 6767W        W20181   7.845   0.945  15.917  0.3393 -0.2151 -0.1112
 6768W        W20182   6.222  12.873   5.711 -0.2004 -0.2878  0.1417
 6769W        W20183  10.811   7.444  14.180 -0.1849  0.0706  0.2756
 6770W        W20184   4.188   3.940   2.948 -0.2143  0.1411 -0.2033
 6771W        W20185   4.771   1.125   4.862 -0.2660  0.3109  0.1797
 6772W        W20186   8.245  16.783  11.179  0.1375  0.2462 -0.0352
 6773W        W20187   0.011  10.563   1.468 -0.1310 -0.0618 -0.1396
 6774W        W20188   0.011   2.973  13.801 -0.0678  0.0038  0.1441
 6775W        W20189  15.898   9.321  11.409  0.1181 -0.1060 -0.0093
 6776W        W20190  14.564   0.128   3.963 -0.0402 -0.0901  0.3420
 6777W        W20191  11.215  11.087  12.206  0.0242 -0.0763  0.1307
 6778W        W20192   7.013  10.612  12.046  0.1404  0.0321  0.1583
 6779W        W20193   7.319   3.835  11.433  0.0969 -0.0972  0.1104
 6780W        W20194  17.194   9.108   3.361 -0.1872  0.2429  0.0477
 6781W        W20195   9.357   1.192   6.261  0.2381  0.1104 -0.2008
 6782W        W20196  12.335  13.323  12.040 -0.0142 -0.2200  0.5713
 6783W        W20197  14.039  13.840   4.318  0.2634 -0.0881  0.0281
 6784W        W20198   3.080  12.032  14.424 -0.1766 -0.3670 -0.1558
 6785W        W20199   7.927  16.215   3.046 -0.2759 -0.0374  0.1993
 6786W        W20200  12.780  17.056   4.532  0.1292  0.0772 -0.0009
 6787W        W20201  15.725  14.336  13.744  0.1168  0.2431 -0.1306
 6788W        W20202   2.310  13.994   2.422  0.3162  0.0185 -0.0123
 6789W        W20203   3.016  13.902   4.149  0.2028  0.0068  0.1806
 6790W        W20204  16.926   1.288  16.191  0.1062  0.1191 -0.0210
 6791W        W20205   7.819   3.533  13.149  0.0798 -0.1577 -0.1225
 6792W        W20206   9.533   5.693   3.826 -0.1612 -0.1345  0.3080
 6793W        W20207  13.913   2.222   3.058  0.1637 -0.2144 -0.3324
 6794W        W20208   1.881  14.936  14.284  0.2556  0.1648 -0.0737
 6795W        W20209   6.922  15.901   1.541  0.0444 -0.1602 -0.1451
 6796W        W20210  13.845   6.325  10.774 -0.0288  0.2279  0.0275
 6797W        W20211   7.337  12.914   5.133  0.2421  0.1602 -0.2363
 6798W        W20212   3.314   6.313   4.768 -0.2847 -0.0064 -0.2023
 6799W        W20213  13.317  17.860  10.606 -0.2101  0.0996  0.1564
 6800W        W20214   6.937   5.693   9.737 -0.2807 -0.2942 -0.2276
 6801W        W20215  12.259  12.958  14.060 -0.1220  0.1603 -0.0394
 6802W        W20216  10.430   4.990   2.999 -0.2711  0.2065  0.3194
 6803W        W20217  12.094   9.045   3.315 -0.1608 -0.0359 -0.1227
 6804W        W20218   5.755   9.771   5.173 -0.0232  0.1833 -0.0758
 6805W        W20219   0.288   8.531  10.738 -0.0757  0.1112  0.1953
 6806W        W20220   0.128   3.930  12.041 -0.3424 -0.4847  0.5055
 6807W        W20221   0.084   1.820   1.310  0.1640 -0.0516  0.1590
 6808W        W20222   9.525   1.292  10.566  0.0015  0.1708 -0.2371
 6809W        W20223   9.041   8.183   0.354 -0.0439  0.2008 -0.1042
 6810W        W20224   4.480  14.304   3.942  0.3029  0.2556  0.1878
 6811W        W20225  12.238   9.764   1.202 -0.2642 -0.0049  0.1989
 6812W        W20226  12.866   8.471   3.930  0.1493 -0.1222 -0.0826
 6813W        W20227   7.350   3.513  10.023  0.0859  0.1135  0.1125
 6814W        W20228  11.631  15.940   4.819 -0.0203 -0.1439  0.2037
 6815W        W20229   7.674  16.331   1.423  0.0392 -0.1862  0.0553
 6816W        W20230   9.049  11.435  11.217  0.0565 -0.1962 -0.0516
 6817W        W20231  12.019   0.105   0.075  0.3997  0.0648 -0.0330
 6818W        W20232  16.851   5.707   1.283 -0.1727 -0.0122 -0.2299
 6819W        W20233  16.815  15.473   0.451  0.0885  0.1167 -0.2895
 6820W        W20234  17.223   9.778   5.578 -0.3012  0.0900  0.1809
 6821W        W20235   0.607   4.054   0.097 -0.2616 -0.2940 -0.2757
 6822W        W20236  12.002   8.389   2.723  0.2408 -0.2297 -0.0080
 6823W        W20237   5.930   6.539   3.875 -0.0490 -0.0688  0.2252
 6824W        W20238  16.384  15.053   0.079  0.1158 -0.0256 -0.0841
 6825W        W20239  17.049  11.481   0.208 -0.0269  0.5953  0.1784
 6826W        W20240   8.415   8.693  14.287 -0.3166  0.1097 -0.3130
 6827W        W20241   4.172   5.625   3.175  0.6463 -0.0647  0.0846
 6828W        W20242   0.250   6.248  16.202 -0.3478 -0.0555 -0.1147
 6829W        W20243  10.965  12.622  14.024  0.1189 -0.1503 -0.1584
 6830W        W20244  12.582   6.858  14.498 -0.2091 -0.2662  0.2223
 6831W        W20245  14.708  11.288  15.208 -0.1262  0.0276 -0.3309
 6832W        W20246   1.292  17.806  12.798 -0.1237  0.0160  0.1257
 6833W        W20247   7.217   9.365  14.947 -0.3789  0.0568  0.0054
 6834W        W20248  15.635   3.729  12.769  0.1516 -0.0991  0.0888
 6835W        W20249   7.900   6.153  12.725 -0.0094 -0.1807 -0.1482
 6836W        W20250  10.167   2.900  13.684 -0.3572  0.0332 -0.1845
 6837W        W20251   6.358   4.683  14.307  0.1605 -0.1525 -0.0074
 6838W        W20252   5.259   2.093  12.971  0.0491 -0.2185  0.0265
 6839W        W20253  18.485   2.573   2.454 -0.0654  0.1094 -0.1430
 6840W        W20254   7.814   1.801  12.157 -0.1228  0.0927 -0.0998
 6841W        W20255   7.711   8.236  11.455 -0.1079  0.1487 -0.3092
 6842W        W20256  17.852   9.461  14.499 -0.1739  0.3293  0.1039
 6843W        W20257  16.370  13.487  13.662 -0.1648  0.1396 -0.0596
 6844W        W20258   5.074  16.826  12.765  0.0809 -0.1546 -0.2649
 6845W        W20259   3.525  16.043   0.819 -0.2963 -0.2086  0.0996
 6846W        W20260   2.204   1.144   4.607 -0.0146 -0.3502  0.1067
 6847W        W20261   8.848  17.183   9.294  0.0170 -0.2983 -0.0201
 6848W        W20262  14.100  12.953  14.444  0.2193  0.0249 -0.1154
 6849W        W20263  17.435  17.401  13.976 -0.0658 -0.1860  0.1852
 6850W        W20264   5.071   7.039  15.638 -0.0148 -0.2632 -0.1892
 6851W        W20265   2.646  17.603   2.951 -0.1892 -0.2826 -0.1777
 6852W        W20266  14.799  17.757  15.065 -0.0446  0.0342 -0.0971
 6853W        W20267   9.300  18.388   4.669  0.1547 -0.1072 -0.0343
 6854W        W20268   9.395  15.541  12.316 -0.0155  0.0997  0.0984
 6855W        W20269  10.815  17.108  13.139 -0.2872  0.0387 -0.1349
 6856W        W20270   3.628  16.285  14.402 -0.0794  0.4421 -0.0878
 6857W        W20271  10.768   1.097  16.269  0.1218 -0.0345 -0.2108
 6858W        W20272  18.495  15.630  13.299  0.1563  0.1306 -0.1358
 6859W        W20273   7.426  14.979   1.349  0.0348  0.3170 -0.2223
 6860W        W20274  18.230  10.733  14.723 -0.1676 -0.0258 -0.2012
 6861W        W20275  18.324  16.694  10.750 -0.1444  0.1839 -0.0373
 6862W        W20276   5.940  16.237   2.647 -0.0463  0.0889 -0.0190
 6863W        W20277  15.278  11.829   5.884 -0.0632 -0.2434 -0.1417
 6864W        W20278  10.206   3.175  14.592  0.2511  0.1519 -0.1277
 6865W        W20279   6.874   1.858  11.126  0.2710  0.1108  0.0395
 6866W        W20280  12.269   6.352  14.648  0.0383  0.0011  0.1176
 6867W        W20281   0.161   2.878   3.789  0.2117  0.1416 -0.2511
 6868W        W20282  14.606   1.476  13.651 -0.1390 -0.2334 -0.1599
 6869W        W20283   1.262  10.650   5.905 -0.1009  0.1290  0.1451
 6870W        W20284   8.714   4.790   4.494 -0.0681  0.3624  0.2152
 6871W        W20285  13.688  15.239   4.760 -0.2785 -0.1736 -0.0108
 6872W        W20286  11.436  18.452   5.363  0.0106 -0.0383 -0.3126
 6873W        W20287   8.725   3.462   5.176  0.3506 -0.0321  0.1552
 6874W        W20288  13.204  16.000   3.925 -0.0259  0.2326 -0.0243
 6875W        W20289   2.579  12.882   1.101  0.1782 -0.1593  0.1481
 6876W        W20290  17.413   0.330  13.430  0.1596 -0.2174 -0.0597
 6877W        W20291  10.070  12.384  15.097  0.2500 -0.1880  0.1716
 6878W        W20292  11.374   1.760  10.868 -0.2323 -0.1670 -0.0859
 6879W        W20293   5.568  10.873   3.836 -0.0952 -0.0766 -0.1733
 6880W        W20294   4.003   7.629   4.321  0.3575  0.0196 -0.0787
 6881W        W20295   4.494   4.808   1.809  0.1510  0.4253 -0.0408
 6882W        W20296   8.849   0.060  11.535  0.2343 -0.1844 -0.1801
 6883W        W20297   9.680  13.171   4.940 -0.0944  0.3355  0.0548
 6884W        W20298   9.601   5.558   2.763 -0.1578  0.1899 -0.1877
 6885W        W20299   2.007  10.423   1.663  0.0305 -0.0039  0.2479
 6886W        W20300  17.692  13.401  11.378  0.2746  0.0820 -0.3142
 6887W        W20301  14.289  16.044  10.548  0.0668  0.0262  0.2072
 6888W        W20302  15.638   9.239   5.701  0.2397  0.2437  0.0319
 6889W        W20303   7.321   4.889   2.860 -0.0067 -0.3668  0.3638
 6890W        W20304   0.269  16.505  13.813  0.2448  0.3271 -0.0148
 6891W        W20305   6.683   2.793   0.551 -0.5055 -0.1466  0.1044
 6892W        W20306  15.552   7.053  10.973 -0.3898  0.4346 -0.1207
 6893W        W20307   9.745  15.305   3.716 -0.3286  0.1222  0.1891
 6894W        W20308   7.392   2.832   5.091  0.0348 -0.1881  0.3209
 6895W        W20309  14.661  12.398   6.228  0.1585  0.0216  0.1210
 6896W        W20310  12.857   4.678   4.446  0.1272 -0.0391  0.1407
 6897W        W20311   7.681   2.120   0.320 -0.0196  0.0623  0.1272
 6898W        W20312  13.722  13.321  11.594 -0.0393 -0.1499 -0.0647
 6899W        W20313   7.062   9.950  14.234  0.1810 -0.0380 -0.0572
 6900W        W20314   5.701  17.977  11.307 -0.0380  0.2410 -0.0671
 6901W        W20315  16.309   2.462  16.075  0.1155  0.0303  0.1055
 6902W        W20316   5.987   3.384   3.990 -0.1479  0.0319 -0.1334
 6903W        W20317   6.451  11.287   0.943 -0.2440 -0.0439 -0.0670
 6904W        W20318  13.039   5.704  10.527  0.3277 -0.0055 -0.2215
 6905W        W20319  17.796   8.955   4.394  0.1155 -0.3421 -0.1332
 6906W        W20320  17.333   7.760  15.171  0.0875 -0.1927  0.1249
 6907W        W20321  15.786   3.709  15.188  0.0896  0.1541 -0.0389
 6908W        W20322  15.591   1.501   4.301  0.2244 -0.0605  0.1812
 6909W        W20323   1.553  10.459   1.452  0.1123  0.0769  0.2981
 6910W        W20324   9.547  10.551   1.467 -0.1004 -0.2354  0.2014
 6911W        W20325  16.182  13.067   2.587  0.0020 -0.0963  0.1940
 6912W        W20326   4.174   9.714   3.762 -0.0444  0.2984  0.1797
 6913W        W20327   0.077   2.431  13.324  0.0321  0.2428  0.2664
 6914W        W20328   9.278  10.246  10.788  0.1086  0.3528 -0.0520
 6915W        W20329  16.037  11.441   3.770 -0.0457  0.1645 -0.0628
 6916W        W20330   1.387  18.159   5.255  0.3937  0.0168 -0.0369
 6917W        W20331   9.303   8.034  16.084  0.1306 -0.0595 -0.0493
 6918W        W20332  11.674   4.020   5.442 -0.0904  0.0576  0.3720
 6919W        W20333  18.454  17.686  13.302 -0.2730  0.2203 -0.0261
 6920W        W20334  17.076   0.088  12.024 -0.0912  0.0830 -0.1028
 6921W        W20335   3.900  17.855   4.144 -0.0376  0.1265 -0.1396
 6922W        W20336  17.442   5.927   5.494 -0.0042 -0.2873  0.1812
 6923W        W20337   2.681   1.091   2.970  0.3392 -0.2931 -0.0241
 6924W        W20338   2.909  12.179  12.515 -0.1621  0.2614  0.1241
 6925W        W20339   4.892   6.805  11.616 -0.0682  0.0356  0.1596
 6926W        W20340   7.688   4.474   3.661  0.1941 -0.2812 -0.1116
 6927W        W20341   6.702  15.544   5.204  0.1724  0.1848  0.0493
 6928W        W20342   2.854  14.189  14.221  0.5015 -0.0306 -0.0161
 6929W        W20343   7.057   0.589  12.006  0.1194  0.1921  0.1449
 6930W        W20344  17.918  14.763   5.287 -0.0844  0.0092 -0.1058
 6931W        W20345   0.359   9.391   4.551  0.0618  0.1934  0.3184
 6932W        W20346   2.185  15.443  11.343 -0.3804  0.2604  0.2440
 6933W        W20347   8.397   3.747   5.471 -0.1661  0.0013  0.2213
 6934W        W20348   6.599   7.936  15.002 -0.2152  0.1565 -0.2628
 6935W        W20349   2.072  18.466   0.992  0.0529  0.1762 -0.0583
 6936W        W20350  10.376   9.013  16.118  0.1207  0.0734 -0.1918
 6937W        W20351   3.096   4.086   4.347  0.1294 -0.0370 -0.0491
 6938W        W20352  12.164  11.170  16.168 -0.2326  0.2548 -0.1635
 6939W        W20353   1.380  15.005   2.713 -0.0493  0.3509  0.0640
 6940W        W20354   5.614  15.841   0.802  0.0148 -0.1354  0.0519
 6941W        W20355   6.867   4.109  16.085 -0.0365  0.2629 -0.0334
 6942W        W20356  12.646  13.668   0.406  0.0631 -0.1260 -0.0945
 6943W        W20357  15.848   8.247   0.267 -0.0256 -0.1905 -0.1025
 6944W        W20358   1.580  13.330   2.068 -0.1773  0.0790  0.1718
 6945W        W20359  18.090  18.389   5.751  0.3456 -0.2412  0.0030
 6946W        W20360   1.514   8.267   2.608  0.0175  0.3105  0.0822
 6947W        W20361  15.302   2.177  15.067  0.1221  0.0962  0.1295
 6948W        W20362  13.466  10.049  13.270  0.1468  0.1218  0.1763
 6949W        W20363   5.582  13.235   3.362  0.0749 -0.1454  0.3072
 6950W        W20364  12.638  10.015  11.943  0.0598  0.0320  0.0251
 6951W        W20365  16.000   5.624  12.870  0.0266 -0.0492 -0.2454
 6952W        W20366  13.232   8.808  13.245 -0.1431 -0.1120  0.2710
 6953W        W20367   7.290   5.424   3.420  0.0621 -0.2232  0.0496
 6954W        W20368   6.878   6.725  11.087  0.2901 -0.4048  0.0170
 6955W        W20369   3.386   8.601  15.032 -0.2019 -0.2580 -0.0650
 6956W        W20370   3.492   1.937  15.262  0.1301 -0.0660  0.1725
 6957W        W20371  15.172   7.352   1.622  0.2268  0.1488  0.2246
 6958W        W20372   7.408  10.644  14.804 -0.1709  0.1361  0.2442
 6959W        W20373   0.005  16.716   3.548  0.2564  0.0904 -0.0734
 6960W        W20374  15.508   7.168  12.168  0.1242  0.0418  0.0329
 6961W        W20375  10.724   3.281   3.944 -0.2600  0.0562  0.0224
 6962W        W20376   5.642   3.429   1.504  0.2124 -0.0457  0.1448
 6963W        W20377   7.580  17.897   5.085  0.1656  0.0929  0.0521
 6964W        W20378  13.400   8.266   2.168  0.3312  0.2291 -0.2889
 6965W        W20379   2.499   4.354  11.878 -0.2233 -0.2470  0.3423
 6966W        W20380  15.796   4.981   3.477 -0.0140 -0.1650  0.0559
 6967W        W20381  17.038  16.647   9.870  0.1592 -0.0546 -0.1235
 6968W        W20382   1.647   6.059  12.738  0.0667  0.0641  0.3068
 6969W        W20383   2.992   8.629   5.356  0.1439 -0.1005 -0.2023
 6970W        W20384  13.462   8.217  13.100 -0.2099  0.1025 -0.1652
 6971W        W20385  11.082   4.676   0.325  0.0563 -0.1072 -0.1561
 6972W        W20386   0.991  12.482  12.111 -0.0332  0.1977 -0.2012
 6973W        W20387   0.220   8.420  13.771 -0.2115 -0.0920  0.0068
 6974W        W20388   4.426  15.749   5.454  0.1629  0.1358  0.0857
 6975W        W20389  13.115   4.844  14.709  0.3382 -0.0903 -0.0493
 6976W        W20390  10.970  14.215   5.368 -0.2333 -0.1199 -0.1845
 6977W        W20391  18.220  16.514  12.916 -0.1706  0.1105 -0.2597
 6978W        W20392   9.162  15.010   3.106 -0.2333 -0.2003 -0.2527
 6979W        W20393   2.972   9.190  11.188  0.3032 -0.3300 -0.2017
 6980W        W20394   7.058  17.799   4.833  0.1331  0.0984  0.2357
 6981W        W20395  15.831   2.111   5.428 -0.0492 -0.3138 -0.0790
 6982W        W20396  13.969  15.404  13.267 -0.2904  0.0890  0.2807
 6983W        W20397   5.295   9.208  15.400  0.0723 -0.0191 -0.3639
 6984W        W20398   4.996  13.333  14.989  0.2887  0.1035 -0.0251
 6985W        W20399  15.801   0.359   1.874  0.0766  0.1098  0.0596
 6986W        W20400  15.921   1.238   1.880 -0.1983  0.0986 -0.0556
 6987W        W20401   8.738  10.740  13.761 -0.1515 -0.3683 -0.2571
 6988W        W20402  11.909  17.187   2.454 -0.2364  0.0270 -0.3282
 6989W        W20403  17.896  16.796  12.575 -0.1071  0.2861 -0.1827
 6990W        W20404  17.810   1.284   0.135 -0.1407  0.0312  0.2958
 6991W        W20405  16.287   0.489  10.902  0.0011  0.2553  0.2110
 6992W        W20406  11.600   3.458   2.255 -0.3278 -0.0365  0.0143
 6993W        W20407   5.006  17.856  11.364  0.0396  0.0311  0.0607
 6994W        W20408   2.411   9.868  10.029  0.2162  0.0937 -0.1556
 6995W        W20409   6.642  12.043  12.036 -0.2332 -0.0334  0.0825
 6996W        W20410  12.544   0.493   0.188 -0.1514  0.1746 -0.1198
 6997W        W20411   4.101   9.615  16.180 -0.1902  0.2422  0.0906
 6998W        W20412   7.390  16.535  12.052 -0.0331 -0.1996 -0.3841
 6999W        W20413  12.350  12.569   0.174 -0.1768 -0.0467 -0.0337
 7000W        W20414  17.942   8.379  15.324 -0.0840  0.1316  0.3477
 7001W        W20415  14.707   3.060   3.510 -0.0026 -0.2895 -0.0740
 7002W        W20416  15.550   8.153  13.347 -0.0901 -0.1303  0.0133
 7003W        W20417   6.783   5.269   4.773  0.0567 -0.0785  0.3491
 7004W        W20418   6.469  10.897  12.028  0.0527 -0.1494  0.3619
 7005W        W20419   1.631   2.548  13.809 -0.1400  0.2065 -0.0692
 7006W        W20420   6.021  10.206  10.710 -0.0199  0.0041 -0.0147
 7007W        W20421  14.690  15.858  13.667  0.1570 -0.2594 -0.1192
 7008W        W20422   1.108   0.374  13.317  0.0644  0.0199 -0.3706
 7009W        W20423  12.454  13.909   2.525  0.2567 -0.1950 -0.1594
 7010W        W20424  10.047  14.313  11.733  0.0728  0.2562 -0.0430
 7011W        W20425  15.864  17.020   2.329 -0.0976 -0.1640 -0.2054
 7012W        W20426   0.217  15.552   3.995  0.0618 -0.2887  0.1034
 7013W        W20427  16.500  11.663   3.858  0.0363  0.1204  0.1422
 7014W        W20428  11.612  16.603  16.022 -0.1769 -0.1456 -0.0844
 7015W        W20429  16.350   8.189   3.708 -0.0485  0.0858 -0.5018
 7016W        W20430  15.484   0.565   2.236  0.0794 -0.2989 -0.0474
 7017W        W20431   4.198  12.288   3.754  0.2397 -0.2967  0.0026
 7018W        W20432  14.754   1.216  12.663 -0.0282 -0.0909 -0.5345
 7019W        W20433   8.269   4.155  14.388  0.2742 -0.2254  0.0205
 7020W        W20434  18.233  13.068   3.982 -0.1365 -0.0224  0.0351
 7021W        W20435   6.041   0.740  12.242 -0.3218  0.1281 -0.0595
 7022W        W20436  13.604   2.705   0.074  0.4486  0.2466 -0.1071
 7023W        W20437  13.019   7.694  14.400 -0.0166  0.2422  0.2280
 7024W        W20438  15.750   0.483  10.863  0.0610 -0.0996 -0.2844
 7025W        W20439  16.511   2.267  15.276 -0.0071  0.2321  0.0370
 7026W        W20440  13.609  12.310   3.360 -0.2215  0.1216  0.0334
 7027W        W20441   1.286  18.258  11.498 -0.5109 -0.2053  0.2932
 7028W        W20442  10.937  17.111   3.383  0.2944 -0.1231 -0.1345
 7029W        W20443  15.064  16.272   4.072  0.2218  0.1671 -0.0005
 7030W        W20444  14.419   1.678  14.130  0.0662  0.0814 -0.2511
 7031W        W20445   5.676   5.191  11.493  0.2005  0.0719 -0.1019
 7032W        W20446   8.246   6.314   2.143 -0.1891 -0.0822  0.0899
 7033W        W20447   2.722   5.052   2.545  0.2513  0.0450 -0.2452
 7034W        W20448   5.044  11.999   2.082 -0.1877 -0.2059 -0.1696
 7035W        W20449   6.394   7.582  10.674  0.4745  0.1076  0.3143
 7036W        W20450   2.716  16.320  14.958  0.0904  0.1326  0.1047
 7037W        W20451   5.423   7.857   0.028 -0.3887  0.1902  0.0193
 7038W        W20452  15.977   6.458  10.840  0.1976 -0.1076 -0.3268
 7039W        W20453  11.931  10.550  12.711  0.3280 -0.1067 -0.0391
 7040W        W20454   4.755  10.670   5.782 -0.2095  0.4551  0.1113
 7041W        W20455  17.277   1.260  12.806 -0.1737 -0.0667  0.2898
 7042W        W20456  12.367  14.781   4.686  0.1335  0.0624 -0.1019
 7043W        W20457   6.153   3.197  16.218  0.2004  0.0876  0.0743
 7044W        W20458   5.682   4.012   3.297  0.3869  0.0145  0.0858
 7045W        W20459  11.159  10.084  11.903 -0.1993 -0.1240  0.1855
 7046W        W20460   1.609  13.722   2.567  0.2815  0.1532 -0.1010
 7047W        W20461   4.109   9.623   2.080  0.0828 -0.3339  0.0135
 7048W        W20462  10.675  13.466  10.204 -0.0203 -0.1868 -0.0667
 7049W        W20463   1.057   7.552  15.270  0.1469  0.1576  0.0650
 7050W        W20464   6.278  13.029   0.610 -0.2067  0.0776 -0.3403
 7051W        W20465   6.559   1.776  12.422  0.1567  0.0660  0.0199
 7052W        W20466  16.679   3.849   2.078 -0.0008  0.0874  0.0168
 7053W        W20467  17.131   3.941  15.975 -0.1278  0.0369 -0.0766
 7054W        W20468   7.240  13.422  14.476 -0.1122  0.1802 -0.1038
 7055W        W20469   1.864   3.640   3.094  0.1699  0.0054 -0.0508
 7056W        W20470  12.779   2.958  14.699 -0.1164  0.0769  0.0674
 7057W        W20471  12.033   4.303   3.439 -0.1795  0.0076 -0.1985
 7058W        W20472   6.592   0.449   6.000  0.2793 -0.0370 -0.0121
 7059W        W20473  16.324  17.236   2.297 -0.0586 -0.1185 -0.0869
 7060W        W20474  10.840   0.580   3.564 -0.1164 -0.0229 -0.3898
 7061W        W20475  14.344  12.523   1.507  0.1375  0.0990  0.1153
 7062W        W20476  17.905   9.519  13.998 -0.0470 -0.2146 -0.1420
 7063W        W20477  11.416  15.976   3.450 -0.0133  0.1004 -0.0061
 7064W        W20478   3.771   1.485  15.315  0.3770  0.0617  0.1764
 7065W        W20479   4.159  18.417  14.618  0.0285  0.1192 -0.1092
 7066W        W20480  14.801   6.701  10.386  0.0993  0.1572  0.0506
 7067W        W20481   1.384  10.684   0.336 -0.0398  0.6122 -0.0156
 7068W        W20482   2.222   6.003  15.154  0.2121 -0.1871  0.2208
 7069W        W20483  16.233   1.113   4.818 -0.0550 -0.3644 -0.2815
 7070W        W20484  11.745  13.997  14.225 -0.4525 -0.2195  0.1655
 7071W        W20485  10.145  16.080   0.647  0.1539 -0.0390 -0.0951
 7072W        W20486   6.792   1.444  11.351 -0.1339 -0.2812  0.3680
 7073W        W20487   6.566  15.837   0.842 -0.2080  0.0159 -0.3126
 7074W        W20488   7.932   5.981   0.369 -0.1177  0.0641 -0.0549
 7075W        W20489   4.245   6.756   2.904 -0.1365 -0.1693 -0.1397
 7076W        W20490   7.210   3.312  14.235 -0.2961 -0.0808  0.1321
 7077W        W20491  12.882  13.739  14.490  0.0657 -0.1472  0.1392
 7078W        W20492  10.728  16.510   5.043  0.3154 -0.0905  0.1303
 7079W        W20493  12.036   5.187  10.911  0.3162  0.1428  0.1211
 7080W        W20494   3.924  14.017   4.004 -0.2744 -0.0464 -0.0215
 7081W        W20495   2.482   6.702   2.904  0.1074 -0.0629  0.2353
 7082W        W20496   4.310   0.507   4.568  0.1791  0.0832 -0.4092
 7083W        W20497  10.710   5.115   0.495  0.0568 -0.0426  0.0234
 7084W        W20498  18.484   4.977   2.499 -0.1238 -0.1673  0.1118
 7085W        W20499   6.014  10.744   5.828 -0.2244 -0.1515  0.1380
 7086W        W20500   9.974  16.695  16.102 -0.0158 -0.3012  0.4263
 7087W        W20501  12.312   0.285  15.494  0.2560  0.1922  0.2730
 7088W        W20502  13.880   9.701   5.532 -0.4069  0.0562  0.0071
 7089W        W20503   3.327  12.938  15.425 -0.0715  0.2380  0.1759
 7090W        W20504  15.651  16.831   0.794 -0.1146 -0.1296 -0.2249
 7091W        W20505  12.639  14.158   0.333 -0.1810 -0.1447 -0.0162
 7092W        W20506  11.614   8.835   3.412  0.0599 -0.3480 -0.0402
 7093W        W20507   8.823  17.055   9.857 -0.2844  0.0319 -0.0199
 7094W        W20508   2.551   9.615  15.395  0.0034  0.0088 -0.0462
 7095W        W20509  13.092  14.981   1.314 -0.0725  0.2384  0.2331
 7096W        W20510   2.509  11.267  10.757  0.1821  0.0812 -0.0099
 7097W        W20511  11.596  10.518  13.591  0.0315  0.1133 -0.2843
 7098W        W20512   2.276   6.031  14.238 -0.1010 -0.1773 -0.0717
 7099W        W20513  14.287   2.951  15.411 -0.0510  0.1169 -0.0860
 7100W        W20514  16.570   1.996   1.819  0.1389  0.0208  0.0221
 7101W        W20515  10.640  15.063   2.151  0.0925  0.2362 -0.1166
 7102W        W20516   0.606  15.163  11.192 -0.1293  0.1187 -0.2166
 7103W        W20517  13.150  18.291   3.718  0.0734  0.0651  0.1176
 7104W        W20518   8.704  15.519   1.625 -0.2115  0.1608  0.1418
 7105W        W20519   1.282   1.134  10.701 -0.1675  0.0368  0.0296
 7106W        W20520  18.119   4.041  15.149 -0.4442 -0.2933 -0.1198
 7107W        W20521   2.110  13.841   3.770 -0.0906 -0.4391  0.3103
 7108W        W20522  15.280  12.527  14.601  0.0624  0.1076  0.0748
 7109W        W20523   2.310  12.159  10.475  0.1145 -0.0739  0.1400
 7110W        W20524  11.025   8.156   1.411  0.0391 -0.0370  0.0217
 7111W        W20525  13.364  16.561  10.544  0.1402  0.0625 -0.1500
 7112W        W20526  11.628  15.451   0.629  0.0487  0.1470 -0.2884
 7113W        W20527   4.610   0.312  10.550  0.0250  0.1714 -0.0612
 7114W        W20528  13.257   2.189  12.329  0.0270 -0.4079  0.0555
 7115W        W20529   8.628   2.823  15.370  0.1158  0.0565 -0.0736
 7116W        W20530  18.407   9.067   5.339  0.1722  0.0321 -0.3610
 7117W        W20531   0.182   5.921   3.005 -0.1686 -0.1568 -0.2586
 7118W        W20532   2.304  15.411   3.186  0.3393  0.3082 -0.3245
 7119W        W20533   8.670   6.100  13.850  0.0009  0.2922  0.1232
 7120W        W20534  10.011  14.689   4.499  0.2373  0.0810 -0.0010
 7121W        W20535   7.519  16.457  12.967 -0.2604  0.1207 -0.0112
 7122W        W20536   5.357  17.838  10.958  0.0687  0.3482  0.3549
 7123W        W20537  13.913   0.488   2.954  0.2324 -0.1408  0.1272
 7124W        W20538  10.748   4.176   4.587  0.0769  0.1119 -0.1142
 7125W        W20539   2.631  12.335  12.024 -0.0414 -0.1329  0.1069
 7126W        W20540   3.078  13.707   2.883  0.2444  0.1236  0.0757
 7127W        W20541   1.206  14.119   0.292 -0.1178 -0.3037 -0.0767
 7128W        W20542  12.779   2.494  12.287  0.0101 -0.0499  0.2073
 7129W        W20543  12.242  12.580  14.898  0.0245  0.1500 -0.1104
 7130W        W20544   9.413  16.258   2.835  0.0185  0.3896 -0.0784
 7131W        W20545   7.926   2.506   2.471 -0.0226 -0.2585 -0.0771
 7132W        W20546  12.270   7.894   2.836 -0.3379 -0.0636  0.2144
 7133W        W20547   2.329  12.806   3.416 -0.0735 -0.2512  0.0785
 7134W        W20548   2.149  17.206  15.984  0.1263 -0.0696  0.2203
 7135W        W20549  12.527   2.115  14.967  0.0939 -0.0590 -0.0686
 7136W        W20550  15.999   8.022   4.792 -0.0156  0.3542  0.0796
 7137W        W20551  11.573   7.362  10.680  0.0193 -0.0032  0.2828
 7138W        W20552   1.760  15.412   4.954  0.1196  0.1771  0.3434
 7139W        W20553   7.285   5.551  11.718 -0.1809 -0.2576  0.2257
 7140W        W20554  17.308   2.291   1.248 -0.0829  0.1062  0.1370
 7141W        W20555  15.119   5.410  15.493 -0.1307  0.2739 -0.1115
 7142W        W20556   6.040  14.296  13.755  0.1978  0.0561  0.1178
 7143W        W20557   8.324  11.544   4.211  0.0209  0.3256 -0.1903
 7144W        W20558  10.559   0.332  16.169  0.2501 -0.0353  0.0213
 7145W        W20559   7.091   9.905   5.773  0.1853  0.1310  0.0533
 7146W        W20560  17.038  15.429   1.551  0.0616 -0.2704 -0.1244
 7147W        W20561  16.780   0.294   2.506 -0.1246  0.2354 -0.0440
 7148W        W20562  10.784   4.961  13.979 -0.0072 -0.0363 -0.1866
 7149W        W20563  16.981   5.697  14.918  0.0846  0.0073  0.1402
 7150W        W20564  16.131   1.032  13.299  0.0133 -0.2837  0.1707
 7151W        W20565   7.710  15.077   0.434  0.0687  0.2896  0.1450
 7152W        W20566  12.433   5.417  14.638  0.1793 -0.1770  0.1454
 7153W        W20567   8.493   4.687  15.660 -0.0801  0.0657  0.1036
 7154W        W20568  14.432   0.556  11.432 -0.0211 -0.0210  0.3320
 7155W        W20569  12.735  17.861   2.923 -0.2136  0.0187 -0.1246
 7156W        W20570   0.843   0.551   3.743  0.0496 -0.0349 -0.1799
 7157W        W20571  15.782   3.875   3.700  0.0065 -0.2400  0.3200
 7158W        W20572   3.551  13.650   3.013 -0.2565 -0.1948 -0.1201
 7159W        W20573   3.170   5.782  11.121  0.1304  0.1271  0.3141
 7160W        W20574  17.540  10.598  13.716 -0.1515 -0.0866 -0.1446
 7161W        W20575   9.444   8.310   4.334  0.2158 -0.2403 -0.0012
 7162W        W20576   3.995  15.573  11.604  0.2315  0.1926 -0.0989
 7163W        W20577   7.788   9.171   6.163 -0.0181 -0.0318 -0.0833
 7164W        W20578   6.796  16.492  15.411 -0.2730  0.2324 -0.2139
 7165W        W20579  17.975   5.310  11.774 -0.1239 -0.0699 -0.0856
 7166W        W20580   1.578   6.801  10.163 -0.5598  0.2374  0.1355
 7167W        W20581   3.260   5.305   3.296 -0.0504  0.0180 -0.0239
 7168W        W20582   4.149   3.606  13.209 -0.2914 -0.1050 -0.0645
 7169W        W20583  18.141  13.332  13.651 -0.0362 -0.1950 -0.2033
 7170W        W20584   6.729   9.387  15.137  0.0102 -0.0238  0.0938
 7171W        W20585  16.921   0.425  12.838 -0.0436 -0.0954  0.0729
 7172W        W20586   0.616   0.212   1.231 -0.1504 -0.1352  0.1763
 7173W        W20587  14.220  13.594   0.089 -0.1139 -0.3281 -0.2907
 7174W        W20588  14.174   2.731   0.544  0.1901  0.0925 -0.0509
 7175W        W20589   4.953   3.502   3.881  0.0878  0.3790 -0.1425
 7176W        W20590   1.661  11.528   4.359  0.1859  0.0035  0.1289
 7177W        W20591   6.856   2.456   3.332 -0.0422  0.0754 -0.0173
 7178W        W20592   2.146   3.265   4.885 -0.1508  0.2234 -0.2197
 7179W        W20593   3.036  17.232   2.663 -0.1874 -0.2703 -0.3776
 7180W        W20594  15.712  10.821  13.383  0.0379 -0.1155  0.2330
 7181W        W20595   4.679  11.416   3.247 -0.0281 -0.0679 -0.0106
 7182W        W20596  16.254   9.789   2.970  0.2160  0.1368 -0.1959
 7183W        W20597   9.916  10.828   5.666 -0.3753 -0.0855 -0.3186
 7184W        W20598  14.577   2.685   1.167  0.0459 -0.1078 -0.3106
 7185W        W20599  16.845   5.665  11.554 -0.4053 -0.0951  0.0475
 7186W        W20600   9.955   2.227  12.934 -0.0439  0.0735  0.1578
 7187W        W20601  14.816   6.455  12.449 -0.1086  0.0091  0.0383
 7188W        W20602   3.663  17.695   0.657  0.2349  0.1558 -0.2620
 7189W        W20603  16.959  13.112   5.591 -0.1089 -0.1027 -0.1920
 7190W        W20604  17.739  16.940   1.273 -0.2166  0.1015  0.1432
 7191W        W20605   9.035   0.980  14.981  0.0749  0.1931 -0.1013
 7192W        W20606   0.146   1.762   3.152 -0.1918 -0.1395 -0.0511
 7193W        W20607  15.597  15.808   0.997  0.2101  0.1516 -0.1874
 7194W        W20608   8.238   7.503   4.241  0.2775 -0.2142 -0.0240
 7195W        W20609  17.793  17.820  14.997  0.0373  0.0164 -0.0550
 7196W        W20610   1.230  14.208   4.220 -0.1750  0.0130 -0.2078
 7197W        W20611   0.212   9.170  11.571 -0.0442  0.0446  0.2600
 7198W        W20612   9.365  13.124   2.770  0.2054 -0.2750 -0.0761
 7199W        W20613   3.027  12.044   1.229 -0.3569 -0.2183 -0.0740
 7200W        W20614  14.034   5.362  11.687 -0.0333  0.0957  0.0589
 7201W        W20615   0.900   6.152  15.459  0.0206 -0.0600  0.0395
 7202W        W20616   5.802   8.242   4.239 -0.3146  0.1124 -0.1249
 7203W        W20617  14.200  10.766  14.741  0.0649 -0.2087  0.1781
 7204W        W20618   9.340   4.477  11.076 -0.2781 -0.2332  0.0615
 7205W        W20619  10.539   0.902  12.003  0.2459 -0.0795  0.2490
 7206W        W20620   6.873  16.743  14.184  0.2938  0.0410 -0.0108
 7207W        W20621   2.326  10.507   0.399  0.0852 -0.0010 -0.0117
 7208W        W20622   7.455   8.951   4.480  0.0617 -0.1404  0.1518
 7209W        W20623   3.396   5.126  11.718 -0.0194 -0.2389 -0.1403
 7210W        W20624   4.419  10.078  13.443  0.0464 -0.2303 -0.2141
 7211W        W20625   3.437  17.425   2.854 -0.0618 -0.0268 -0.1461
 7212W        W20626   1.782  13.329   3.794  0.0058  0.1781 -0.2759
 7213W        W20627  17.986   5.090   2.630  0.1067 -0.1231 -0.0816
 7214W        W20628  17.132   0.203   1.245 -0.2624  0.1263  0.1537
 7215W        W20629   6.303  11.831   1.014 -0.0659  0.4670  0.0070
 7216W        W20630  11.783  15.438  13.821 -0.0832 -0.1217  0.1655
 7217W        W20631   0.523   4.307   5.396 -0.1852  0.1558 -0.2151
 7218W        W20632  18.156   9.601   3.681  0.0488 -0.2754 -0.0320
 7219W        W20633   8.720  16.773  14.148  0.2377  0.1124  0.0352
 7220W        W20634   9.859   1.018  11.835  0.2256 -0.1283  0.2966
 7221W        W20635  12.567   8.952   1.122 -0.1411  0.4722 -0.0253
 7222W        W20636  16.849  13.632   0.115 -0.0651  0.2714 -0.1810
 7223W        W20637  14.717  13.091   2.451  0.1296  0.1843  0.0737
 7224W        W20638  13.372   1.659  11.461 -0.1792  0.2047  0.0638
 7225W        W20639  10.142  14.690  14.061 -0.1222  0.0908 -0.1683
 7226W        W20640   4.969   1.169   1.604 -0.0918 -0.0325 -0.1755
 7227W        W20641   6.225   9.627  14.496  0.0525 -0.0416  0.2463
 7228W        W20642  13.784   2.793   3.705 -0.0911 -0.1682 -0.1729
 7229W        W20643   4.936  16.003   1.574 -0.1883 -0.0068 -0.0029
 7230W        W20644   2.858  13.625   1.884  0.0196 -0.3458  0.0722
 7231W        W20645   0.051  13.783  13.079 -0.3279 -0.3802  0.1574
 7232W        W20646   1.850   2.526  11.256 -0.0202 -0.1169  0.1247
 7233W        W20647   8.076   0.025  12.617  0.1040 -0.0293 -0.1069
 7234W        W20648  14.746   4.901   2.852 -0.1191  0.4574 -0.0715
 7235W        W20649  13.963  12.094  12.947  0.0820  0.2749 -0.5019
 7236W        W20650   1.823   1.596  13.940  0.1020  0.1347  0.2131
 7237W        W20651   0.558   3.841   4.930  0.2337  0.0253 -0.1515
 7238W        W20652   7.404   7.415  11.801 -0.0252  0.5199 -0.0898
 7239W        W20653  12.439  12.564   5.151  0.2544  0.3628  0.1729
 7240W        W20654   7.761   9.048  12.671 -0.0329 -0.0576 -0.1592
 7241W        W20655  12.485   8.359   2.575  0.0390 -0.1004  0.1924
 7242W        W20656   9.963  17.236  16.065  0.0311  0.0232  0.1883
 7243W        W20657   2.592   1.391   4.785  0.2777 -0.1971  0.0056
 7244W        W20658   4.115   5.978   3.556  0.1078  0.2083 -0.1125
 7245W        W20659  17.823  11.352  15.801  0.1737  0.1423 -0.0947
 7246W        W20660  15.249   6.647   4.877 -0.0985 -0.3406  0.1864
 7247W        W20661  18.098  17.028   4.757  0.1287 -0.1255 -0.0702
 7248W        W20662  12.849  15.542  12.886  0.0629 -0.3587  0.0444
 7249W        W20663  10.039  16.397  14.862  0.0118  0.0406  0.0032
 7250W        W20664   0.452  15.116   1.002  0.0908  0.0180 -0.1926
 7251W        W20665  15.308  14.575   4.351 -0.0078 -0.0065 -0.1156
 7252W        W20666   1.235  15.896  16.001 -0.0745 -0.1517 -0.2262
 7253W        W20667   9.887   8.997  14.766  0.0594  0.1120 -0.2513
 7254W        W20668  11.994  17.818  16.155  0.0258 -0.4896  0.2854
 7255W        W20669  10.959  18.456   5.144 -0.3011  0.1779 -0.3446
 7256W        W20670  11.670   0.983  13.219  0.1749  0.0638  0.2715
 7257W        W20671  12.112   3.479  15.120 -0.0374 -0.3182  0.0111
 7258W        W20672   8.626  17.583   9.645 -0.0808 -0.2595 -0.1745
 7259W        W20673   9.095   0.952  14.488 -0.2917 -0.0351  0.4280
 7260W        W20674  15.595  15.181  15.943 -0.0009  0.1309  0.1996
 7261W        W20675   9.120   4.575   6.204  0.2154 -0.4247  0.4345
 7262W        W20676   9.379   1.606  12.131 -0.1553  0.0981  0.0709
 7263W        W20677   0.948   9.885  10.194 -0.2346  0.2140  0.3931
 7264W        W20678  15.169   1.947   2.070 -0.1460  0.1193 -0.0384
 7265W        W20679   0.909   6.389   5.463 -0.0651  0.2183  0.0535
 7266W        W20680  14.199   5.015   1.761 -0.2813 -0.2914 -0.2269
 7267W        W20681  15.131  10.580  12.759  0.1993  0.0726 -0.2192
 7268W        W20682  13.735   5.203   2.816 -0.0604  0.1408 -0.1839
 7269W        W20683  13.584   5.862  12.731  0.2034  0.1091 -0.4029
 7270W        W20684   4.130   9.988   5.728 -0.0898 -0.2018 -0.1531
 7271W        W20685   7.843   8.716  11.425  0.0670 -0.0809  0.0347
 7272W        W20686   5.282   9.221   2.683 -0.2231 -0.3544 -0.1150
 7273W        W20687   2.112   1.093   2.109  0.1455 -0.1157 -0.0226
 7274W        W20688   3.521  18.434   4.323  0.1434 -0.0717 -0.1690
 7275W        W20689   3.525   2.915   5.077 -0.0529 -0.0809  0.0513
 7276W        W20690   1.999  12.239   5.682 -0.2034  0.2192  0.2883
 7277W        W20691   6.923   2.828  15.226 -0.1112  0.0769  0.1704
 7278W        W20692   6.751   4.002   1.215 -0.2018  0.2574 -0.2562
 7279W        W20693   3.283  10.359   2.823  0.1714 -0.0759 -0.0133
 7280W        W20694   8.564   5.798   5.926 -0.3556 -0.2123  0.3842
 7281W        W20695  17.142  13.271   5.127  0.2873  0.0281  0.0969
 7282W        W20696   7.456   8.176   5.163 -0.0061 -0.1076 -0.0605
 7283W        W20697  18.005  10.886  15.170  0.1122  0.1960 -0.2531
 7284W        W20698   8.242   5.160  12.668 -0.1936 -0.3111 -0.1524
 7285W        W20699   6.208  10.202  13.911 -0.1621 -0.1033 -0.0796
 7286W        W20700  11.878   7.206   1.067 -0.3260  0.0642 -0.2315
 7287W        W20701  14.084  15.347   5.048  0.1590  0.1044  0.1284
 7288W        W20702   1.814   0.921  12.104 -0.0286  0.2184  0.3260
 7289W        W20703  18.292   0.823   2.284 -0.1276 -0.1240 -0.1295
 7290W        W20704  12.554   5.578  14.155 -0.2124  0.5067 -0.2147
 7291W        W20705  17.921   0.376  16.027  0.1621  0.2700  0.2125
 7292W        W20706   2.650   5.378   2.006 -0.0857 -0.0228 -0.5646
 7293W        W20707   2.401   5.833   1.808 -0.2751 -0.1253 -0.4802
 7294W        W20708  13.970   0.935   0.680  0.2287 -0.1410  0.0836
 7295W        W20709   4.017  12.574  12.229 -0.1062 -0.1810  0.4431
 7296W        W20710   4.540  17.600   5.502 -0.0705  0.1258 -0.0504
 7297W        W20711  17.392   7.930   4.398  0.2291  0.1480  0.0678
 7298W        W20712   1.457  16.414   4.146 -0.1565 -0.0150 -0.3474
 7299W        W20713  16.517   9.183  12.060  0.0467 -0.2986  0.0408
 7300W        W20714   6.912  16.161   4.677  0.1675  0.1998 -0.0563
 7301W        W20715   3.387   7.201   2.766  0.1681 -0.2688  0.1271
 7302W        W20716  12.590   4.556   2.863  0.2222  0.1757 -0.2167
 7303W        W20717  16.288   9.150   4.088 -0.2744  0.0233  0.0400
 7304W        W20718   2.943  17.489   3.309 -0.1986  0.1067 -0.1198
 7305W        W20719   8.881  13.470   4.995  0.0315 -0.0279  0.0675
 7306W        W20720  15.869   3.986  16.245  0.1788 -0.1563  0.2847
 7307W        W20721  11.444  14.957  12.423  0.2586  0.1570 -0.1071
 7308W        W20722  18.081   3.365  16.083  0.0354  0.0816 -0.0033
 7309W        W20723   2.642   4.515   1.936 -0.2005  0.1160  0.1093
 7310W        W20724   5.803  16.417   2.176  0.2680  0.0472  0.1800
 7311W        W20725  10.437   8.930  12.078 -0.1245  0.2604 -0.1178
 7312W        W20726   1.030   0.222  11.876  0.1984 -0.2001 -0.1854
 7313W        W20727   6.892  11.983   5.292  0.1060  0.1079  0.3910
 7314W        W20728   8.181  15.924  13.027  0.2027  0.4464  0.0322
 7315W        W20729  16.007  14.137  15.049  0.0702 -0.0652 -0.0174
 7316W        W20730   3.790   3.462  10.968  0.1995 -0.1101  0.1253
 7317W        W20731   8.135  17.202   4.222  0.1207 -0.0553  0.1333
 7318W        W20732  13.545   9.035   4.210  0.3795 -0.3476  0.0801
 7319W        W20733  17.229   2.563   0.228 -0.2548 -0.0146  0.2472
 7320W        W20734   9.192  11.483   1.902 -0.0563 -0.3032 -0.0543
 7321W        W20735  12.917   3.598  10.409  0.1661  0.0548  0.0020
 7322W        W20736  12.445  17.441  11.590  0.2668  0.2050  0.2634
 7323W        W20737  14.022   3.358   5.463 -0.0607  0.0752  0.1127
 7324W        W20738   9.207   1.898   1.652 -0.2576  0.1454  0.0425
 7325W        W20739   3.641   2.518   5.508  0.3191 -0.0722  0.3911
 7326W        W20740   0.331  14.188   2.854  0.0861  0.0237 -0.1538
 7327W        W20741   0.468  17.997  11.958  0.2259  0.0236 -0.1049
 7328W        W20742  14.175  18.202   2.086 -0.0966  0.0794  0.1161
 7329W        W20743  16.363   3.508   2.858 -0.2204  0.0864 -0.2266
 7330W        W20744   2.864   2.741   2.828 -0.0463  0.0701  0.0044
 7331W        W20745  14.380   0.131  13.282  0.0563 -0.1159  0.0642
 7332W        W20746  17.593  16.526  15.433 -0.0773 -0.3191  0.0561
 7333W        W20747  11.572  11.939  10.491  0.1465  0.1121  0.2046
 7334W        W20748   5.576  12.743  14.422 -0.0279 -0.2062 -0.4737
 7335W        W20749   7.304   4.723   0.433  0.2466 -0.1368  0.0723
 7336W        W20750   1.662   3.802  14.886  0.0018 -0.1049  0.1160
 7337W        W20751  14.444   9.197  14.473  0.3667  0.3147 -0.0743
 7338W        W20752   6.070  18.405   1.327 -0.2740  0.0026  0.1749
 7339W        W20753  11.370   0.793  12.281  0.1585  0.2194  0.3802
 7340W        W20754   1.854   5.151   2.074 -0.2534 -0.0973  0.0173
 7341W        W20755   8.179   5.872  10.879 -0.4189 -0.0588 -0.1654
 7342W        W20756  10.813   9.832  14.806  0.3374  0.0480  0.0201
 7343W        W20757  11.639   8.150  16.169  0.0082 -0.2651  0.1232
 7344W        W20758   9.932   9.192  13.419 -0.2099  0.0578  0.1133
 7345W        W20759  12.801   6.441   5.061  0.1752  0.1124  0.1513
 7346W        W20760   5.766   7.172  10.949 -0.1136 -0.2855 -0.0721
 7347W        W20761  17.520  13.783   0.882 -0.2742  0.1030  0.1610
 7348W        W20762   5.845   2.799  15.033  0.1208 -0.2748 -0.1245
 7349W        W20763  13.819   2.445  14.178 -0.1456  0.0994  0.1522
 7350W        W20764  17.711   1.672   3.265 -0.0040 -0.1179  0.0518
 7351W        W20765  11.141   7.310   0.852 -0.0943 -0.1833 -0.3543
 7352W        W20766  10.841   0.354   4.860  0.1604 -0.0602  0.3750
 7353W        W20767   0.236   9.495   2.696 -0.1165 -0.3336  0.0229
 7354W        W20768   6.544   9.254  11.223 -0.1096 -0.1990  0.1367
 7355W        W20769  17.126  13.204   6.493  0.1441 -0.4261 -0.0197
 7356W        W20770   9.637   3.709   0.851  0.3184 -0.2115 -0.2744
 7357W        W20771   8.675  17.776  12.672 -0.0800  0.1465  0.0185
 7358W        W20772   2.736  10.533   5.323  0.0042 -0.2100 -0.0155
 7359W        W20773   7.825   9.195  13.512  0.0273 -0.2617 -0.0077
 7360W        W20774  10.407   6.377  14.378 -0.0119  0.2123 -0.0559
 7361W        W20775   8.379  13.488  10.571  0.0123  0.0062  0.1584
 7362W        W20776  14.736   2.314   4.534  0.4197  0.4047  0.0757
 7363W        W20777   1.335   6.873   2.896 -0.0879 -0.4298 -0.1690
 7364W        W20778   8.165  11.615  13.771 -0.0953 -0.0398  0.1194
 7365W        W20779  12.959   0.152  15.585  0.0730  0.0642  0.1378
 7366W        W20780   7.366   1.502  13.864 -0.0404 -0.3021 -0.1156
 7367W        W20781   3.309   5.800  12.811  0.2702 -0.0833 -0.3294
 7368W        W20782   0.222  10.874  14.829  0.0490 -0.0735 -0.2581
 7369W        W20783  10.140   0.750  13.541  0.2510 -0.1305 -0.0624
 7370W        W20784   9.171   2.977   4.133  0.0262  0.1903 -0.0700
 7371W        W20785   0.601   6.528  12.285 -0.4333 -0.1021 -0.0136
 7372W        W20786   0.179  10.648   4.165 -0.1609  0.0973  0.0264
 7373W        W20787   2.406   6.307   4.363 -0.2462 -0.2647 -0.0424
 7374W        W20788  13.420  16.064   1.120 -0.3587 -0.1086  0.0804
 7375W        W20789   7.706   7.236  10.806 -0.1525  0.1107 -0.1606
 7376W        W20790  17.941  17.672  11.512 -0.0441 -0.3299 -0.1316
 7377W        W20791  12.435   2.676  14.435 -0.1338 -0.2963  0.2709
 7378W        W20792  16.347  13.786  11.990 -0.2915 -0.1242 -0.0205
 7379W        W20793  15.914   8.852   6.505  0.1311 -0.0978 -0.3831
 7380W        W20794  15.270  15.147   1.657 -0.0933 -0.2717  0.0357
 7381W        W20795   5.559  17.440  14.863  0.0401 -0.2988  0.1220
 7382W        W20796   7.617   5.367  14.060  0.1131  0.2336  0.1890
 7383W        W20797   4.247  14.011   3.109 -0.1669  0.0168  0.1959
 7384W        W20798   0.639   7.783  11.502 -0.1468 -0.1059  0.0681
 7385W        W20799   0.504  13.000  11.957  0.2675 -0.0595  0.2337
 7386W        W20800  17.174  15.825   5.963 -0.1174  0.0408  0.0310
 7387W        W20801  16.020  15.643  10.846 -0.0644 -0.1850 -0.4342
 7388W        W20802  10.602  17.031  15.276 -0.1136 -0.1588  0.0135
 7389W        W20803  11.138   7.768   1.105 -0.0202 -0.0623  0.1782
 7390W        W20804  17.919  11.969  13.031  0.3405 -0.2934  0.1336
 7391W        W20805   9.105  17.105   4.512 -0.0119 -0.0195  0.1903
 7392W        W20806  18.350   6.569   0.790 -0.3122 -0.2085  0.1165
 7393W        W20807   3.143  16.811   4.917  0.0096  0.0517  0.1469
 7394W        W20808  10.143  14.241  10.398 -0.0508  0.3616  0.1507
 7395W        W20809   7.990   9.490   5.030  0.0086  0.0391 -0.1682
 7396W        W20810   6.202  11.469  11.660 -0.0045  0.1400  0.0960
 7397W        W20811   5.318   7.967  15.826 -0.0676 -0.2336  0.3125
 7398W        W20812  16.353  16.370   0.350 -0.1728  0.1696 -0.2899
 7399W        W20813  15.058   3.291   3.905  0.0992  0.0473 -0.0690
 7400W        W20814  17.442   4.081  11.771 -0.2398 -0.1893 -0.3434
 7401W        W20815  12.788  15.412  11.166  0.0991  0.0137 -0.0359
 7402W        W20816   0.904   7.488   2.339 -0.3868  0.1328 -0.0057
 7403W        W20817   9.132   1.807   3.098 -0.0098  0.0207  0.0117
 7404W        W20818  14.412   9.740   5.111 -0.0278 -0.1895  0.1576
 7405W        W20819  14.608  15.311   3.810  0.0399  0.1580  0.2123
 7406W        W20820  15.662   3.938  13.999  0.0401  0.0974 -0.0145
 7407W        W20821   6.364   1.884   4.015  0.1085  0.0330  0.2144
 7408W        W20822   3.269   1.275   0.025 -0.0599  0.0088  0.1800
 7409W        W20823  18.085  12.625  14.350  0.1425 -0.1546 -0.2089
 7410W        W20824   2.533   1.084  14.426 -0.1064 -0.1147  0.1616
 7411W        W20825  10.892   6.425   1.622  0.0734 -0.1830 -0.1834
 7412W        W20826   3.523  14.095  14.109 -0.1036  0.0363 -0.1511
 7413W        W20827   8.362   7.287   1.074  0.2824  0.2764 -0.1520
 7414W        W20828  14.882   2.863   4.662 -0.1468 -0.0160  0.5480
 7415W        W20829  18.197   6.654  12.899 -0.1901  0.3012  0.0857
 7416W        W20830   6.893  14.351  14.471  0.0796  0.0134 -0.1138
 7417W        W20831   2.921  15.119  11.357 -0.1787  0.2152  0.1390
 7418W        W20832   4.787  10.659  15.218 -0.1564 -0.0157  0.0580
 7419W        W20833   1.426   1.625  14.946  0.2846  0.0449 -0.0578
 7420W        W20834   9.852   6.339  11.429  0.0297 -0.0412  0.1971
 7421W        W20835  11.776  11.395  12.274  0.0358  0.3635 -0.2167
 7422W        W20836  13.611   3.490   2.444  0.0997  0.1363 -0.0289
 7423W        W20837   1.894   2.273  12.080 -0.1563 -0.0769 -0.4038
 7424W        W20838   4.697   7.840   0.242 -0.3221 -0.0386  0.0359
 7425W        W20839  13.992  16.970  13.008  0.1007 -0.1130 -0.0569
 7426W        W20840  17.169   9.910   3.035 -0.0840  0.0496 -0.2198
 7427W        W20841   3.952   0.931  13.140 -0.2015 -0.2902  0.0892
 7428W        W20842   9.135   0.788   1.246 -0.0505  0.3008 -0.3792
 7429W        W20843   3.754   7.239   0.196  0.0507  0.0326  0.0584
 7430W        W20844  10.703   2.758  12.452 -0.3069 -0.0605 -0.2976
 7431W        W20845   6.591  15.719   2.995 -0.1635  0.4204  0.1261
 7432W        W20846  14.348   8.663  14.158 -0.1363 -0.0603 -0.1617
 7433W        W20847   1.403  13.239   2.571  0.2067  0.1214 -0.1420
 7434W        W20848   8.764  13.102  11.751  0.0304  0.2965  0.0091
 7435W        W20849   5.455   9.859  13.718 -0.2702 -0.1249 -0.1563
 7436W        W20850   2.508   1.084   5.779  0.0034 -0.1196 -0.1446
 7437W        W20851  14.480  17.483   1.719 -0.3290  0.0664 -0.1541
 7438W        W20852   9.699   9.070  11.492 -0.2746  0.3254  0.0228
 7439W        W20853   8.861  15.854  13.680  0.1760 -0.0059 -0.3202
 7440W        W20854  14.114   1.769   4.340 -0.0512  0.1274 -0.4526
 7441W        W20855   6.362   8.395   5.233  0.0610  0.2999 -0.0216
 7442W        W20856   5.135   3.704  12.656 -0.1527  0.3507 -0.2145
 7443W        W20857   2.863   2.276  12.980  0.0662 -0.1593 -0.0138
 7444W        W20858   0.912  18.050   9.875  0.0312 -0.1059 -0.0259
 7445W        W20859   3.878  13.503  11.402 -0.3880  0.2345  0.2172
 7446W        W20860   3.592  14.133  16.114  0.2563  0.2527  0.0121
 7447W        W20861   8.706  14.372  13.299 -0.0305 -0.0601  0.0325
 7448W        W20862  13.836   6.924  14.189  0.2475 -0.1705 -0.0903
 7449W        W20863  13.820   9.107  10.360 -0.0321  0.2011  0.0467
 7450W        W20864   3.247  14.999   3.259 -0.1623  0.1972  0.0222
 7451W        W20865  15.258  14.382   1.934  0.0108  0.1791 -0.1152
 7452W        W20866  14.205   4.484   4.221  0.3164 -0.0945  0.2086
 7453W        W20867   1.055  13.196   4.283  0.1664 -0.0950  0.0462
 7454W        W20868   1.191  16.163  12.076  0.0815 -0.1174 -0.2183
 7455W        W20869  13.828   1.352   9.901 -0.0278  0.0672 -0.1115
 7456W        W20870   9.804  11.201  15.191  0.1154  0.0115  0.1390
 7457W        W20871   0.873   7.346   1.749 -0.0049  0.1701 -0.1111
 7458W        W20872  15.895  13.407  13.742 -0.2253 -0.1547 -0.0655
 7459W        W20873   9.793   5.044   5.363 -0.0176  0.2187  0.2732
 7460W        W20874   9.709   6.186  14.684 -0.1031  0.0612 -0.0360
 7461W        W20875   7.287   9.268  10.703 -0.0325  0.0932  0.1559
 7462W        W20876   9.784  16.046  13.595 -0.0817  0.3538 -0.0272
 7463W        W20877   2.040   1.862  11.912  0.1749  0.1162  0.3769
 7464W        W20878  11.858   6.220  15.644  0.0760 -0.2227 -0.2305
 7465W        W20879  18.336   7.879  11.133  0.0012  0.0463  0.0476
 7466W        W20880  18.483   9.833   3.397 -0.2914  0.0196 -0.0974
 7467W        W20881   2.884   0.940  13.975  0.3152 -0.2824 -0.0159
 7468W        W20882  15.079   6.768   2.189  0.2080  0.1670  0.1067
 7469W        W20883   0.758   0.551  12.113 -0.4055 -0.0057  0.2108
 7470W        W20884   3.414   4.476   5.369  0.1927 -0.1820 -0.0790
 7471W        W20885   8.323   3.300  10.532  0.0675  0.2899 -0.1325
 7472W        W20886  16.968  14.405  14.535  0.1876 -0.0517 -0.0554
 7473W        W20887   5.040  10.195  16.193 -0.0771 -0.0025 -0.2095
 7474W        W20888  16.689   9.415  10.227  0.4350 -0.2914  0.0490
 7475W        W20889  16.344  13.868   4.893  0.2398  0.1655 -0.1570
 7476W        W20890  15.900  11.678   5.027 -0.3736 -0.1579 -0.0505
 7477W        W20891   6.122  13.557  11.812  0.0893  0.1145  0.1512
 7478W        W20892   3.454   4.991   5.550  0.0045 -0.0780  0.1177
 7479W        W20893  11.935   1.576   3.602 -0.2558 -0.0534  0.0966
 7480W        W20894   3.069   3.538  11.686  0.0028  0.1551  0.1063
 7481W        W20895   4.090   5.877   4.346  0.1478  0.1132 -0.1920
 7482W        W20896   3.810   7.662  11.240  0.0789  0.1097  0.2308
 7483W        W20897  17.582   8.237  14.963 -0.0439  0.0626 -0.0463
 7484W        W20898  12.671   5.548  13.586  0.1227  0.1682  0.0221
 7485W        W20899   2.525   5.945   3.580 -0.0299  0.1116  0.1027
 7486W        W20900   6.154  14.658  10.099 -0.1376 -0.2096  0.0503
 7487W        W20901  13.575  16.107  12.107 -0.0146  0.1546 -0.2347
 7488W        W20902   1.091   9.576   5.832 -0.0752  0.1862 -0.0607
 7489W        W20903  12.989  14.010  13.194 -0.2252  0.0218 -0.0815
 7490W        W20904   7.079   1.675   1.781  0.0392  0.2742  0.0346
 7491W        W20905   1.306  13.874  13.947  0.0783 -0.2652  0.0411
 7492W        W20906   5.933  15.796   4.212  0.0888  0.1069 -0.1181
 7493W        W20907   7.192   3.507  15.655  0.3497 -0.1565  0.0042
 7494W        W20908   7.305   8.842  11.343 -0.0687  0.1491  0.1019
 7495W        W20909   1.033  17.704   3.546  0.0226  0.2731  0.0718
 7496W        W20910   6.521  10.044  14.477  0.0119  0.1214 -0.1258
 7497W        W20911   0.489  13.686  10.410  0.3798 -0.0925  0.0372
 7498W        W20912  13.176  13.575  13.656  0.0085 -0.0288  0.0030
 7499W        W20913   9.640  10.871  14.586 -0.0794 -0.2710 -0.2454
 7500W        W20914  18.015  16.811   0.800  0.1487  0.2345  0.1039
 7501W        W20915   7.877   4.320   2.676  0.1647 -0.2446 -0.2648
 7502W        W20916   7.258   1.309  12.685 -0.1153  0.4736  0.2794
 7503W        W20917   2.010  12.648   5.366 -0.1208  0.0862 -0.0845
 7504W        W20918  18.161   4.061  16.048 -0.0542 -0.0283 -0.1623
 7505W        W20919   3.396   8.244  12.251 -0.1459 -0.0708  0.0532
 7506W        W20920   6.367  16.240   3.930  0.0118 -0.0271  0.1239
 7507W        W20921   7.974   4.657   6.478 -0.2158  0.3359 -0.4715
 7508W        W20922   3.038  16.244   1.683  0.1522  0.1621  0.2209
 7509W        W20923  16.021  12.990   5.782  0.3423  0.1916 -0.1008
 7510W        W20924   1.887   1.773   0.726  0.4247 -0.2305  0.0707
 7511W        W20925  12.064  13.769  15.523  0.1041 -0.0780 -0.0260
 7512W        W20926   9.540  10.194   4.572 -0.2040 -0.0910  0.1256
 7513W        W20927   4.765   2.117  13.041 -0.0713  0.2438 -0.1588
 7514W        W20928  12.563   6.939   0.729  0.0335  0.1698 -0.1364
 7515W        W20929   2.749  13.850   0.779  0.1709 -0.1506  0.2084
 7516W        W20930  13.595  13.324  13.312 -0.0173  0.4595  0.2719
 7517W        W20931   2.674   4.253  16.066 -0.0964  0.0491  0.0225
 7518W        W20932  18.184   4.551   4.551  0.0552 -0.4759  0.1191
 7519W        W20933   9.578   2.697   1.017  0.2252  0.2225  0.0484
 7520W        W20934   1.583   5.827  13.181 -0.1086 -0.0611 -0.0394
 7521W        W20935   8.145   2.713   3.655  0.1853 -0.0726  0.1006
 7522W        W20936   7.888   2.824   0.256  0.0017  0.0985  0.1320
 7523W        W20937   4.400  12.946   0.167 -0.0308 -0.1797 -0.2990
 7524W        W20938   7.146   6.686  15.080 -0.0521  0.1991 -0.4121
 7525W        W20939   2.068  13.664   4.953 -0.1992 -0.0197  0.1416
 7526W        W20940   3.584  13.435   2.008  0.0887 -0.1143  0.0523
 7527W        W20941  13.579   0.539   6.253  0.2865 -0.2808 -0.0110
 7528W        W20942  16.535  16.351  10.940  0.3228 -0.1572  0.2060
 7529W        W20943  16.511  16.772   3.827  0.1745  0.5178  0.0265
 7530W        W20944  10.405   1.255  10.605  0.0878 -0.1093 -0.0200
 7531W        W20945   9.703   5.661  12.399 -0.2608  0.0111 -0.0428
 7532W        W20946   0.029  13.941   2.321 -0.0467  0.0916  0.0126
 7533W        W20947   4.861   8.630   0.675 -0.3041  0.0084 -0.4183
 7534W        W20948  15.621  13.331  11.781 -0.1813 -0.5093 -0.4940
 7535W        W20949  13.448  17.907  14.676  0.1218  0.2208  0.0048
 7536W        W20950   4.700   9.611  12.129 -0.1113  0.0123 -0.3131
 7537W        W20951  16.691  17.480  14.044 -0.0244  0.0787 -0.3544
 7538W        W20952   1.649   4.645   0.054  0.0596  0.5437  0.0666
 7539W        W20953   1.525   2.210  15.658  0.0684 -0.1905 -0.0902
 7540W        W20954   9.615  17.560  12.156 -0.0757  0.0872  0.1969
 7541W        W20955  13.255   2.682  14.626  0.1035  0.1064 -0.3522
 7542W        W20956  12.503   7.991  10.964  0.0349 -0.2732 -0.0075
 7543W        W20957   9.346  18.479  15.146  0.0536 -0.0261  0.2752
 7544W        W20958  14.093  17.549   4.823 -0.3565  0.0541  0.0885
 7545W        W20959   1.761   2.276   5.609  0.0862 -0.1736  0.1133
 7546W        W20960   2.707   9.669   5.738  0.0245  0.2953 -0.0213
 7547W        W20961  11.932   8.791  13.435 -0.0374 -0.1355 -0.0668
 7548W        W20962  17.326   3.869  14.280 -0.0372 -0.2420 -0.1976
 7549W        W20963   1.628  17.114   2.521  0.0845 -0.1172 -0.3455
 7550W        W20964   7.796  18.185   0.932  0.0105  0.2519  0.1377
 7551W        W20965   6.981   9.967   4.265 -0.3036  0.0445  0.1210
 7552W        W20966  13.515   9.326  15.378  0.0110 -0.0305 -0.2273
 7553W        W20967  13.604   0.278  14.274 -0.3712  0.4352 -0.1172
 7554W        W20968  13.782   3.246   3.961 -0.2510 -0.1296 -0.0293
 7555W        W20969   5.985  12.979   5.193  0.2024 -0.2790 -0.1185
 7556W        W20970  11.520  14.204  12.898  0.0622 -0.4287  0.1358
 7557W        W20971  13.111  10.785   1.136 -0.1544  0.1780  0.3478
 7558W        W20972  18.505  14.267   4.322 -0.1093 -0.2455 -0.1298
 7559W        W20973  15.957  10.961  16.190 -0.0626  0.0051  0.1431
 7560W        W20974   6.674   0.629   0.985  0.1902 -0.3107 -0.0646
 7561W        W20975  11.345  13.848   2.280 -0.2287  0.0915 -0.2587
 7562W        W20976   3.788   4.105  15.414 -0.2748  0.0941 -0.0606
 7563W        W20977   2.695  11.432  16.264 -0.2012 -0.0607  0.1514
 7564W        W20978  13.777  12.524   5.249  0.3730  0.0418  0.0489
 7565W        W20979  13.913  16.265   0.981 -0.1851 -0.3348 -0.0339
 7566W        W20980   7.722   8.656  12.251 -0.2056 -0.3824 -0.1237
 7567W        W20981  15.407  17.524  13.304  0.0670  0.0039  0.2398
 7568W        W20982  16.215   1.259   0.479 -0.0308 -0.4075  0.0010
 7569W        W20983   4.046   4.540  15.434 -0.3145  0.0922  0.1033
 7570W        W20984   2.104   5.908   3.186  0.0363 -0.1997  0.2715
 7571W        W20985   5.192  17.157  13.155 -0.0230 -0.3258  0.0903
 7572W        W20986  12.911  13.188   2.376 -0.2101 -0.1343 -0.0407
 7573W        W20987  15.617  12.015   1.305  0.1119  0.1594 -0.1531
 7574W        W20988   3.660   4.883  12.526  0.0060 -0.2948  0.0243
 7575W        W20989   5.053   1.295  10.641 -0.1448  0.3363  0.0195
 7576W        W20990   4.950  18.152  15.523 -0.2153  0.0506 -0.1852
 7577W        W20991  14.179   0.819  10.067  0.0976 -0.0365  0.1488
 7578W        W20992   7.408   1.928   2.716  0.1929  0.0640  0.2244
 7579W        W20993  12.529   1.620   2.583  0.2209  0.0288 -0.1113
 7580W        W20994  16.367   3.327  14.556  0.1394 -0.0552  0.1622
 7581W        W20995   6.907   9.160  15.514 -0.0480  0.3211 -0.1301
 7582W        W20996  15.801   2.599  13.514 -0.0916 -0.1267 -0.3232
 7583W        W20997   1.035   1.810   1.470  0.1622 -0.0688  0.1297
 7584W        W20998   4.472  15.239  10.696 -0.1404  0.0262  0.1314
 7585W        W20999  10.643   0.578  15.119 -0.2183 -0.0309  0.0732
 7586W        W21000  12.699  13.532  14.078 -0.0042  0.0334 -0.1316
 7587W        W21001   5.887   7.987   6.237  0.1731 -0.0289 -0.1085
 7588W        W21002   2.328  17.143   6.047  0.0352 -0.3228 -0.4421
 7589W        W21003  13.591   3.343  11.365  0.0554 -0.0313  0.1757
 7590W        W21004  14.327  16.939   2.424  0.0180  0.0188 -0.0714
 7591W        W21005  13.565  15.680  16.192 -0.1259  0.1043 -0.3882
 7592W        W21006   2.249  17.604   5.332 -0.2506 -0.4156  0.0185
 7593W        W21007  10.925  14.353  13.976  0.2303  0.1845  0.2621
 7594W        W21008  17.938   8.520  14.329 -0.1435 -0.0832 -0.0831
 7595W        W21009  14.087  10.648  14.250 -0.1462  0.0978 -0.1399
 7596W        W21010  16.676  17.090  12.004 -0.0336  0.2399 -0.0237
 7597W        W21011   3.022  12.832  11.518 -0.2261  0.2212  0.0798
 7598W        W21012  17.321   9.697   0.616  0.0362 -0.2416  0.2580
 7599W        W21013  13.512  13.008   5.993 -0.2179 -0.2522 -0.1180
 7600W        W21014  18.112   7.386   4.339  0.3122 -0.0236 -0.1071
 7601W        W21015  16.443   5.930   2.405  0.0029  0.1174  0.1394
 7602W        W21016   4.962   1.921   1.238 -0.1719  0.0207 -0.1470
 7603W        W21017   1.970   6.470  12.559 -0.1426  0.0008 -0.1983
 7604W        W21018   9.234   6.420  13.161 -0.0909  0.0347  0.3262
 7605W        W21019  15.912   0.806   5.101  0.0494  0.2060 -0.3167
 7606W        W21020  13.786   9.427  14.426  0.0366 -0.0001 -0.1299
 7607W        W21021   1.635   8.352  15.282  0.2449  0.0456 -0.1997
 7608W        W21022  18.311   3.544  13.516  0.1221 -0.0410 -0.1802
 7609W        W21023  15.879   6.515  12.756  0.1421  0.0135 -0.0683
 7610W        W21024   5.875  14.615  15.354 -0.1610  0.2466  0.0587
 7611W        W21025   2.546   5.454  12.071  0.3145  0.0682 -0.4329
 7612W        W21026  14.156   3.541   5.953 -0.0589  0.0227 -0.4877
 7613W        W21027   2.957   4.984   5.603 -0.2139  0.2489  0.3211
 7614W        W21028  14.414   3.825   0.250 -0.3509 -0.4253 -0.1073
 7615W        W21029   9.194   4.053   5.722  0.0274 -0.1363 -0.1814
 7616W        W21030   0.972  10.019  12.994  0.2444  0.2330 -0.0406
 7617W        W21031   7.202   9.352   4.112  0.1650 -0.2539 -0.1501
 7618W        W21032  10.467  14.297  11.483 -0.2207 -0.2845 -0.3266
 7619W        W21033  12.650   8.587  10.967 -0.1467 -0.1128  0.2220
 7620W        W21034   4.943   4.284  12.113  0.0364 -0.0333 -0.0841
 7621W        W21035  17.695  11.282   5.652  0.1344 -0.1567  0.4164
 7622W        W21036   2.945   3.221   2.032  0.0667  0.1620  0.0871
 7623W        W21037  10.805   3.343   5.137 -0.4295 -0.1200  0.0576
 7624W        W21038   0.235  18.332  11.628 -0.0475 -0.0460 -0.0941
 7625W        W21039   5.420  11.086  15.241 -0.0100 -0.0010  0.0330
 7626W        W21040   8.865  10.252   1.970 -0.3867  0.2659  0.0236
 7627W        W21041  11.934   7.006  10.686 -0.0725 -0.0668 -0.0651
 7628W        W21042   8.615  10.412   2.394  0.2036  0.0498  0.2175
 7629W        W21043  11.524  13.289  14.859 -0.0421  0.3246  0.0999
 7630W        W21044   3.955  15.204   0.649  0.1253  0.1184  0.0354
 7631W        W21045  12.235   5.658   4.731  0.0534  0.0540  0.7497
 7632W        W21046   2.154  11.303   4.497  0.1898  0.1154  0.1140
 7633W        W21047  10.670  18.047  12.872  0.2601  0.4890  0.2621
 7634W        W21048   2.943   9.222  14.133 -0.0719  0.1775  0.2175
 7635W        W21049   4.211  16.028  11.765 -0.0072  0.1591  0.0076
 7636W        W21050  17.557  17.616   2.615 -0.2104 -0.0992  0.2738
 7637W        W21051  11.905   0.068  14.589  0.1668  0.0113 -0.1496
 7638W        W21052  11.850   6.305   2.734 -0.0415 -0.0395  0.1097
 7639W        W21053  11.331   3.166   5.210  0.0730  0.2243 -0.0702
 7640W        W21054   5.120   8.896   4.727  0.0804 -0.2254  0.0606
 7641W        W21055  16.039  12.825  12.627  0.0583  0.0718  0.0214
 7642W        W21056   7.249  15.711   4.083 -0.1618  0.1124  0.0649
 7643W        W21057  16.810  13.620  15.411 -0.1462 -0.1151 -0.0942
 7644W        W21058  10.059  11.905   3.136  0.3216 -0.2597 -0.0028
 7645W        W21059   8.367   5.680  13.716 -0.0376  0.1571  0.2560
 7646W        W21060   3.247  15.191  10.413 -0.0103  0.1112  0.1200
 7647W        W21061   9.998   8.930   1.305  0.1572 -0.0010  0.4063
 7648W        W21062   0.076   0.422  14.906  0.0158  0.0730 -0.0284
 7649W        W21063  16.940  10.104   0.600 -0.0511  0.0633  0.1940
 7650W        W21064   1.320   3.142  15.534  0.1869  0.1934 -0.0737
 7651W        W21065  10.954   1.267   5.700 -0.1215  0.0275  0.2174
 7652W        W21066   8.354   5.132   1.348  0.1559 -0.3507 -0.1067
 7653W        W21067  11.749  15.919   2.370 -0.0343 -0.1465 -0.0599
 7654W        W21068  16.453  15.635   2.611 -0.2699 -0.2045  0.1854
 7655W        W21069   0.484  13.189   3.687  0.0249  0.0387 -0.3235
 7656W        W21070  11.702  10.181   2.412  0.2013 -0.2158  0.0041
 7657W        W21071  14.371  16.112   1.554  0.2773 -0.1572 -0.0106
 7658W        W21072   9.636   8.590   1.579 -0.1385 -0.4600  0.1356
 7659W        W21073   7.775   7.037   0.182 -0.0997 -0.0678 -0.0981
 7660W        W21074   4.839  13.149  11.257 -0.0741  0.0012 -0.2012
 7661W        W21075   0.142   7.888   1.487  0.1160  0.1182 -0.0049
 7662W        W21076  17.789   2.283  15.796  0.0104 -0.1055 -0.1072
 7663W        W21077   1.124   3.164   3.356 -0.0570  0.0369 -0.1025
 7664W        W21078   7.252  14.824  13.782  0.0580 -0.0897  0.3216
 7665W        W21079  10.102  15.914   3.718 -0.4065 -0.4171 -0.0484
 7666W        W21080   8.590  13.767   5.257 -0.0681  0.5357  0.2219
 7667W        W21081   9.659  10.503   6.335  0.0982 -0.0669  0.0147
 7668W        W21082   0.564   3.289  10.886 -0.2919 -0.1275 -0.2513
 7669W        W21083   6.809   2.261  10.853  0.0510  0.0038  0.1540
 7670W        W21084   6.440  13.517   0.506 -0.0708 -0.0634 -0.0299
 7671W        W21085   1.421   5.831   4.004  0.2567  0.2069  0.1439
 7672W        W21086  14.748  10.798   4.937  0.0288 -0.2139  0.1148
 7673W        W21087  14.679  12.651   3.706  0.2952  0.0047  0.2197
 7674W        W21088  11.246   0.610  11.445  0.1074  0.0060  0.1663
 7675W        W21089  14.698   6.776  12.083  0.0049  0.2814 -0.1418
 7676W        W21090   5.499  10.282   5.237 -0.0112 -0.0663 -0.1027
 7677W        W21091   0.972   7.690   3.238 -0.4152 -0.0257  0.1662
 7678W        W21092  13.164   7.958  11.525  0.0982 -0.0254 -0.1386
 7679W        W21093   4.184  14.331  14.958 -0.0536  0.3716  0.2122
 7680W        W21094  10.815   7.686   1.401  0.2374 -0.1563  0.3241
 7681W        W21095   5.177  11.173  12.902  0.3578 -0.0927  0.2644
 7682W        W21096  13.479   1.352  13.412 -0.0082 -0.0947 -0.3743
 7683W        W21097   3.715  14.344  10.403 -0.0956 -0.0024 -0.1909
 7684W        W21098  11.809   5.469  11.953 -0.1687  0.2165 -0.0398
 7685W        W21099  15.880  15.653  14.611 -0.0450  0.0416 -0.3276
 7686W        W21100  12.520  10.940  15.366  0.2101 -0.1666  0.0539
 7687W        W21101   6.505   1.399  13.732  0.3117  0.0618  0.2576
 7688W        W21102   3.962   6.241  13.596  0.1210  0.0477 -0.3551
 7689W        W21103  11.458   6.926  13.954 -0.3371 -0.2243  0.1475
 7690W        W21104  17.733   9.387   3.426  0.0296 -0.2265  0.1783
 7691W        W21105   1.141  16.470   4.998  0.0731 -0.0541 -0.1598
 7692W        W21106   8.036  13.140  13.579 -0.0784  0.1521 -0.3709
 7693W        W21107   5.578  13.655  11.847 -0.1948  0.0233  0.0966
 7694W        W21108   7.154   6.334  11.766 -0.1367 -0.0442 -0.1608
 7695W        W21109   4.276   8.979   0.751  0.1983 -0.0125 -0.0641
 7696W        W21110  16.234  10.889   0.618  0.3130  0.2405  0.2389
 7697W        W21111   8.970   2.179  14.250  0.0174  0.2661 -0.0651
 7698W        W21112  12.518  16.613  13.414  0.2804  0.1611  0.1248
 7699W        W21113   0.894   4.016  15.879 -0.0733 -0.2674  0.1987
 7700W        W21114   9.071   5.661   2.286  0.6402  0.1034 -0.0810
 7701W        W21115  11.774   3.772  15.358  0.2159  0.0147 -0.0677
 7702W        W21116  15.323  18.161  14.202 -0.0805 -0.1173 -0.2197
 7703W        W21117   2.887   1.839  14.095  0.1661 -0.0783  0.1297
 7704W        W21118  17.964   8.809  13.906 -0.0360 -0.0588 -0.0341
 7705W        W21119  16.456  12.133   4.272  0.3138  0.3298 -0.0117
 7706W        W21120  12.064   0.385   4.182 -0.0234  0.0059 -0.1019
 7707W        W21121   2.798   6.614   2.504 -0.2117  0.1167  0.0264
 7708W        W21122  13.532   7.806  15.810 -0.1331 -0.0420  0.2911
 7709W        W21123  15.392  17.480   1.889  0.1268  0.1214  0.0276
 7710W        W21124  12.291  12.061   2.223  0.1943  0.0945 -0.0645
 7711W        W21125   0.090  17.303   3.624 -0.0009  0.0325 -0.1902
 7712W        W21126  11.174   6.206   2.811 -0.0235 -0.0084  0.1810
 7713W        W21127   8.019   3.996   5.704 -0.0683 -0.0005  0.2707
 7714W        W21128   4.358   7.396   1.546 -0.0148  0.0618  0.0898
 7715W        W21129   5.392   9.055  11.093  0.1894 -0.1190 -0.2933
 7716W        W21130   7.598   6.511  15.964 -0.2724  0.2782  0.0538
 7717W        W21131   9.598   4.736  14.269  0.0836 -0.0493  0.0612
 7718W        W21132  13.756   0.758  13.256  0.1440  0.1466 -0.2092
 7719W        W21133   8.965   4.450   1.349  0.2774  0.0044  0.0143
 7720W        W21134   6.857  11.851  15.516 -0.1605 -0.0608  0.2042
 7721W        W21135   2.588   3.822   4.309  0.2340  0.2490 -0.2532
 7722W        W21136   9.993   9.498  12.630 -0.0652 -0.0907  0.0726
 7723W        W21137   5.537  17.733  10.475  0.0159 -0.0368 -0.1078
 7724W        W21138  18.095  12.209  15.908 -0.2284 -0.1392  0.1901
 7725W        W21139   4.578  14.542  15.810 -0.1017  0.3766 -0.0655
 7726W        W21140  16.809   3.942   3.547  0.2589  0.0089 -0.0220
 7727W        W21141  14.453   6.323  15.747  0.0365 -0.2426  0.2995
 7728W        W21142   0.121  10.819  13.063  0.0220 -0.0492 -0.2918
 7729W        W21143   2.233  16.373  13.856  0.0473 -0.1021 -0.2034
 7730W        W21144  13.705   8.189  14.694 -0.0117  0.0406 -0.4684
 7731W        W21145   6.935   1.190   5.177 -0.1402 -0.3374 -0.0904
 7732W        W21146   7.749  11.402   4.111  0.0384  0.4006 -0.0898
 7733W        W21147   8.293   9.177   1.941 -0.2009 -0.2150 -0.1915
 7734W        W21148  10.834   8.947  16.251 -0.1885  0.0851  0.0682
 7735W        W21149  11.041  11.350   4.001  0.0308 -0.3814 -0.2536
 7736W        W21150   8.323  13.652  13.138 -0.1450 -0.3737  0.1086
 7737W        W21151   7.860   8.862   3.784  0.3444  0.3720  0.1755
 7738W        W21152   7.928  12.807  11.667 -0.3388  0.0611 -0.2006
 7739W        W21153  14.660   5.510   2.719 -0.1518  0.4696  0.1358
 7740W        W21154  11.714  17.172  11.641  0.2610  0.0777  0.1721
 7741W        W21155   5.966  15.266   2.423  0.1033  0.0187 -0.1464
 7742W        W21156  16.210  16.764  13.708 -0.0118  0.1148 -0.2639
 7743W        W21157   2.999  16.009  11.948  0.4630  0.0118  0.0163
 7744W        W21158   3.374  10.910  10.434 -0.3452 -0.1411 -0.0470
 7745W        W21159   8.455   8.356  11.598  0.0518 -0.0199  0.0755
 7746W        W21160  17.290   2.471  10.559  0.2936  0.2648 -0.0901
 7747W        W21161   0.684  11.343  11.564  0.0085 -0.1140  0.0283
 7748W        W21162  12.594   5.049  10.787  0.3017 -0.3826  0.2153
 7749W        W21163  12.725  11.774   1.314 -0.1573  0.0515  0.2240
 7750W        W21164  15.648  14.262   4.074  0.0825 -0.1259  0.3606
 7751W        W21165   2.387  17.873  13.952  0.2366  0.1963  0.1346
 7752W        W21166  17.375   7.699  14.298  0.0177 -0.0553  0.1418
 7753W        W21167  15.993   2.553  11.783 -0.0533 -0.1031  0.1652
 7754W        W21168  17.401   4.816  16.243 -0.1551  0.1589  0.1491
 7755W        W21169  17.302  14.220   0.185 -0.1257  0.2890  0.1161
 7756W        W21170  10.357   1.499  14.082 -0.2891  0.8177 -0.1890
 7757W        W21171  15.603  12.224   5.734 -0.0926  0.2470 -0.0013
 7758W        W21172   9.791   6.940   1.306 -0.2788 -0.0105  0.0175
 7759W        W21173   1.724   8.014  13.267 -0.0708  0.1879 -0.0578
 7760W        W21174   7.930   3.745   5.234 -0.0841  0.0534  0.0861
 7761W        W21175  14.912   4.287   1.387  0.1069  0.0892 -0.2640
 7762W        W21176  17.835  15.028  15.359  0.2517  0.0758  0.0290
 7763W        W21177  15.364  10.490   0.106 -0.0192  0.0631  0.0744
 7764W        W21178  17.050  12.656   0.764  0.2101  0.4837  0.1076
 7765W        W21179   6.867   8.335   5.079 -0.0320  0.1570  0.2566
 7766W        W21180  17.281  15.495   0.757  0.0760 -0.2659 -0.0241
 7767W        W21181   4.972   9.050  12.273 -0.0746  0.1521  0.2440
 7768W        W21182  13.481  18.054   0.584 -0.0579 -0.0947 -0.3081
 7769W        W21183   0.820  17.554   2.153  0.1821 -0.0464  0.0610
 7770W        W21184  15.424  13.522  12.201 -0.0229  0.0142  0.0938
 7771W        W21185   1.474   6.371   2.865 -0.1453 -0.0457  0.0814
 7772W        W21186   8.216   3.002  13.547 -0.2822 -0.2206 -0.1175
 7773W        W21187  18.153   6.507   4.247 -0.0426  0.3288  0.1645
 7774W        W21188   4.034   5.213   5.520 -0.3667 -0.2570  0.2598
 7775W        W21189   0.107   6.582   6.661 -0.0640  0.0361  0.0677
 7776W        W21190  17.742  10.075  12.327  0.0390  0.1829 -0.1006
 7777W        W21191   9.102   4.707  12.076 -0.0322  0.1708 -0.0641
 7778W        W21192  11.983   9.077   0.446 -0.1842 -0.0908 -0.0008
 7779W        W21193   9.296   0.897  11.213  0.0131 -0.2882 -0.0608
 7780W        W21194  11.990  14.178   2.723 -0.0214  0.0635 -0.0621
 7781W        W21195  10.823  15.164   1.566 -0.0972 -0.1167  0.6305
 7782W        W21196   0.138   8.735  11.974 -0.1457  0.2195  0.1992
 7783W        W21197   3.697  15.236  16.018  0.0097 -0.1150  0.1901
 7784W        W21198  14.929  15.525  12.919 -0.0987 -0.0187 -0.1736
 7785W        W21199   8.883   7.863  13.391 -0.0301 -0.1019  0.1714
 7786W        W21200   4.200  15.238   6.180 -0.2201  0.0437  0.0997
 7787W        W21201  13.983   5.285   1.305 -0.2577  0.3725  0.1381
 7788W        W21202   3.402  14.927  15.796  0.0191 -0.0558 -0.0648
 7789W        W21203   4.186   8.044   0.144 -0.2897  0.0154  0.0364
 7790W        W21204  14.662   6.452   2.132 -0.1146 -0.0049  0.0016
 7791W        W21205  16.436   0.595  11.676 -0.2246  0.1157 -0.0078
 7792W        W21206  16.866   6.683  16.246 -0.0188 -0.0236  0.3058
 7793W        W21207   0.663  12.404   4.177 -0.0841  0.0733  0.1089
 7794W        W21208   3.049  12.328  11.725 -0.0670  0.0064 -0.0109
 7795W        W21209   1.509   2.900   5.280 -0.0847 -0.1614  0.0485
 7796W        W21210  10.758   8.023  14.788 -0.2230 -0.2073 -0.1092
 7797W        W21211   2.757  10.417   4.335 -0.0839 -0.1705  0.1186
 7798W        W21212  14.357  11.321   0.075  0.1013  0.0180  0.0562
 7799W        W21213   5.689   1.967  14.208  0.0812 -0.3856 -0.1029
 7800W        W21214   5.701   3.906  15.621 -0.1730  0.0217  0.1972
 7801W        W21215  12.933  11.935  13.053 -0.2776 -0.1567  0.2436
 7802W        W21216  13.670   9.114  12.811 -0.1109 -0.1380 -0.0389
 7803W        W21217  18.333   9.436   2.136  0.0589 -0.1239  0.1603
 7804W        W21218   1.617  17.428  13.364 -0.2162 -0.0672 -0.2992
 7805W        W21219  17.258  13.305  14.608 -0.0796  0.0246  0.0122
 7806W        W21220  15.599  14.306  14.731  0.1567 -0.0299 -0.2357
 7807W        W21221   7.429   6.852  10.578  0.2605  0.0295 -0.0873
 7808W        W21222  10.377  14.522   2.748  0.2801 -0.1229  0.1338
 7809W        W21223  17.777   0.613   2.496  0.0357 -0.1765  0.2892
 7810W        W21224   9.194  17.057  12.811  0.2391 -0.1061  0.3246
 7811W        W21225  17.121   7.298   1.223  0.0871 -0.2801 -0.3138
 7812W        W21226   3.785  10.882   3.512 -0.3039 -0.0371  0.1682
 7813W        W21227   0.896  15.284   1.040 -0.0395 -0.0543 -0.1646
 7814W        W21228  14.318   7.198   3.835 -0.0962 -0.1801 -0.0573
 7815W        W21229  13.506  13.035  15.516 -0.0442  0.1400  0.4456
 7816W        W21230   5.543   5.593   1.757  0.0261  0.1152 -0.0165
 7817W        W21231  15.668   1.634   4.796  0.3413 -0.1538 -0.1091
 7818W        W21232  14.442  12.995   1.583  0.1743 -0.0075  0.0896
 7819W        W21233   7.342   3.490  12.419  0.1283 -0.4381  0.0190
 7820W        W21234   1.314   3.349   0.798  0.1489  0.0571  0.2954
 7821W        W21235  14.626  10.955  15.578  0.2349 -0.0146  0.1741
 7822W        W21236   6.882   7.235   0.170  0.0823  0.1325 -0.1045
 7823W        W21237   0.091   5.598  13.589 -0.0169 -0.0334 -0.0921
 7824W        W21238  16.646  11.519  13.435  0.1510  0.3518  0.3024
 7825W        W21239   9.846  11.297   2.558 -0.3204 -0.2741 -0.0905
 7826W        W21240   8.314  13.782  14.355 -0.0974  0.0522 -0.1861
 7827W        W21241   6.788  16.169  13.616  0.3247 -0.1103  0.0242
 7828W        W21242   5.690   2.836   4.693  0.2707  0.0910 -0.1151
 7829W        W21243   0.298   6.939  14.721  0.1697 -0.3535 -0.0259
 7830W        W21244   5.839   2.815   5.246  0.2079  0.2116 -0.3294
 7831W        W21245  14.717  15.254   1.616  0.1338  0.2529 -0.0394
 7832W        W21246   6.906  11.309   2.594  0.1596 -0.0074 -0.0099
 7833W        W21247  18.508  10.154  14.367  0.2712 -0.1858  0.0094
 7834W        W21248  11.643  13.860   2.647 -0.0784  0.5500  0.1909
 7835W        W21249   9.515   8.505  15.908  0.1673  0.2252 -0.0611
 7836W        W21250  10.458  15.263  10.861 -0.0038 -0.1386  0.3163
 7837W        W21251  13.850  13.008   5.524  0.0952  0.2080 -0.1721
 7838W        W21252   9.104   6.336  13.664 -0.1233  0.1935  0.1194
 7839W        W21253  18.380   9.061  12.180  0.1219 -0.0138 -0.1761
 7840W        W21254  14.234   8.402  14.708  0.0708 -0.2230  0.0732
 7841W        W21255  11.327   1.987   2.607 -0.3393  0.1270 -0.1092
 7842W        W21256  17.720   9.756  13.209 -0.1159 -0.0966 -0.3292
 7843W        W21257   4.226   4.726  11.500  0.1535  0.0670 -0.1669
 7844W        W21258  13.510  14.131   0.175  0.0489 -0.4730  0.0528
 7845W        W21259  16.757  10.935   0.686 -0.1157  0.0334 -0.1188
 7846W        W21260   9.815  12.703   1.946  0.0174 -0.1152  0.0606
 7847W        W21261   3.399   8.651  13.581 -0.0072 -0.2232 -0.0560
 7848W        W21262   4.118  14.264   1.095 -0.1279  0.0549  0.0510
 7849W        W21263   9.188  13.670  15.593 -0.5318  0.2460  0.1085
 7850W        W21264  14.576   7.936  11.553  0.1209  0.1323 -0.1166
 7851W        W21265   2.827  17.336   0.428  0.0528  0.1781  0.0174
 7852W        W21266   2.127  11.827  12.190 -0.0997 -0.0974  0.1597
 7853W        W21267  18.136  12.793   1.344 -0.1193  0.0355 -0.2610
 7854W        W21268  14.121   5.386   5.937  0.2539 -0.1392 -0.1422
 7855W        W21269  16.623   5.486  12.601  0.1042  0.1102  0.2854
 7856W        W21270   2.752  15.296  13.299  0.1056  0.2251  0.3400
 7857W        W21271  15.561  14.729  16.228 -0.2222  0.1910  0.1103
 7858W        W21272   0.968   6.385   3.447  0.1163 -0.0050 -0.0930
 7859W        W21273  10.232  11.836   0.089  0.1589 -0.0404  0.4252
 7860W        W21274  18.487  13.539  12.468  0.0547 -0.0542  0.1690
 7861W        W21275  18.442  12.153   2.924  0.0858  0.2974  0.0426
 7862W        W21276   4.037  13.372   1.819 -0.2274  0.0705 -0.0308
 7863W        W21277   2.442  10.653   3.066 -0.0557 -0.4897  0.2926
 7864W        W21278   0.329  14.867   1.749 -0.0874  0.0690  0.2755
 7865W        W21279   3.983   7.825  12.721 -0.0330 -0.1957 -0.1166
 7866W        W21280   4.983  14.379  10.778  0.0008 -0.2348  0.1148
 7867W        W21281  14.173   6.239   3.332 -0.1926  0.0090 -0.1958
 7868W        W21282   3.291  15.535   4.480  0.1180  0.1230 -0.1277
 7869W        W21283  17.664   0.971  13.503 -0.0876  0.0394 -0.2177
 7870W        W21284   2.216   0.616  14.763 -0.0109 -0.0278  0.0459
 7871W        W21285   3.834   8.435   3.982 -0.0480 -0.0443  0.0274
 7872W        W21286  12.006  13.195  11.553 -0.0557 -0.0913  0.0207
 7873W        W21287   1.102   9.303  15.671 -0.0916  0.0332 -0.0265
 7874W        W21288   9.216   4.091   1.756  0.0820 -0.3397 -0.1210
 7875W        W21289   1.155   4.522   1.012 -0.1105  0.4346 -0.2003
 7876W        W21290  12.635  14.151  11.206 -0.0432  0.0285 -0.1640
 7877W        W21291   3.402  17.081  11.321  0.0183  0.4028 -0.1781
 7878W        W21292   3.964   1.693   1.397  0.1808 -0.0702 -0.0466
 7879W        W21293  11.610  10.497  11.762  0.0081 -0.2076  0.0834
 7880W        W21294   5.434  17.615   3.226 -0.3389 -0.2295  0.0428
 7881W        W21295  12.436  14.963  11.080  0.1130  0.4129  0.0237
 7882W        W21296   8.601  18.092   2.528 -0.0733 -0.2201  0.1041
 7883W        W21297   3.792  14.723  14.390 -0.0369 -0.2715  0.1510
 7884W        W21298   5.667  17.175   2.934 -0.3811 -0.1773 -0.0817
 7885W        W21299   7.364  18.095   1.186 -0.1741  0.1530 -0.1076
 7886W        W21300  13.976   1.753   1.277  0.0170  0.1928  0.0707
 7887W        W21301   8.169   0.026   5.485 -0.0586 -0.0292 -0.3092
 7888W        W21302   5.478  14.740   2.140  0.2190 -0.1566 -0.1040
 7889W        W21303  18.183   2.707  10.554  0.0783 -0.0852 -0.2658
 7890W        W21304  17.096  15.192  13.412  0.0700  0.1743  0.0542
 7891W        W21305   0.175  18.093  15.669 -0.1234  0.0354  0.0714
 7892W        W21306   6.268  15.313   0.395  0.0709  0.1319  0.3142
 7893W        W21307   8.646   5.687   0.961  0.5499  0.0095 -0.1035
 7894W        W21308  13.262   5.219   2.474 -0.0672  0.0655  0.2029
 7895W        W21309   6.785   9.426   0.590  0.0157  0.1652 -0.0188
 7896W        W21310  10.715   1.062   3.730  0.0505  0.0148 -0.1536
 7897W        W21311   6.775  10.842  14.382  0.1200  0.0096 -0.1678
 7898W        W21312   3.055  12.776   2.821 -0.1839 -0.1340  0.2136
 7899W        W21313  11.937  15.747  14.765 -0.1546 -0.0106 -0.0270
 7900W        W21314  15.046  16.791  15.643 -0.3756 -0.2697  0.3492
 7901W        W21315   1.261   9.818  13.778 -0.0447  0.2579 -0.0813
 7902W        W21316   6.241  13.374   0.988 -0.0377 -0.1884  0.0116
 7903W        W21317   0.681  18.154  15.651  0.1800  0.0674  0.1494
 7904W        W21318   0.362  16.768   1.900 -0.2421  0.3066  0.1080
 7905W        W21319   7.489   6.471  12.080  0.0965 -0.3421  0.0256
 7906W        W21320   9.359   9.296   4.469  0.0803 -0.0805  0.0741
 7907W        W21321  12.524  12.848   2.476  0.1961 -0.2804 -0.1700
 7908W        W21322   7.890   5.793   2.063  0.0158 -0.0401  0.0528
 7909W        W21323  15.341   7.525   5.356  0.2484 -0.0939 -0.0694
 7910W        W21324  15.822   9.406   4.727 -0.2314  0.0614 -0.2118
 7911W        W21325  17.652  15.941  13.526 -0.3291 -0.0180 -0.0660
 7912W        W21326   6.580  12.182   3.349  0.4878 -0.1645  0.2070
 7913W        W21327  16.329   8.567  13.800  0.0975 -0.0375 -0.0525
 7914W        W21328   1.026  16.078  15.580  0.1413 -0.1476 -0.2355
 7915W        W21329   8.712  12.850   0.248 -0.2360 -0.0942  0.2645
 7916W        W21330   0.743  10.133   2.187 -0.0673 -0.0217 -0.1266
 7917W        W21331   9.131  15.944   5.182 -0.4126  0.0645 -0.1299
 7918W        W21332  10.188  13.605   4.765 -0.1544  0.0948  0.2694
 7919W        W21333   7.504   9.871   4.310  0.2597 -0.3025  0.2561
 7920W        W21334  15.368  14.038   0.557 -0.2069 -0.1040 -0.0395
 7921W        W21335   8.660  10.179   3.629 -0.1135  0.1316 -0.3990
 7922W        W21336   0.325  14.249  15.979 -0.0268  0.0777  0.1370
 7923W        W21337  14.220  14.358  16.079 -0.2826  0.4388 -0.2976
 7924W        W21338  12.057   2.416   0.345  0.2840 -0.2126  0.0084
 7925W        W21339   3.005   2.818  12.537  0.0257  0.0477  0.1322
 7926W        W21340   1.573   6.860  15.683  0.0354  0.0468  0.0114
 7927W        W21341   7.389  11.825   5.508 -0.0677 -0.1947  0.1058
 7928W        W21342  12.091  18.123  14.560  0.2334  0.0571 -0.0745
 7929W        W21343  12.232  14.321   1.470  0.0343  0.0681  0.0216
 7930W        W21344  12.521  12.293   3.711 -0.0127  0.0786 -0.1468
 7931W        W21345  13.327   2.519   1.634 -0.1579  0.2812  0.1421
 7932W        W21346  10.740   5.959   5.985 -0.0706  0.0914  0.1521
 7933W        W21347   4.994   0.648   1.777 -0.0296  0.2243 -0.1128
 7934W        W21348  16.801  11.712  11.312  0.0720  0.0176  0.0861
 7935W        W21349  15.134  11.900   1.101 -0.0384 -0.2274  0.4496
 7936W        W21350   6.907   8.966   0.861 -0.2392 -0.0368 -0.1900
 7937W        W21351   2.824  11.667   0.920  0.0527  0.4733  0.0561
 7938W        W21352   4.525   2.678   0.720 -0.1344  0.2616  0.2351
 7939W        W21353  12.488  15.430  12.365  0.0197  0.0135  0.0626
 7940W        W21354  18.066   1.500  11.349  0.1717 -0.0937 -0.2316
 7941W        W21355  18.476  16.929   2.383 -0.0013 -0.1983 -0.0216
 7942W        W21356   4.120   3.521   4.716 -0.4277  0.1456  0.0485
 7943W        W21357  13.128  11.968  15.381  0.2484  0.4166  0.1237
 7944W        W21358  14.728  11.961  10.666  0.1163 -0.4098 -0.2109
 7945W        W21359  15.506  18.220  14.902 -0.1988  0.0810 -0.1130
 7946W        W21360   7.747  10.373   2.210  0.0707  0.2594 -0.1810
 7947W        W21361   3.849   6.514   5.080 -0.1346  0.1145  0.1640
 7948W        W21362   7.398   7.926   3.758  0.0453  0.1923 -0.0673
 7949W        W21363  16.187   9.636  12.280 -0.3470  0.1975 -0.0344
 7950W        W21364  10.673  18.248  15.010 -0.1889  0.1259 -0.2238
 7951W        W21365  11.514   3.738   0.418 -0.0118 -0.2785 -0.0829
 7952W        W21366  13.141  11.224  15.883  0.1577  0.0540  0.0375
 7953W        W21367   9.329   0.484  12.573  0.0213 -0.0289 -0.2789
 7954W        W21368  18.296   6.949   3.062 -0.0368 -0.2715  0.2005
 7955W        W21369  12.217   8.261  11.340  0.1108 -0.0840 -0.0076
 7956W        W21370   4.421   0.824  15.249  0.1435 -0.0186 -0.0077
 7957W        W21371  16.069   2.198   6.212 -0.3508 -0.0629  0.1177
 7958W        W21372  13.542   5.207   0.601 -0.0918  0.1162 -0.0863
 7959W        W21373   2.517   4.223   5.106 -0.0781 -0.2048 -0.0184
 7960W        W21374   5.726  18.223  13.905  0.0997  0.1329 -0.0504
 7961W        W21375   5.439   3.718   5.356  0.2339  0.3338  0.0535
 7962W        W21376   7.279   4.501  16.250 -0.0768  0.2568  0.0893
 7963W        W21377   9.010  17.789   2.595 -0.2245 -0.2037 -0.1025
 7964W        W21378   0.769   2.639  14.079 -0.3471  0.0100  0.3228
 7965W        W21379  11.189   9.729   0.169 -0.0453 -0.1885  0.2371
 7966W        W21380  15.301   2.731   2.669 -0.2216  0.1660 -0.1131
 7967W        W21381  16.846   3.962  12.493  0.1534  0.1473 -0.3044
 7968W        W21382   5.661   1.592   0.820  0.0727  0.0995 -0.1085
 7969W        W21383   5.513   8.135   5.104 -0.1567  0.1260  0.2244
 7970W        W21384   2.085  14.402   3.733  0.0899  0.1700 -0.3093
 7971W        W21385   4.031   4.556   1.721  0.0903  0.0652  0.0415
 7972W        W21386   4.166   0.113  10.684  0.0100  0.3089 -0.0466
 7973W        W21387   6.470   9.837   2.996 -0.0122 -0.2626  0.2622
 7974W        W21388   7.070   2.729   0.283 -0.0832 -0.1648  0.1077
 7975W        W21389   2.379  11.317  13.422  0.0615 -0.1371 -0.5162
 7976W        W21390  17.410  17.389  11.010 -0.0534  0.0229 -0.0621
 7977W        W21391   0.669  17.173   5.608  0.2578 -0.1575 -0.1300
 7978W        W21392  16.215   8.652   1.899 -0.0008  0.1897 -0.0009
 7979W        W21393   4.521  10.995   4.385 -0.0358  0.0960 -0.2102
 7980W        W21394  15.757  13.305  12.785  0.1626 -0.1295  0.1135
 7981W        W21395   2.385   5.815  15.780 -0.1307 -0.1164  0.2832
 7982W        W21396   8.178  14.265  12.404  0.3826  0.0486  0.2478
 7983W        W21397   1.767  15.744   5.989 -0.1214 -0.0625 -0.2371
 7984W        W21398  15.894  11.122  13.785 -0.0031 -0.0057  0.0353
 7985W        W21399   8.112   0.741   2.786  0.0445 -0.1227 -0.0056
 7986W        W21400  14.354   4.475  10.085 -0.1659 -0.3509 -0.4199
 7987W        W21401   9.156   9.516  15.743  0.1889  0.1061 -0.0063
 7988W        W21402  10.234   5.412  14.596 -0.0526  0.0233 -0.4025
 7989W        W21403   6.619  14.736  10.136 -0.2400 -0.1592 -0.0103
 7990W        W21404   6.933   7.677  10.943 -0.0001  0.0826 -0.0041
 7991W        W21405  11.317  17.007  16.226 -0.0182  0.1675 -0.1109
 7992W        W21406  10.038  13.811  14.098  0.1485  0.1601 -0.0560
 7993W        W21407   8.210   1.761   2.263  0.0410  0.0921 -0.0766
 7994W        W21408   0.229  15.068   3.804  0.1472  0.0612 -0.0263
 7995W        W21409   8.061   0.983  13.410  0.0869  0.6470 -0.0065
 7996W        W21410   4.594   6.269   3.551  0.0354  0.1990 -0.0730
 7997W        W21411   4.165   9.048  14.695 -0.0927 -0.0666 -0.1921
 7998W        W21412   6.231   4.899   4.812 -0.2903  0.0091  0.0714
 7999W        W21413  13.265  15.405   4.416  0.2361  0.2371  0.1570
 8000W        W21414  15.149  13.058  10.347  0.0305  0.2579  0.1250
 8001W        W21415   8.570  18.374   3.954  0.2396 -0.2700 -0.0341
 8002W        W21416  15.864  15.451   0.773 -0.1751 -0.0234  0.0040
 8003W        W21417  11.410  10.846   1.210  0.2126 -0.1376  0.0903
 8004W        W21418  14.711  17.058  11.548  0.2230 -0.0322  0.2107
 8005W        W21419   2.206  16.749  16.217 -0.4059  0.1193  0.0775
 8006W        W21420   6.523   6.427   1.945 -0.0637  0.0047 -0.1334
 8007W        W21421   1.879   9.233   0.107  0.1619  0.0646  0.0115
 8008W        W21422  11.008   7.125  15.271 -0.2001  0.0453 -0.2350
 8009W        W21423   3.934   4.259  13.828  0.0278  0.0798 -0.3880
 8010W        W21424   0.638   8.496   1.114 -0.4046 -0.1937 -0.1945
 8011W        W21425  16.677   5.103   5.274  0.0720  0.0088 -0.1176
 8012W        W21426  10.925  13.651  13.354  0.2897 -0.2096 -0.3080
 8013W        W21427  11.102   6.318   2.097 -0.1402  0.2956 -0.2914
 8014W        W21428   6.221  13.252   0.175  0.0836 -0.0499  0.0873
 8015W        W21429  13.488  10.523   0.008 -0.0417  0.1234 -0.2577
 8016W        W21430  10.308  11.875   3.550 -0.1617  0.0669 -0.0833
 8017W        W21431   3.833   2.639  15.867  0.0417  0.2900  0.1047
 8018W        W21432  12.294   3.616   3.334  0.1473  0.0125 -0.1580
 8019W        W21433   5.209   8.476   2.089  0.0983  0.0846  0.1024
 8020W        W21434   0.022   8.780   2.519  0.1863 -0.0097  0.0315
 8021W        W21435   0.111   2.431   3.692  0.1873  0.1009  0.2240
 8022W        W21436  14.337  10.051   1.890 -0.2577  0.0365  0.1007
 8023W        W21437   8.702  11.065   1.196 -0.0028  0.1907 -0.0251
 8024W        W21438   0.473  18.234  13.058  0.1994 -0.0790 -0.0426
 8025W        W21439  15.984  12.596  13.860 -0.0156 -0.4471 -0.2098
 8026W        W21440   8.588  11.275   2.736 -0.1752  0.4060  0.0378
 8027W        W21441   7.346  15.889   5.751  0.0678  0.0095  0.2278
 8028W        W21442   6.374  10.975  11.542 -0.1210  0.0588  0.2469
 8029W        W21443  13.339  16.853   6.017  0.1659  0.1813  0.0518
 8030W        W21444  14.816  17.573  13.654  0.1093  0.0802 -0.0762
 8031W        W21445   3.498  16.063  15.605  0.0873 -0.0013 -0.0303
 8032W        W21446   5.502   9.879  12.796  0.4018  0.2271  0.1295
 8033W        W21447  15.515  15.773   3.408 -0.2055  0.0376 -0.2716
 8034W        W21448  14.066   4.411   4.671 -0.1089 -0.1236  0.0068
 8035W        W21449  11.120  10.341   1.163  0.1385 -0.0988 -0.1097
 8036W        W21450   9.816   9.977   4.130  0.0617  0.5096 -0.2185
 8037W        W21451  11.504  11.752   4.974  0.0316 -0.1721 -0.1663
 8038W        W21452  17.415  12.712   0.329  0.1165  0.0030  0.1949
 8039W        W21453  15.804   2.219  16.011 -0.3037  0.0228 -0.0517
 8040W        W21454  15.955   6.669   1.548  0.1199 -0.1263 -0.2355
 8041W        W21455  10.745   9.434   5.224 -0.4542  0.0991 -0.0351
 8042W        W21456   3.931   4.950   4.728 -0.3097  0.3911 -0.1782
 8043W        W21457  18.184   4.307   0.230 -0.1365  0.1618  0.1290
 8044W        W21458  10.297  10.873   3.229  0.1091  0.1157  0.1718
 8045W        W21459  11.281   0.244   1.384  0.1214  0.2581  0.0082
 8046W        W21460   4.786  13.484   3.390  0.1526  0.1155 -0.1055
 8047W        W21461  14.024   4.696  13.464  0.0360  0.3144 -0.1021
 8048W        W21462  17.789   9.218  12.847  0.0174  0.3162 -0.3354
 8049W        W21463   7.505   6.640  13.399 -0.0756  0.0926 -0.0865
 8050W        W21464  11.186   2.409   4.297 -0.1415  0.1291 -0.4114
 8051W        W21465   8.710   2.660   0.552 -0.1360 -0.0426 -0.0100
 8052W        W21466  15.092  11.323  15.615 -0.2760  0.0571  0.2253
 8053W        W21467   4.958   4.501  15.783  0.0701 -0.0453 -0.1161
 8054W        W21468   1.798   5.585   2.559 -0.1079 -0.0945  0.0097
 8055W        W21469   2.829   5.332  11.663  0.3181  0.1580 -0.2464
 8056W        W21470  15.760   0.032   4.494  0.0311 -0.1038 -0.0647
 8057W        W21471  15.732  18.147  15.401 -0.0445 -0.0713 -0.4314
 8058W        W21472   3.835   1.965  11.426 -0.1697  0.3094 -0.0090
 8059W        W21473   7.153   9.129   5.399  0.2316 -0.3190 -0.1140
 8060W        W21474   1.815  18.519  12.583  0.2789 -0.0847 -0.3232
 8061W        W21475  13.296  15.445  15.234  0.0335 -0.1125 -0.0285
 8062W        W21476  10.289  13.827  11.591 -0.0885 -0.0650 -0.0894
 8063W        W21477   9.922   3.896   2.373  0.1611 -0.0473  0.1804
 8064W        W21478   4.922  18.069   0.796  0.0986  0.0674 -0.0036
 8065W        W21479  13.132  14.920  13.526  0.0526  0.2034 -0.1039
 8066W        W21480   8.847  17.176  13.242 -0.1053  0.0608 -0.0161
 8067W        W21481  10.846   0.766  15.870  0.2270  0.2917 -0.0087
 8068W        W21482   5.651   3.646   2.020  0.2082 -0.1642  0.0958
 8069W        W21483  17.304   7.350   2.471  0.1291 -0.1755  0.0243
 8070W        W21484   7.351   2.654   3.425  0.0139 -0.1429  0.3347
 8071W        W21485   7.432   6.972  15.467 -0.1526  0.0614  0.2394
 8072W        W21486  17.988  12.847   2.504  0.0606  0.0618 -0.0800
 8073W        W21487  13.032  17.853   5.157  0.3021  0.0646  0.1678
 8074W        W21488  11.815  16.890   4.439  0.1927  0.1721  0.0724
 8075W        W21489  10.606   2.316  14.916 -0.0421 -0.0976  0.0562
 8076W        W21490  15.531   9.704  11.097 -0.2412 -0.3469 -0.1273
 8077W        W21491   2.042  17.073  11.333 -0.0567 -0.0254  0.0652
 8078W        W21492  14.886   6.748   3.064  0.0097 -0.3976  0.2521
 8079W        W21493   8.443   3.122  14.331 -0.0828 -0.0612  0.0735
 8080W        W21494  13.280   8.837  15.338  0.1305 -0.2587 -0.0891
 8081W        W21495   2.806  15.004  14.269 -0.1327  0.1287  0.4167
 8082W        W21496   1.448   4.964  10.395  0.0883  0.2087 -0.0304
 8083W        W21497  13.889   5.711  13.281  0.3813 -0.4226 -0.0990
 8084W        W21498   5.478   2.874   0.299  0.1893  0.0270 -0.0623
 8085W        W21499   5.080  14.805   2.471 -0.2645  0.1273  0.1913
 8086W        W21500   0.305  14.977   2.556  0.1639 -0.0466 -0.3913
 8087W        W21501   8.826   7.240   2.410 -0.0879 -0.1172 -0.0429
 8088W        W21502   3.415  15.145  11.580 -0.0775  0.2546 -0.0674
 8089W        W21503   3.383  17.966   4.096  0.1303  0.2790  0.2634
 8090W        W21504  12.328  13.660  12.517 -0.0752 -0.2871  0.0664
 8091W        W21505   5.545   2.526   4.178  0.0965  0.2990  0.0470
 8092W        W21506   4.227  12.036  10.996 -0.2603 -0.0920 -0.0304
 8093W        W21507  13.995  12.840  12.596  0.1845  0.2335 -0.0518
 8094W        W21508   5.485   1.974   2.691  0.1228  0.3044  0.0975
 8095W        W21509   3.275   6.272  14.155 -0.0153  0.0207  0.0238
 8096W        W21510  11.007   8.890   5.595 -0.0528  0.0488  0.0123
 8097W        W21511   7.177   0.151   4.514  0.1453 -0.2936 -0.0561
 8098W        W21512   6.175   2.151  15.404  0.2095 -0.1728 -0.2733
 8099W        W21513   4.168   0.080   3.456  0.0502 -0.1065  0.0028
 8100W        W21514   1.390   2.422   1.982  0.0851 -0.0977 -0.2531
 8101W        W21515   9.709   7.763  11.935  0.0627 -0.0363  0.1025
 8102W        W21516   5.217   2.134   5.431  0.0449 -0.1257 -0.0806
 8103W        W21517   3.529  15.001  12.397 -0.1415 -0.1695 -0.0648
 8104W        W21518  14.598  11.471  15.652  0.2582 -0.1824 -0.3345
 8105W        W21519  16.925  12.434   1.197 -0.3057 -0.0233  0.1080
 8106W        W21520   0.339   6.618   5.106  0.0989  0.1061 -0.1806
 8107W        W21521  13.265   3.150   4.941 -0.3976  0.0275 -0.0194
 8108W        W21522  14.549  14.003  11.793 -0.2444 -0.0298  0.1999
 8109W        W21523   0.431  13.702  15.571 -0.2824  0.0943  0.4699
 8110W        W21524   4.675   6.054  15.107  0.1941 -0.3898 -0.1843
 8111W        W21525  14.078   9.696  16.097  0.1754 -0.0697  0.0299
 8112W        W21526  15.135   6.976   0.652 -0.0402 -0.0467  0.1790
 8113W        W21527  10.734   2.825  15.520 -0.0543  0.1636 -0.1445
 8114W        W21528  12.767  15.075   4.606 -0.3354  0.0419 -0.1618
 8115W        W21529   9.052   9.883   4.628  0.0374 -0.1697  0.2067
 8116W        W21530   7.352  11.723   2.710 -0.0342  0.0981 -0.0144
 8117W        W21531   9.484   6.138   4.007 -0.0841 -0.0622 -0.2256
 8118W        W21532   5.561   2.471  10.576  0.0274 -0.0034  0.2352
 8119W        W21533  11.348   5.286   2.238  0.1663 -0.1825  0.1839
 8120W        W21534   2.946  16.085   0.630 -0.0764  0.0956  0.1047
 8121W        W21535  10.261  15.990  13.381  0.1247  0.0681  0.0597
 8122W        W21536  12.940   2.672   6.011 -0.0813  0.0269  0.2519
 8123W        W21537   6.709  16.814   1.883 -0.1151  0.4249  0.2898
 8124W        W21538   0.961  12.819  14.634  0.1317 -0.3069 -0.1568
 8125W        W21539   8.141  15.392   0.460 -0.1664 -0.1260 -0.0948
 8126W        W21540   0.262  16.142  14.726  0.1316  0.2632  0.0008
 8127W        W21541   0.949   9.003   3.103  0.1627  0.1562  0.1404
 8128W        W21542  12.862  12.234   5.279 -0.0370  0.1210  0.2021
 8129W        W21543   1.262  17.402  11.640 -0.3081  0.0488 -0.0254
 8130W        W21544   0.989  11.835  13.296  0.0008  0.2196  0.0355
 8131W        W21545   6.108  17.804   9.986  0.0448 -0.2365  0.1236
 8132W        W21546   3.370   2.670  13.788  0.4422  0.0591 -0.0167
 8133W        W21547   6.698   6.938  13.763  0.0363  0.1133 -0.0758
 8134W        W21548  12.030   3.950   4.395 -0.2657  0.1026  0.1145
 8135W        W21549   8.981  16.990   5.420  0.0109  0.3064 -0.0128
 8136W        W21550   5.926  13.631   3.458 -0.0000  0.0992  0.0680
 8137W        W21551  12.892   3.349   5.257 -0.1836  0.2396 -0.1615
 8138W        W21552  11.080  12.719   3.693 -0.1772  0.2669 -0.1385
 8139W        W21553   9.259  11.320   4.540 -0.2998  0.2145  0.1753
 8140W        W21554  16.084  12.576   2.330 -0.3472  0.0440 -0.0491
 8141W        W21555   0.609   5.729  12.092 -0.3564  0.0418 -0.0241
 8142W        W21556   9.452   5.240  14.512 -0.0654 -0.1943  0.1626
 8143W        W21557   8.355   6.984  13.578  0.1429  0.0448  0.1258
 8144W        W21558   8.491  10.599  11.542 -0.1293  0.1232 -0.1806
 8145W        W21559   1.193   4.574  11.494 -0.2004  0.1110 -0.0465
 8146W        W21560   4.965  10.543  11.680 -0.0828 -0.3061  0.0383
 8147W        W21561  13.617   2.483  12.579  0.2523 -0.3036  0.0606
 8148W        W21562  17.868   7.494   6.631  0.2980 -0.0462 -0.1346
 8149W        W21563   8.566   7.171   5.848 -0.2742 -0.1498  0.1285
 8150W        W21564   1.413   2.665   3.332 -0.4090 -0.2157  0.0103
 8151W        W21565  13.937  18.045  14.971 -0.1088  0.2582 -0.2082
 8152W        W21566   7.786  11.451  15.151  0.0250  0.2035  0.0624
 8153W        W21567   9.162   8.849   1.870  0.1391 -0.0907  0.0847
 8154W        W21568   7.528   4.967  15.911 -0.0907 -0.2892 -0.0557
 8155W        W21569   0.156   8.307  14.787 -0.0826  0.2688 -0.1404
 8156W        W21570   2.736  13.654  13.672  0.1808  0.1697 -0.0375
 8157W        W21571  15.710  16.147  15.461 -0.1188  0.0322  0.2937
 8158W        W21572  11.174  15.456   0.369 -0.0157  0.2225 -0.0722
 8159W        W21573   7.338  11.455  10.632  0.1857  0.1662 -0.0606
 8160W        W21574  13.282   8.444  11.335  0.3705 -0.1076 -0.0450
 8161W        W21575  14.739   4.525  15.767 -0.1270  0.1919  0.0115
 8162W        W21576  14.910  13.630   4.890  0.0286  0.0993 -0.1393
 8163W        W21577   1.770   2.796  12.782  0.3689 -0.2646  0.0505
 8164W        W21578   0.871   3.340  12.499 -0.0719  0.0259  0.1413
 8165W        W21579  14.414   0.890  15.513 -0.1692  0.0602 -0.1271
 8166W        W21580   0.193  17.600  15.445 -0.2657  0.0977 -0.0117
 8167W        W21581   2.247   3.190   5.751 -0.1290 -0.0604  0.1115
 8168W        W21582  16.026  10.432   3.652 -0.0402 -0.0291  0.0709
 8169W        W21583   1.710  12.813  10.818 -0.0553  0.0061 -0.0645
 8170W        W21584  16.326  11.573  11.614 -0.0008 -0.1548  0.4736
 8171W        W21585   5.264   8.684   3.571 -0.0760 -0.1575  0.3373
 8172W        W21586   9.011   7.885   4.252 -0.1011  0.0052 -0.0101
 8173W        W21587  18.305  12.449   4.060 -0.2008  0.1294  0.4258
 8174W        W21588   9.323   0.412   1.634  0.0313  0.0405  0.0745
 8175W        W21589   7.368   1.815  13.134 -0.1534 -0.3578 -0.3673
 8176W        W21590   0.258   1.329  15.300  0.2102 -0.2222 -0.3706
 8177W        W21591   6.505  15.738  14.302 -0.1249  0.0786 -0.0569
 8178W        W21592  12.981   8.666   4.854  0.0163  0.1630  0.3251
 8179W        W21593  17.025  15.715   1.151 -0.2653  0.0603 -0.0736
 8180W        W21594   6.916  15.336  14.188  0.0402 -0.0695  0.3291
 8181W        W21595  10.572  14.121   2.518  0.0100  0.0773 -0.3211
 8182W        W21596  13.499   3.331  13.573 -0.1279 -0.2303 -0.1809
 8183W        W21597   9.320  15.750  10.674  0.2273 -0.2030  0.0560
 8184W        W21598   4.457  16.991  15.831 -0.1853  0.1503 -0.1551
 8185W        W21599   2.794  17.894   1.310  0.0494 -0.4898  0.3108
 8186W        W21600   2.202  16.784  10.696  0.2531  0.2680  0.1266
 8187W        W21601   4.665   4.220   3.099  0.0004  0.0363 -0.2281
 8188W        W21602   3.833   3.863   0.488 -0.1112  0.2827  0.1782
 8189W        W21603   3.131   7.341   4.327 -0.1175 -0.1032 -0.0842
 8190W        W21604  15.463   6.081  13.556  0.1903  0.0463  0.0522
 8191W        W21605   2.362   0.263  13.862  0.1578  0.2218 -0.0262
 8192W        W21606   6.488   5.545   0.004 -0.3255 -0.3230  0.1296
 8193W        W21607  11.247  14.658   5.408 -0.4140 -0.2219  0.1013
 8194W        W21608   1.398  11.168  16.134  0.2800 -0.0526  0.3012
 8195W        W21609  12.276  16.728   0.671  0.3117 -0.0851 -0.3801
 8196W        W21610  14.324  18.341   4.322 -0.1342 -0.0367  0.0831
 8197W        W21611   2.419   4.593  14.368 -0.2459 -0.1702 -0.1051
 8198W        W21612   5.569   3.241  16.211 -0.0304  0.0039 -0.0810
 8199W        W21613   2.172  14.196   5.868 -0.3623 -0.0742 -0.2537
 8200W        W21614  10.753   2.986   0.638  0.0154  0.2593  0.2595
 8201W        W21615   1.103   8.157  10.283  0.3006  0.1204 -0.2650
 8202W        W21616  16.237   7.609  12.818  0.0685 -0.1900  0.0463
 8203W        W21617  14.713   3.468   0.445  0.1386  0.0608 -0.3234
 8204W        W21618  14.379  12.554   2.961 -0.0899 -0.0082 -0.2646
 8205W        W21619   9.634  11.578   2.911  0.2142  0.0908  0.0276
 8206W        W21620  10.952   1.675  14.131  0.1502  0.1981  0.1071
 8207W        W21621  11.321  16.875  11.706 -0.0230 -0.0243  0.0439
 8208W        W21622  14.870  18.415   2.723  0.1212  0.2239 -0.0518
 8209W        W21623   1.702  16.190  12.048  0.2344  0.1498 -0.1724
 8210W        W21624   8.463   3.928   4.892  0.1855  0.0033 -0.0688
 8211W        W21625  11.701   1.414  15.873 -0.0137 -0.0293 -0.1491
 8212W        W21626   1.159  12.916  12.289 -0.2517  0.0695  0.0007
 8213W        W21627  16.127  10.116   5.613 -0.0847 -0.4425 -0.0362
 8214W        W21628  13.555  17.158   2.462  0.2212 -0.0656  0.2481
 8215W        W21629   3.450  12.928  11.771  0.1580 -0.0750 -0.3882
 8216W        W21630   6.407   3.187   1.016  0.0796  0.0801  0.4770
 8217W        W21631   5.387   0.439  13.250  0.0243  0.1223  0.3337
 8218W        W21632   1.875  18.199   3.510 -0.4172 -0.0123 -0.0877
 8219W        W21633  12.173   3.174   1.543  0.0596  0.2560  0.1760
 8220W        W21634   1.703  12.439   2.186 -0.4176  0.1508 -0.0895
 8221W        W21635  16.658  16.281  15.790 -0.2682  0.2493  0.1096
 8222W        W21636   6.084  14.066   0.502 -0.2153 -0.1545 -0.0854
 8223W        W21637  12.376  12.872  12.938 -0.4056  0.2830  0.2859
 8224W        W21638  12.312   6.747  11.411  0.0502 -0.1400  0.0332
 8225W        W21639   2.155  16.206  10.775 -0.1352 -0.0117 -0.1216
 8226W        W21640   6.947   6.909   0.566  0.3665  0.2091 -0.3404
 8227W        W21641   8.443  16.665  10.622 -0.0841  0.1686  0.1910
 8228W        W21642   6.118   5.320   4.541  0.1376  0.0771 -0.1351
 8229W        W21643   5.386  16.683   2.064  0.1836 -0.1389  0.1744
 8230W        W21644   9.079   9.487  12.792  0.0840  0.1940 -0.2052
 8231W        W21645   4.888   4.673  15.209 -0.2170  0.0636  0.0414
 8232W        W21646  18.365  13.791   4.517 -0.0085  0.0615  0.2235
 8233W        W21647   4.060   4.118  15.838 -0.0633  0.0757  0.1342
 8234W        W21648  17.346   8.438   4.494  0.0927  0.1038  0.4447
 8235W        W21649   3.853   0.718   0.500  0.0311  0.0073 -0.1602
 8236W        W21650   7.108  15.145   3.894  0.0617 -0.2627 -0.0652
 8237W        W21651   5.552   7.107   0.090 -0.2387  0.1200  0.1938
 8238W        W21652  15.178   8.089   4.438 -0.1696 -0.0492  0.0599
 8239W        W21653  10.387  15.164   3.078  0.2029  0.0876  0.2970
 8240W        W21654   5.389   7.914   4.441 -0.2671 -0.4309  0.0801
 8241W        W21655   4.259   3.877  11.912 -0.0569 -0.2795  0.1451
 8242W        W21656  18.037  15.761  13.046  0.1741  0.0718  0.0845
 8243W        W21657   4.460   0.679   3.181  0.0927  0.2670  0.0479
 8244W        W21658   7.446  13.088   2.826  0.1891  0.0715  0.0728
 8245W        W21659  13.481   0.055   4.010 -0.2913 -0.3152 -0.1168
 8246W        W21660   2.828   1.653   2.060 -0.0252  0.2282 -0.2131
 8247W        W21661  13.605  17.649   2.035 -0.0307 -0.0273 -0.2620
 8248W        W21662   7.456  15.639   4.512  0.1458  0.0141  0.0605
 8249W        W21663   1.837   5.823  11.627 -0.0050  0.1001 -0.5904
 8250W        W21664   7.267  16.751   0.387  0.3189 -0.0477  0.1317
 8251W        W21665   0.067  10.241  12.728 -0.0054 -0.2030 -0.1720
 8252W        W21666  12.052   1.775   5.423  0.2557 -0.0944  0.3483
 8253W        W21667  14.166   1.317  15.326 -0.2141 -0.2506  0.0645
 8254W        W21668  16.312   9.484   0.935 -0.2130 -0.0652 -0.1027
 8255W        W21669  16.674   1.067   3.480  0.1112 -0.1733  0.1598
 8256W        W21670  18.123   4.333  13.791  0.1470 -0.1585  0.1996
 8257W        W21671  13.263   2.506  14.133  0.1907 -0.2929 -0.0889
 8258W        W21672  11.276  16.838  13.981  0.2186 -0.0842  0.0746
 8259W        W21673   2.734  13.446   9.935 -0.0661  0.0850 -0.1919
 8260W        W21674  15.053  12.204   3.375 -0.2151  0.1101  0.0178
 8261W        W21675  13.650  13.369  13.810  0.1075  0.0310  0.1119
 8262W        W21676  14.445  10.121  13.332  0.0771  0.0717  0.3192
 8263W        W21677  11.820  16.908  14.100  0.1658  0.0750  0.2664
 8264W        W21678   5.084   1.285   0.207  0.0789  0.2653  0.1282
 8265W        W21679   7.601   0.092   4.211 -0.3065  0.0764  0.4700
 8266W        W21680   6.123  10.495   2.076 -0.2583  0.3647 -0.1509
 8267W        W21681  12.838  12.049  10.408 -0.0545 -0.0142 -0.2533
 8268W        W21682   4.902  15.872   0.517  0.3543 -0.1658 -0.2183
 8269W        W21683   4.050   4.080   3.795  0.3051  0.1231  0.0781
 8270W        W21684   3.316   8.955  15.995  0.3351 -0.2296  0.0918
 8271W        W21685  16.415   7.506   1.903 -0.3111  0.0516 -0.2057
 8272W        W21686  10.262   4.227   5.589  0.0129  0.0419  0.1077
 8273W        W21687   8.066  16.057   1.529  0.1651 -0.1496  0.2601
 8274W        W21688  14.597   8.803   2.954  0.1124  0.1250 -0.0962
 8275W        W21689  10.124   1.077   5.110 -0.2265 -0.2750  0.0873
 8276W        W21690  10.857  15.697   2.239  0.2483  0.1883 -0.3262
 8277W        W21691   7.594   5.446  15.145 -0.0823  0.0666 -0.0858
 8278W        W21692  15.129   6.849   5.342 -0.2407  0.2131 -0.2995
 8279W        W21693   9.283   5.381  14.024  0.2883 -0.2720 -0.0117
 8280W        W21694   8.448  17.438   5.062 -0.0054  0.3750 -0.0474
 8281W        W21695   1.171   5.153  14.865  0.3594 -0.2081  0.1939
 8282W        W21696   9.228   9.417   6.575  0.1372 -0.3337  0.0212
 8283W        W21697  15.364  15.525   5.888 -0.0518  0.0997  0.1999
 8284W        W21698  14.957  11.284   6.746  0.1357  0.1390  0.0287
 8285W        W21699  16.125   2.710  13.045  0.0187  0.0712  0.1500
 8286W        W21700   5.003  11.708  10.479 -0.1154  0.0789  0.0706
 8287W        W21701  16.556   8.996   1.716  0.2310  0.1815  0.0889
 8288W        W21702   1.803   0.824  14.441  0.0401  0.3164 -0.0100
 8289W        W21703  18.063   3.606  10.730 -0.2553 -0.0472 -0.1035
 8290W        W21704  13.642  10.999   3.865  0.1791  0.2711  0.1249
 8291W        W21705   2.072   3.200   3.065 -0.0244  0.1492 -0.0566
 8292W        W21706   3.003   6.550   4.457  0.3645 -0.0583  0.2852
 8293W        W21707   2.287   9.268   5.754 -0.0272  0.1555  0.5912
 8294W        W21708  14.895   0.957  14.772  0.3128 -0.1779 -0.3392
 8295W        W21709  10.246  10.518   0.514 -0.1812 -0.2460 -0.2353
 8296W        W21710   2.310   5.206   4.813  0.0525 -0.4327 -0.1448
 8297W        W21711   0.584   4.026   1.529  0.0634  0.1997 -0.1991
 8298W        W21712   6.026   3.734  12.684  0.0186  0.0588  0.2516
 8299W        W21713  10.672  14.707  12.566  0.2159 -0.1077  0.0480
 8300W        W21714  10.045   9.015  10.176  0.1958  0.2077 -0.0149
 8301W        W21715  13.969   1.337  14.842  0.3736 -0.1084  0.1126
 8302W        W21716   7.247  11.362   1.453 -0.2736 -0.0986  0.2585
 8303W        W21717   3.792   0.127  11.658  0.1469 -0.0281 -0.0364
 8304W        W21718   1.039   2.071   6.232  0.1152  0.1853  0.3543
 8305W        W21719  15.034   4.944   4.049  0.5941 -0.2344 -0.1674
 8306W        W21720  16.487   5.537  12.028 -0.0878  0.2046  0.1835
 8307W        W21721  10.294  15.470   3.892  0.2140  0.1886 -0.2554
 8308W        W21722   7.517  10.081   0.604  0.0195 -0.3801 -0.1669
 8309W        W21723   8.405   3.124   1.603  0.1371 -0.1008 -0.1164
 8310W        W21724  13.951   8.320  14.185 -0.2325  0.0781  0.0253
 8311W        W21725   8.691   5.726  14.684  0.1418 -0.3856 -0.1550
 8312W        W21726  15.213   4.669  11.758  0.4045  0.2270  0.1137
 8313W        W21727   2.361  14.257  15.087 -0.0576  0.1117 -0.4608
 8314W        W21728  11.971   7.621  14.202  0.3332  0.1464 -0.0349
 8315W        W21729   0.774   7.490  15.774  0.1221  0.0245 -0.1963
 8316W        W21730   0.081  13.659   2.925 -0.1932 -0.2519  0.3506
 8317W        W21731   1.943  10.781   1.318  0.2342  0.0785 -0.1099
 8318W        W21732  13.663   4.020  14.671 -0.0217 -0.0353  0.3448
 8319W        W21733  15.948  12.166   5.053  0.0609 -0.3096  0.0728
 8320W        W21734   6.807   1.855  10.499  0.1140  0.2248  0.1613
 8321W        W21735   8.155  10.144   2.297 -0.0122  0.0095 -0.2458
 8322W        W21736  13.368  11.478  15.304  0.2198 -0.1850 -0.0996
 8323W        W21737   0.884  11.485  16.052  0.0037  0.0098  0.2303
 8324W        W21738  17.895  11.633  12.124 -0.1287  0.0340  0.1898
 8325W        W21739  13.469  16.427  13.892 -0.1725 -0.3104 -0.0453
 8326W        W21740  13.840   5.053  14.291  0.1280 -0.0015 -0.2531
 8327W        W21741   2.328   8.225   0.066 -0.1972  0.0332 -0.3672
 8328W        W21742  11.573   3.183  10.594  0.1006  0.0823 -0.0148
 8329W        W21743   1.284   6.768  14.835 -0.0358  0.1291 -0.1362
 8330W        W21744   2.169   9.917   5.721 -0.4308 -0.2374 -0.1290
 8331W        W21745   0.267  15.576  15.874 -0.0916 -0.1196 -0.2082
 8332W        W21746   0.531   5.101   1.635 -0.0470  0.0810 -0.1177
 8333W        W21747  13.939   1.306   4.469 -0.0586  0.0714 -0.1494
 8334W        W21748  15.777   3.029   2.396  0.1607  0.3131 -0.0254
 8335W        W21749   8.170  17.286  11.041  0.0972 -0.0463  0.0358
 8336W        W21750  17.985   2.000   4.683  0.2341 -0.3276  0.0924
 8337W        W21751   6.005  11.483  12.827  0.0068  0.0741  0.0129
 8338W        W21752  14.770   3.566  15.594  0.0892  0.1620  0.1128
 8339W        W21753   6.910   6.625   6.440 -0.1530 -0.0408 -0.1582
 8340W        W21754  13.694  14.720  13.479 -0.0793 -0.1397 -0.0662
 8341W        W21755   4.938  12.161  16.020  0.2925  0.0542  0.3288
 8342W        W21756   2.071   6.011  13.067  0.0856 -0.2062  0.2586
 8343W        W21757  18.263  10.923   5.182 -0.2512  0.2492  0.1123
 8344W        W21758  12.902  13.274   1.320  0.0123 -0.0763 -0.0238
 8345W        W21759   1.366   2.095  15.174 -0.1591 -0.0210 -0.2609
 8346W        W21760  13.633  11.208  11.397 -0.0355 -0.0664  0.0367
 8347W        W21761   2.447  15.839  16.049 -0.1099 -0.2599 -0.1565
 8348W        W21762  12.130   6.815   1.244  0.0475  0.1443  0.1473
 8349W        W21763   8.682  17.563  16.152 -0.2712 -0.1283  0.1712
 8350W        W21764   7.298   0.873  11.640  0.0930  0.0827  0.1676
 8351W        W21765  16.126  13.973   5.774 -0.0520  0.3461 -0.1467
 8352W        W21766   2.347   7.974  11.218 -0.1521  0.2636 -0.0384
 8353W        W21767  11.680  17.894   0.310  0.2699  0.1130 -0.1478
 8354W        W21768   8.426   1.868   1.415  0.1220  0.0655 -0.0686
 8355W        W21769  11.107   3.809  14.878 -0.0246  0.1545  0.2128
 8356W        W21770  13.115   0.247   4.484 -0.0873  0.2722 -0.1749
 8357W        W21771  15.984   0.963  12.301  0.1805  0.1104  0.1077
 8358W        W21772  12.803  17.602   5.935 -0.0540 -0.3252  0.3878
 8359W        W21773  17.672  11.355  14.341 -0.2746  0.3354  0.0959
 8360W        W21774   9.122   5.648   2.777 -0.3277 -0.0568  0.2687
 8361W        W21775  10.914  13.548   6.046 -0.0960  0.1551  0.0963
 8362W        W21776   1.388  16.905   5.891 -0.3098 -0.0566 -0.1387
 8363W        W21777  13.242   4.120  15.123 -0.2047 -0.0627 -0.0215
 8364W        W21778  12.521   7.835   3.251  0.3000  0.2955  0.0941
 8365W        W21779   7.730   8.255   2.495  0.1177 -0.0209 -0.1578
 8366W        W21780   0.596  14.632   5.241  0.0011 -0.0819  0.2507
 8367W        W21781  12.676   8.247  12.801 -0.1047 -0.2680 -0.1853
 8368W        W21782   6.072   8.197   0.209  0.0964 -0.0016  0.4878
 8369W        W21783  10.024  11.485  14.162  0.0254 -0.0273 -0.5001
 8370W        W21784   7.236   9.734   3.796 -0.0016 -0.4441 -0.2302
 8371W        W21785  12.215   1.751  11.525  0.1156  0.0959  0.0229
 8372W        W21786   8.494   0.470  10.858  0.2545 -0.1128 -0.3332
 8373W        W21787   3.960   8.190  11.392  0.0512 -0.1411  0.2056
 8374W        W21788   1.975  14.924  13.742 -0.0647  0.1700  0.1883
 8375W        W21789   9.384  18.417  15.976 -0.1177 -0.0958  0.1714
 8376W        W21790  16.155   1.341  11.120  0.0152  0.1813 -0.0433
 8377W        W21791  13.639  15.610  10.821  0.0578  0.0310 -0.3107
 8378W        W21792   7.776   2.885   2.234 -0.1128 -0.0230 -0.0308
 8379W        W21793   3.403  14.976   0.047 -0.1562 -0.1164  0.0417
 8380W        W21794   7.157  16.411  11.063  0.0105  0.2898 -0.0041
 8381W        W21795  16.027   1.698   3.984 -0.0383 -0.0987  0.2626
 8382W        W21796   6.749  16.622  10.879  0.0924  0.3723 -0.1100
 8383W        W21797   6.600   9.348  13.417  0.0452 -0.0222  0.0894
 8384W        W21798  10.545  17.101   1.197 -0.3204  0.1543  0.4102
 8385W        W21799  14.670  12.597   2.376 -0.3215  0.0174 -0.2621
 8386W        W21800   0.265  15.121  14.180  0.1570 -0.2158 -0.1458
 8387W        W21801   1.434   3.688   1.769 -0.0425  0.0102  0.1077
 8388W        W21802   5.099  16.165   3.231  0.0386 -0.0470  0.1088
 8389W        W21803  10.917   3.152   2.914  0.1095  0.0184  0.2705
 8390W        W21804  14.199  10.649  15.654 -0.1049 -0.3154 -0.2849
 8391W        W21805   2.765   2.520   1.085  0.1449  0.3354 -0.0750
 8392W        W21806   3.546   9.951   2.082  0.0238  0.0750  0.1841
 8393W        W21807   1.584   8.419   0.720 -0.3092 -0.0158  0.1333
 8394W        W21808   9.897  16.098   4.185  0.3603 -0.0403 -0.1061
 8395W        W21809   5.575   9.846  10.693  0.2684  0.2092  0.0321
 8396W        W21810  10.044   0.068  14.555 -0.0663 -0.4376  0.0461
 8397W        W21811   9.610   3.068   3.877  0.2304  0.3586  0.0459
 8398W        W21812   1.698   6.788  13.486 -0.4258  0.0810  0.1456
 8399W        W21813  15.193   1.843   4.696  0.1752  0.4067  0.0163
 8400W        W21814  10.636   3.959  12.408  0.1159  0.2059  0.1204
 8401W        W21815  10.554   3.380  16.161  0.3195  0.3489 -0.1115
 8402W        W21816  18.450  18.389  14.890 -0.0562 -0.0802 -0.3102
 8403W        W21817  12.328  13.967   0.716 -0.1850  0.0615 -0.1847
 8404W        W21818   9.240   0.768   4.774 -0.4003  0.1758  0.1938
 8405W        W21819   7.336  15.375  14.604  0.0411 -0.3453  0.0252
 8406W        W21820   6.193   6.560   1.082 -0.1167 -0.2068 -0.0449
 8407W        W21821   6.550  15.694  13.459  0.0157 -0.2879  0.2753
 8408W        W21822   8.729  15.423  15.462 -0.0351 -0.0412 -0.1640
 8409W        W21823   9.029  17.795   0.926  0.0725 -0.2965 -0.4440
 8410W        W21824   1.995  14.823   2.547  0.1995 -0.4869  0.0534
 8411W        W21825  15.730   1.854   3.042  0.2175 -0.0980 -0.3109
 8412W        W21826  12.712  11.684  12.292 -0.1597 -0.0387 -0.1930
 8413W        W21827  17.926   5.421   5.001  0.0286 -0.0433 -0.1662
 8414W        W21828   4.674   3.347  14.976 -0.0298  0.1651  0.2973
 8415W        W21829   5.234   3.010  11.424 -0.0073  0.2362  0.1008
 8416W        W21830   1.841  12.569   1.380  0.3047 -0.1221  0.0897
 8417W        W21831  13.646  15.176   2.442  0.1554 -0.1832  0.1763
 8418W        W21832  11.022   0.481  12.014 -0.2027 -0.0739  0.1891
 8419W        W21833   2.715  11.517  10.298 -0.0215 -0.0496  0.0659
 8420W        W21834   0.984  16.938  14.839 -0.2786  0.2174  0.1044
 8421W        W21835   0.573  11.748  12.568 -0.3037 -0.0185 -0.0378
 8422W        W21836  11.219   8.346  12.574  0.0967  0.2850  0.0192
 8423W        W21837  11.835   4.376  15.309 -0.1357  0.0771  0.0487
 8424W        W21838   2.907   4.035   4.813 -0.3038 -0.2529  0.2179
 8425W        W21839   7.642  14.133   3.298 -0.0450  0.3091 -0.1770
 8426W        W21840   6.948  10.400  14.638  0.2134 -0.3150 -0.0001
 8427W        W21841  11.306   0.715   9.598 -0.3749  0.0693  0.0329
 8428W        W21842   0.353   3.948   5.781 -0.0606 -0.2903 -0.0678
 8429W        W21843   2.582   8.358  13.098 -0.0211  0.0138  0.3117
 8430W        W21844   6.879  14.467  15.948 -0.2891 -0.0487  0.0427
 8431W        W21845   3.282   3.372   4.273  0.0669 -0.0796  0.2171
 8432W        W21846   9.799   0.390   0.801  0.0176  0.2911 -0.2250
 8433W        W21847  11.298   5.297   5.885  0.0469  0.1753 -0.1079
 8434W        W21848   3.005   2.235  15.280  0.0392 -0.0735 -0.0539
 8435W        W21849  14.201   5.358   2.857 -0.0440  0.0780 -0.1809
 8436W        W21850   4.669   6.111  10.778 -0.3414 -0.3264 -0.3566
 8437W        W21851   6.910  14.113  10.684 -0.1404 -0.1736 -0.0221
 8438W        W21852   9.479  11.444   0.729  0.1125 -0.2814  0.1017
 8439W        W21853   7.742  12.514   6.022 -0.0125 -0.1029  0.3760
 8440W        W21854  14.429  11.490  11.517  0.0623  0.0105  0.2398
 8441W        W21855  13.527  14.539  11.492 -0.2288  0.0889  0.1035
 8442W        W21856  13.481   9.463   4.848  0.1927 -0.0540  0.1396
 8443W        W21857   9.198   9.747  10.776 -0.4887 -0.2488 -0.0196
 8444W        W21858   3.748  16.179   0.222 -0.2062  0.1052  0.4212
 8445W        W21859  13.665   5.662  11.453 -0.1980  0.0253  0.3821
 8446W        W21860   0.353   5.161  12.455 -0.1004 -0.0358  0.2181
 8447W        W21861   9.172  16.396   5.429  0.4434 -0.1904 -0.1746
 8448W        W21862   4.131   0.679   6.135 -0.0801  0.0162  0.0100
 8449W        W21863  12.371   6.519  14.120 -0.1053  0.5359  0.3935
 8450W        W21864   2.818   8.825  16.129 -0.0991 -0.1968 -0.3120
 8451W        W21865   3.356   0.320   0.314  0.3473  0.6495  0.0176
 8452W        W21866   0.273   7.942  12.359 -0.0121 -0.0412  0.2220
 8453W        W21867   2.757  13.170   0.731 -0.1250 -0.1298  0.3991
 8454W        W21868   9.760  15.699   4.466 -0.3300  0.1112 -0.2877
 8455W        W21869  11.815  11.893  14.748 -0.0164  0.1782 -0.1855
 8456W        W21870  12.812  14.152   1.602 -0.1136 -0.3175 -0.3659
 8457W        W21871   7.198  11.396   0.507 -0.4002 -0.0460 -0.1253
 8458W        W21872   1.295  16.965   2.891  0.1298 -0.1166  0.2860
 8459W        W21873  11.270   2.568  12.442 -0.2165 -0.3167  0.0109
 8460W        W21874   7.021  14.468   1.281 -0.0304  0.0018  0.0096
 8461W        W21875  12.976   2.833   1.355 -0.2673  0.0611  0.2078
 8462W        W21876   7.995   7.998   0.744 -0.0206 -0.0797  0.0647
 8463W        W21877   1.969   7.896   0.302 -0.2556  0.1802  0.1086
 8464W        W21878   0.335  14.642   3.562  0.2092 -0.0977  0.0478
 8465W        W21879  13.474   6.511   0.706 -0.2008  0.0638 -0.1471
 8466W        W21880  13.883  17.193  14.295 -0.3008  0.1788 -0.3540
 8467W        W21881  15.777   1.753  11.663  0.2520  0.0940  0.0286
 8468W        W21882   1.318   6.429   5.196 -0.1082 -0.2231  0.0951
 8469W        W21883  14.316  17.838   4.320  0.0236  0.0077 -0.1344
 8470W        W21884   5.652   5.621  15.196  0.3058  0.0521 -0.0135
 8471W        W21885   3.867   1.976  10.904 -0.2993  0.0444 -0.2707
 8472W        W21886   3.559   3.262   2.710 -0.0493 -0.0142 -0.0251
 8473W        W21887  14.195   6.288   4.148  0.0893  0.2042 -0.4414
 8474W        W21888   9.392   6.067   5.342  0.0306  0.2698 -0.0310
 8475W        W21889  13.230   5.734  13.644 -0.5515  0.0341 -0.4226
 8476W        W21890   9.064  16.972  16.054  0.0400 -0.0257 -0.1576
 8477W        W21891   6.351   3.165  12.175 -0.0951  0.0348 -0.2964
 8478W        W21892  10.238   8.147  14.831 -0.0989  0.1892  0.0729
 8479W        W21893  11.156   9.717   4.881 -0.1424 -0.0826 -0.4867
 8480W        W21894  14.356   8.858   0.213  0.0027  0.1721 -0.0478
 8481W        W21895  16.874   2.600  11.289  0.0269  0.0192  0.1528
 8482W        W21896  12.862   0.463  14.342 -0.0730 -0.4081  0.0137
 8483W        W21897   6.822  15.744   3.765  0.0725 -0.1010 -0.2102
 8484W        W21898   5.955   0.388  15.895  0.0624 -0.2772 -0.0812
 8485W        W21899  11.685   8.435   1.401  0.1714 -0.1688  0.2044
 8486W        W21900   4.201  10.514  15.315  0.1823 -0.3239 -0.2572
 8487W        W21901  12.942   4.232  13.405 -0.0620  0.1119  0.1187
 8488W        W21902   4.945  10.556   2.693  0.1683  0.1800 -0.4837
 8489W        W21903  16.519   1.364  15.471 -0.2581 -0.0348  0.0574
 8490W        W21904  13.681   8.781   0.794 -0.1609 -0.1749  0.2559
 8491W        W21905  12.782  14.255   2.306  0.3194 -0.1312  0.2837
 8492W        W21906  12.741   3.843   2.063 -0.0070  0.1063 -0.1953
 8493W        W21907  11.522  12.241   4.120  0.1363  0.1354 -0.3947
 8494W        W21908   6.695  10.070  15.466 -0.0020 -0.2705 -0.0437
 8495W        W21909  10.492  16.410   0.121  0.1079 -0.4376  0.4012
 8496W        W21910  11.467   6.694   2.456  0.2211 -0.1863 -0.1076
 8497W        W21911  16.476  16.649   4.867  0.0591 -0.0461  0.1545
 8498W        W21912   3.771  15.494  13.719 -0.1135 -0.0757 -0.1348
 8499W        W21913   7.111   6.721   3.877 -0.0323 -0.1219 -0.1217
 8500W        W21914  13.263  16.475   3.536  0.0373 -0.0310 -0.0616
 8501W        W21915  10.063  10.592   1.106  0.1478  0.0129  0.2262
 8502W        W21916  18.187   3.822  12.154 -0.2150  0.1125  0.1158
 8503W        W21917   6.039  15.021   3.189 -0.1577 -0.0307 -0.3324
 8504W        W21918   4.139   7.716  14.915 -0.1717 -0.2736 -0.0261
 8505W        W21919   0.846   8.803   0.804 -0.1313 -0.1781  0.0312
 8506W        W21920   8.700   0.934   5.398  0.1351  0.2519 -0.0539
 8507W        W21921   9.590  14.743  13.303 -0.1870 -0.2359 -0.1096
 8508W        W21922   2.701   0.704   3.300  0.1792 -0.1911 -0.2328
 8509W        W21923  12.553   2.479  15.367 -0.1766 -0.0962  0.1096
 8510W        W21924  18.340  10.868  13.708 -0.3695 -0.1692  0.1334
 8511W        W21925  16.382   2.771   3.803 -0.4257  0.0094  0.1879
 8512W        W21926  17.525   8.554  13.973  0.0027  0.0039  0.1634
 8513W        W21927  10.352   0.098   1.783 -0.0765 -0.1214  0.0066
 8514W        W21928  14.349   5.077  11.997 -0.1382 -0.0602  0.4329
 8515W        W21929   7.696   7.695  12.600 -0.1814 -0.2778 -0.1628
 8516W        W21930   0.953  17.091   6.006  0.0236  0.1465 -0.2816
 8517W        W21931   9.145   7.155  12.517 -0.3435  0.0109  0.0925
 8518W        W21932   5.666  14.757  13.050 -0.1038  0.0647 -0.5291
 8519W        W21933   7.910   0.987  12.117 -0.0725  0.1539 -0.1723
 8520W        W21934   5.457  10.378   4.284  0.4076 -0.0594  0.1150
 8521W        W21935   4.155  13.470  11.835  0.0070 -0.3219 -0.1617
 8522W        W21936  10.178   5.582   1.333  0.0611 -0.1905  0.2370
 8523W        W21937   6.591   1.849  13.691 -0.1627  0.0570 -0.0376
 8524W        W21938   1.332   7.810   9.950 -0.0029 -0.1006  0.0331
 8525W        W21939  17.812  12.491   5.325  0.0372 -0.0776 -0.1794
 8526W        W21940   3.530  16.145   1.562 -0.3563 -0.1084  0.1043
 8527W        W21941  13.823   9.199   5.649 -0.1226  0.1697  0.2644
 8528W        W21942  14.768  15.914  15.294  0.0444  0.1734  0.3409
 8529W        W21943   4.330   5.259   4.663 -0.0034  0.5553  0.3785
 8530W        W21944   7.346   7.622   1.259  0.1856  0.0825  0.2261
 8531W        W21945  17.410   1.112   5.776 -0.2157 -0.2353 -0.0930
 8532W        W21946  15.366  11.763  15.953 -0.0703  0.3696  0.1804
 8533W        W21947   2.540  15.905  11.697 -0.2853 -0.1355  0.3245
 8534W        W21948  11.055   3.174  12.511  0.3705 -0.0820 -0.0033
 8535W        W21949   6.798  13.533   1.145  0.1832 -0.4084  0.2908
 8536W        W21950   2.844  15.088  14.767  0.0644  0.3425  0.1032
 8537W        W21951  10.055   6.265   1.910 -0.0208 -0.3012  0.0437
 8538W        W21952  14.957   3.758  14.806  0.1804 -0.0665  0.0314
 8539W        W21953  10.649   1.367   2.123 -0.1729  0.1325  0.2250
 8540W        W21954   8.559   3.900  11.508  0.0545  0.1701  0.0822
 8541W        W21955   7.337   9.742   0.137 -0.0512 -0.1295  0.3755
 8542W        W21956  14.406  14.332   3.484 -0.2393  0.0966  0.1407
 8543W        W21957   1.521   7.634   5.174  0.1456  0.0693  0.0405
 8544W        W21958  17.163  14.728   3.311 -0.3475  0.0561  0.0095
 8545W        W21959  17.787   7.816  10.238  0.1023  0.0836  0.4791
 8546W        W21960  13.203   9.426  10.951  0.3548  0.2114 -0.3503
 8547W        W21961  17.548  14.734   0.961  0.1404  0.2181  0.0842
 8548W        W21962   7.698  14.403  13.900 -0.0806 -0.2065 -0.0520
 8549W        W21963   6.876  15.572  15.867  0.0567  0.1518 -0.1901
 8550W        W21964  12.616   0.252  13.900 -0.4426 -0.0746  0.0429
 8551W        W21965  14.229  13.407  10.056  0.0882  0.3007 -0.1869
 8552W        W21966  15.227  15.575  14.737  0.2199 -0.1856  0.1458
 8553W        W21967  13.951  17.849   3.490 -0.2037 -0.2911  0.0830
 8554W        W21968  12.329   7.092  11.015 -0.3079  0.1132 -0.0153
 8555W        W21969  16.650   8.298   2.339  0.0984 -0.1494  0.4461
 8556W        W21970   8.761  12.791   0.770 -0.1125  0.0266  0.0018
 8557W        W21971   2.407   0.498   0.213 -0.0852  0.1098  0.1493
 8558W        W21972   4.495  16.170   0.639  0.1174 -0.3317  0.0448
 8559W        W21973  17.926   5.534  16.266 -0.4079 -0.0465  0.1235
 8560W        W21974  10.109  15.090  15.961 -0.0373 -0.2207 -0.0015
 8561W        W21975  10.379   0.664   2.872 -0.0934 -0.2470  0.1251
 8562W        W21976  12.942  12.873  14.785 -0.1583 -0.3087  0.1114
 8563W        W21977  13.509  16.422  14.826 -0.0706 -0.0214  0.1898
 8564W        W21978  17.561   5.986   5.968  0.1280  0.2819 -0.1862
 8565W        W21979  14.924   2.440   5.692 -0.2149 -0.1457 -0.0674
 8566W        W21980   7.096  13.610  11.566  0.3342 -0.1193  0.1479
 8567W        W21981  12.924  11.860  14.880 -0.2962  0.0882 -0.1870
 8568W        W21982   1.279   4.014  14.463 -0.3780  0.1464  0.0833
 8569W        W21983   6.232  12.573  11.483 -0.1692 -0.1761 -0.4094
 8570W        W21984  10.110  12.676   4.573 -0.0224  0.0768  0.3565
 8571W        W21985  17.439  14.674   5.076  0.0215  0.1789  0.2656
 8572W        W21986  17.660   4.825   3.059  0.1640 -0.0043  0.0148
 8573W        W21987   9.896  11.335   3.244 -0.1145 -0.1046 -0.1016
 8574W        W21988  13.109  18.233   3.205 -0.1021 -0.3733 -0.3874
 8575W        W21989   7.361   8.132   2.932  0.0803  0.0731  0.1217
 8576W        W21990   8.214  10.299  16.167  0.3382 -0.2337  0.0523
 8577W        W21991   0.422   5.296  11.923  0.0890  0.0416  0.2752
 8578W        W21992  12.366   8.999  10.926 -0.0186  0.0809  0.1148
 8579W        W21993   5.965   3.615   1.187  0.3446  0.1582 -0.1248
 8580W        W21994  15.457  10.919  14.310  0.0423  0.1620 -0.1587
 8581W        W21995   3.217  12.255   4.009 -0.1065  0.0071 -0.1660
 8582W        W21996   5.330  16.963  14.918  0.2544 -0.2882 -0.2585
 8583W        W21997  15.521   0.164   0.904  0.2156  0.0313 -0.0305
 8584W        W21998   9.020  10.866   3.977 -0.1292  0.0596  0.3801
 8585W        W21999  12.947   0.716   4.631  0.0835 -0.0455 -0.1513
 8586W        W22000   8.790   2.457   1.009  0.0017  0.3543 -0.2868
 8587W        W22001   1.305   8.644   1.033  0.0467  0.1668  0.2557
 8588W        W22002   9.184   1.809  15.384 -0.2422 -0.3484  0.1194
 8589W        W22003  14.144  11.347   5.374 -0.1146 -0.2873 -0.0787
 8590W        W22004   8.516  12.085   0.125  0.2183  0.0880 -0.0231
 8591W        W22005   2.777   3.054   1.155  0.1632 -0.0276  0.1244
 8592W        W22006  15.186  10.289   5.560 -0.1639  0.2146 -0.0552
 8593W        W22007   9.355   4.705  15.227  0.1776  0.4804 -0.1263
 8594W        W22008   4.842   7.477  14.730  0.0912  0.0921  0.4603
 8595W        W22009   0.840   1.201   3.521  0.1279 -0.1210 -0.1772
 8596W        W22010   3.331   1.048  14.640  0.3162  0.0717  0.1798
 8597W        W22011  16.094   1.192   4.321  0.1507  0.1007  0.1591
 8598W        W22012   3.075  16.616  15.028 -0.5966 -0.1932 -0.0700
 8599W        W22013  12.834   0.198   3.569  0.1670 -0.0254  0.2491
 8600W        W22014   2.195   0.294   5.397  0.3069 -0.0357  0.1658
 8601W        W22015  15.379   4.084  11.857  0.0296  0.1616  0.1272
 8602W        W22016  11.301   7.253   1.385 -0.0961 -0.0319 -0.0875
 8603W        W22017  12.723   3.161  13.828 -0.0694  0.0433 -0.2910
 8604W        W22018   6.081  16.388   3.193 -0.1316  0.4095  0.0471
 8605W        W22019  18.347  16.851   3.059  0.0877 -0.0226  0.2216
 8606W        W22020  13.266   7.756  13.148 -0.0861  0.1488  0.0132
 8607W        W22021   2.981   6.554  15.547 -0.3311 -0.2953 -0.3695
 8608W        W22022   1.453  13.007  13.882 -0.4867  0.2545 -0.2301
 8609W        W22023  17.165   8.729   4.027  0.2135 -0.0215  0.0095
 8610W        W22024   2.972   8.687  14.263 -0.0182 -0.1216  0.0453
 8611W        W22025  11.768   5.121  14.220 -0.5348  0.0320  0.0435
 8612W        W22026  17.847   4.236   5.339 -0.0455 -0.1217  0.1480
 8613W        W22027   2.424   9.528  14.197  0.0600 -0.1408  0.3382
 8614W        W22028  17.605  15.705  11.386  0.1161 -0.0590  0.1666
 8615W        W22029   8.427  11.352  13.342 -0.0396 -0.2163  0.1928
 8616W        W22030  17.647  13.886   0.404 -0.2151  0.1821  0.2136
 8617W        W22031   2.131  18.304  12.123  0.0932 -0.2622 -0.0889
 8618W        W22032   5.677   3.407   5.927  0.2240  0.1815  0.0878
 8619W        W22033  11.693  12.872  12.362  0.0535 -0.1611 -0.0383
 8620W        W22034   6.318   1.245   1.238  0.0664 -0.0580 -0.0768
 8621W        W22035   2.019  18.399  14.698 -0.0665  0.2798 -0.0299
 8622W        W22036  10.521  16.899   3.202 -0.0334  0.0271 -0.0452
 8623W        W22037   2.894   7.250   1.043 -0.4329 -0.0272 -0.1531
 8624W        W22038  17.368  11.753   3.833  0.0923 -0.3118  0.0101
 8625W        W22039   1.363  14.648   3.738 -0.0253 -0.1856 -0.2622
 8626W        W22040  11.114   9.466   6.208  0.1671 -0.0067  0.0147
 8627W        W22041  16.955   0.822  15.475 -0.2294  0.0030 -0.1002
 8628W        W22042   7.889  11.781  13.099 -0.1184  0.0485 -0.3018
 8629W        W22043  12.355   7.762   4.980 -0.2739 -0.0971 -0.1376
 8630W        W22044  12.323  11.423  15.343 -0.1003 -0.0422 -0.0421
 8631W        W22045  12.576   1.808  14.059  0.0301 -0.3361 -0.2119
 8632W        W22046   8.414   2.519  11.540 -0.2821 -0.1063  0.0304
 8633W        W22047  12.973   0.409  11.864  0.0968  0.0011  0.2425
 8634W        W22048   0.392   9.652   3.793 -0.2726  0.2926 -0.2194
 8635W        W22049   7.849   8.275  16.033 -0.0933 -0.0574 -0.0198
 8636W        W22050  18.492   6.696  15.565  0.0433  0.2217 -0.2013
 8637W        W22051  13.141   7.563   4.909 -0.1306 -0.1818 -0.2638
 8638W        W22052   5.508  14.690  12.567 -0.0134 -0.0043  0.0264
 8639W        W22053   4.049  16.615  11.666  0.2761  0.2632 -0.0787
 8640W        W22054   5.440   5.015  15.060 -0.0561 -0.1950 -0.1792
 8641W        W22055   1.674   9.342  14.992 -0.0968  0.1652  0.3228
 8642W        W22056   1.728  16.704   2.834 -0.0526  0.1849  0.0537
 8643W        W22057   1.119   5.910   4.558  0.5788 -0.2012  0.3014
 8644W        W22058  15.184  16.131  10.922  0.0147 -0.2065  0.1696
 8645W        W22059   1.536   9.324   2.174  0.0544 -0.0628  0.1693
 8646W        W22060   5.533   7.076  15.810 -0.1462 -0.1307  0.0388
 8647W        W22061   4.630  11.877  10.776 -0.0519 -0.1811 -0.1828
 8648W        W22062   1.338   7.978  12.105  0.2252  0.2390  0.1333
 8649W        W22063   8.964  10.378  15.909  0.1801 -0.1730 -0.0583
 8650W        W22064  18.081   0.332   1.691 -0.2932  0.3159 -0.4431
 8651W        W22065   4.450  18.147   1.726 -0.0010  0.0014  0.0518
 8652W        W22066  15.201  14.576  14.405  0.1665  0.0337  0.1982
 8653W        W22067   4.724   4.333  12.606 -0.1360 -0.4239  0.0925
 8654W        W22068   8.648   3.430  16.149  0.2476  0.2468  0.0750
 8655W        W22069   4.268  14.579  13.931  0.3769 -0.1320 -0.1932
 8656W        W22070  15.763  11.771  11.529 -0.1982  0.4010  0.1028
 8657W        W22071  15.105  14.846  15.898 -0.2172  0.0103 -0.2380
 8658W        W22072   6.576  10.051   0.266  0.1196 -0.0725  0.0924
 8659W        W22073   2.020   9.583   1.396  0.0582  0.0494 -0.1752
 8660W        W22074   4.706  13.881   0.464 -0.1191  0.4455 -0.2424
 8661W        W22075  14.587  13.853   1.860  0.0454  0.0392 -0.2852
 8662W        W22076  17.103  10.941  15.120  0.2171  0.2822 -0.1083
 8663W        W22077  15.920  11.360   2.777  0.3141 -0.1796  0.1713
 8664W        W22078   2.572   8.034   3.451 -0.2385  0.3422 -0.3264
 8665W        W22079   2.438  18.322  15.651 -0.0341  0.1101 -0.0661
 8666W        W22080   7.017   5.127  11.521  0.2358 -0.0014  0.4490
 8667W        W22081   4.400  12.536  10.061 -0.0082  0.2186  0.1791
 8668W        W22082   5.735  18.470  11.181  0.0969 -0.0633  0.4043
 8669W        W22083  10.673  17.435   3.078  0.2098  0.3040 -0.3846
 8670W        W22084   2.658  17.528  16.200  0.4776  0.0571 -0.1169
 8671W        W22085   1.352  12.852   5.244 -0.1534  0.1042  0.2821
 8672W        W22086   8.720  11.775   3.235  0.2432 -0.1840 -0.1768
 8673W        W22087  10.232   5.106   1.257  0.4113  0.0056  0.0527
 8674W        W22088   3.116  17.919  16.152  0.0331 -0.0342  0.1969
 8675W        W22089  16.912  18.284  14.745 -0.1900  0.0537 -0.0994
 8676W        W22090  13.051   3.983  10.700  0.1375 -0.0922  0.1195
 8677W        W22091  18.062  16.155   2.853  0.1781  0.0579  0.0690
 8678W        W22092   9.012   7.256  10.770  0.3436 -0.0466 -0.1792
 8679W        W22093   2.557  18.101  16.159 -0.0310  0.0699  0.3060
 8680W        W22094  13.217   5.655   2.275  0.2019 -0.0906 -0.1075
 8681W        W22095   4.355  13.788  10.540  0.2137 -0.2316  0.2411
 8682W        W22096   2.230  17.764  12.225 -0.1276  0.4634 -0.1447
 8683W        W22097  11.494   8.268   1.806 -0.2716  0.0309  0.0646
 8684W        W22098   3.276   6.120  14.807  0.2465  0.0890 -0.0778
 8685W        W22099  13.886   1.513   1.909  0.1779  0.2271 -0.0489
 8686W        W22100  13.241  12.554  13.855  0.1688  0.2908  0.1945
 8687W        W22101  17.841  16.098  10.816  0.0604 -0.0435 -0.0772
 8688W        W22102   1.602  11.079  11.364 -0.2181  0.1751 -0.1225
 8689W        W22103   3.938  15.956   5.389  0.1819  0.1633 -0.1138
 8690W        W22104  14.678   9.266   3.572  0.2130 -0.2257 -0.0683
 8691W        W22105   6.232  11.789   9.885  0.3051 -0.1721 -0.1784
 8692W        W22106  17.637   8.735  12.609 -0.1841  0.0358 -0.0802
 8693W        W22107  17.287   2.896   1.870  0.0235  0.1130  0.0824
 8694W        W22108   8.573  17.504   4.097  0.1409  0.4319 -0.0532
 8695W        W22109   6.347  14.366  14.648  0.3291 -0.0307 -0.2507
 8696W        W22110  15.364   7.161   5.740 -0.2493  0.3467 -0.1703
 8697W        W22111  15.962  11.476   0.877 -0.0915 -0.1625  0.2576
 8698W        W22112  12.960  12.306  10.805  0.2158 -0.2697 -0.2936
 8699W        W22113  13.128  12.775  15.758 -0.3221  0.2436  0.0394
 8700W        W22114   7.803   9.926  11.678 -0.0519  0.0599 -0.1198
 8701W        W22115  14.117   0.738   2.514  0.1343  0.1647  0.1230
 8702W        W22116   9.160   4.988   4.730 -0.2246 -0.2029 -0.0969
 8703W        W22117   8.686   8.589   0.679 -0.0419  0.0208 -0.0714
 8704W        W22118  12.858  13.728  11.348 -0.0135 -0.1545 -0.1211
 8705W        W22119   5.471   4.284  15.322 -0.0621  0.0124  0.1421
 8706W        W22120   7.738  10.835  13.222  0.1439  0.0850  0.0371
 8707W        W22121   9.422   7.461   4.877 -0.1247 -0.1768 -0.0066
 8708W        W22122  14.506   4.546  14.490 -0.0097  0.2559 -0.1823
 8709W        W22123   5.830  12.144  10.129  0.2240  0.4126  0.0749
 8710W        W22124   9.504  16.094  13.128 -0.0163 -0.0572 -0.0585
 8711W        W22125  11.475   2.630  14.873 -0.0284 -0.1701 -0.1910
 8712W        W22126  11.275  10.063   3.794 -0.0321  0.5622  0.1906
 8713W        W22127   6.958  17.318  16.052  0.1790 -0.2511 -0.0889
 8714W        W22128   8.812   9.854   5.448 -0.1634 -0.2818  0.1100
 8715W        W22129  11.431   6.651   9.904 -0.0175 -0.0245 -0.1281
 8716W        W22130  11.751   9.894  12.364 -0.1222 -0.0671  0.0577
 8717W        W22131   2.694   6.305  11.969 -0.1245 -0.1041 -0.3656
 8718W        W22132   1.786   7.430   2.072  0.0929  0.1085  0.2074
 8719W        W22133   3.096  10.290  14.177  0.0540 -0.1833 -0.0754
 8720W        W22134   7.589   8.994  11.002 -0.3312  0.2695 -0.3646
 8721W        W22135   7.910  11.962   0.220  0.2838  0.0098 -0.1943
 8722W        W22136  11.958   1.659  16.199  0.0101 -0.0913 -0.2320
 8723W        W22137   4.026  14.057  13.846 -0.1041  0.0330 -0.1974
 8724W        W22138  14.514  10.908   1.964  0.1263 -0.0615  0.1312
 8725W        W22139  11.558  12.204   3.050 -0.0397 -0.1068 -0.0292
 8726W        W22140   0.447  13.219   3.208 -0.0451  0.0756  0.1228
 8727W        W22141   8.721  11.389  11.838 -0.2140  0.2559  0.0343
 8728W        W22142   8.446  15.799   1.315 -0.2198  0.0888  0.0199
 8729W        W22143   1.465   6.447   1.430 -0.1215 -0.1045  0.0600
 8730W        W22144   2.248  10.709  10.683  0.2395 -0.1732 -0.2097
 8731W        W22145   0.534   5.478   5.819  0.1394  0.1599 -0.0274
 8732W        W22146  16.337   7.428  15.373  0.0032  0.0617  0.1909
 8733W        W22147  10.652   2.690   3.030  0.0152  0.1015  0.1913
 8734W        W22148   7.945   2.892   1.631 -0.2672 -0.2736 -0.2969
 8735W        W22149  17.571   6.989   1.206 -0.1692 -0.2562  0.3274
 8736W        W22150   6.730  18.238   2.911 -0.0437  0.3627 -0.0023
 8737W        W22151  17.656  14.278  12.890  0.3380  0.2566 -0.2074
 8738W        W22152   6.389  11.498  12.136 -0.1349  0.2692  0.0201
 8739W        W22153   3.615   6.884  14.908 -0.2435  0.2262  0.0377
 8740W        W22154  15.530  15.173   3.845 -0.1278  0.2861 -0.2951
 8741W        W22155  14.991  12.924  11.275 -0.0951  0.0617  0.1567
 8742W        W22156   2.995   7.874   3.215 -0.0395 -0.0107 -0.1864
 8743W        W22157   3.371  16.417   0.449  0.0752 -0.1750  0.4180
 8744W        W22158  13.989  10.193  11.505 -0.0272 -0.0483  0.0793
 8745W        W22159   9.970   7.280   4.149 -0.0781  0.1287  0.2242
 8746W        W22160   7.321  16.594   2.433 -0.2164  0.0169  0.0388
 8747W        W22161   6.261   0.884  14.931  0.1536  0.0986  0.2913
 8748W        W22162  11.372  16.918   1.005  0.0023  0.2187  0.3366
 8749W        W22163   8.192  16.411  11.469  0.1027  0.1398 -0.1711
 8750W        W22164   3.997   9.913  12.900 -0.0566  0.3249  0.1390
 8751W        W22165  10.062   5.083  10.820  0.0968 -0.3954  0.0289
 8752W        W22166   0.708   6.063   1.633  0.0814  0.0098 -0.1291
 8753W        W22167  12.474  14.808  10.548 -0.3517 -0.0155 -0.1335
 8754W        W22168  10.878  15.513   2.732 -0.2465 -0.2305  0.2266
 8755W        W22169  10.104  14.745  10.006 -0.3012  0.4848 -0.2360
 8756W        W22170  11.747  11.388   0.697 -0.0053  0.1921 -0.1324
 8757W        W22171   7.762  15.761   2.719 -0.1977 -0.1064 -0.1979
 8758W        W22172   5.707   2.875  11.346 -0.1611 -0.0514 -0.1739
 8759W        W22173  15.393  13.829   3.268  0.1219  0.1342  0.3844
 8760W        W22174  13.079  14.735   3.065 -0.3722  0.0919 -0.0822
 8761W        W22175  18.469  11.143   2.837  0.0030 -0.0836 -0.1530
 8762W        W22176   1.838   9.348   5.760 -0.1887 -0.0952  0.0300
 8763W        W22177  15.610   8.361  16.121 -0.0790 -0.2688  0.2554
 8764W        W22178   6.678  18.375  12.409  0.0937 -0.1620 -0.2592
 8765W        W22179   3.132   0.254  13.014  0.1459  0.0098 -0.3443
 8766W        W22180   9.498  15.730   2.921 -0.0288 -0.3165 -0.3674
 8767W        W22181  16.153  11.258  14.926 -0.1067  0.1235 -0.2139
 8768W        W22182   5.860  11.660  11.366  0.1321 -0.1565  0.0813
 8769W        W22183   4.418  15.727   4.057 -0.0042  0.1384 -0.2761
 8770W        W22184   3.885   0.156   5.207  0.2405 -0.1841 -0.4438
 8771W        W22185  11.390   8.729   4.776  0.1478  0.1531  0.1343
 8772W        W22186  15.515  10.963   4.679 -0.0080  0.2720 -0.2507
 8773W        W22187  16.158  11.173   1.680 -0.0761  0.1437 -0.1292
 8774W        W22188   8.717  15.116  10.572 -0.0408  0.2076  0.0573
 8775W        W22189  12.569   6.523   3.756 -0.2165  0.0648  0.0239
 8776W        W22190  12.206  11.892  10.663 -0.1406 -0.1789 -0.1398
 8777W        W22191   9.974   0.993  10.446  0.2348  0.0685  0.1429
 8778W        W22192  10.435  12.084  14.664  0.0594  0.1649  0.1241
 8779W        W22193  11.087  10.195  16.174 -0.2769  0.3045 -0.3764
 8780W        W22194  17.655  11.165   3.266 -0.3819  0.0402  0.1971
 8781W        W22195  14.501  13.444  13.215  0.2285  0.0265  0.0219
 8782W        W22196   0.808   4.773   5.367  0.1263 -0.2982  0.2037
 8783W        W22197   3.430  17.265  12.670  0.0687  0.0958  0.0244
 8784W        W22198  14.153  16.320   4.208 -0.0973 -0.1861 -0.1939
 8785W        W22199   5.306  18.131   2.070 -0.1776 -0.0918 -0.1933
 8786W        W22200  12.953   9.818  12.331 -0.2446 -0.0672  0.1314
 8787W        W22201   7.808   9.704  14.850 -0.0168  0.1946 -0.0578
 8788W        W22202   9.668  17.714  10.648  0.0013  0.3525 -0.1368
 8789W        W22203   7.524   1.786  15.710  0.0327  0.5366  0.2184
 8790W        W22204   5.023   1.849   4.293 -0.2601 -0.1772 -0.0020
 8791W        W22205  11.263  15.011   2.923  0.1804  0.5487 -0.1152
 8792W        W22206  11.594   4.230  10.335 -0.0097 -0.3290  0.0953
 8793W        W22207   7.218   8.994   2.223 -0.1544 -0.0789  0.0105
 8794W        W22208   2.795  10.976   2.619 -0.1511  0.0282 -0.1411
 8795W        W22209   7.806   3.096  11.742 -0.1801 -0.0658 -0.1026
 8796W        W22210  13.896  16.628   0.267  0.0842  0.0050  0.2480
 8797W        W22211   6.838   6.499   2.353 -0.0055  0.0533 -0.1394
 8798W        W22212   2.088  11.121   2.724  0.0101 -0.0521  0.1226
 8799W        W22213  10.247   5.884  12.455  0.0068 -0.2204  0.2584
 8800W        W22214   8.323  10.081  11.642  0.2343 -0.2134 -0.1265
 8801W        W22215  12.680  12.854   0.458 -0.3024 -0.0934 -0.0192
 8802W        W22216   5.342   4.149  10.353  0.1498  0.1356  0.1589
 8803W        W22217   8.978   7.282  13.445 -0.1270  0.0609  0.2438
 8804W        W22218   8.915  10.009  11.134  0.1574 -0.3473  0.0709
 8805W        W22219   1.966  13.818  15.024  0.0606  0.1158 -0.1629
 8806W        W22220  17.300  17.097   5.209 -0.0265 -0.3110 -0.0701
 8807W        W22221   3.805   5.180   5.928  0.0502 -0.2191  0.1988
 8808W        W22222   4.214  17.487  12.122  0.2916 -0.2005  0.0697
 8809W        W22223   7.921  12.961   2.610 -0.1258 -0.1673  0.2707
 8810W        W22224   9.371   4.821   7.094  0.1057 -0.2456 -0.1284
 8811W        W22225  18.513  13.174  15.242  0.0605  0.0712 -0.0739
 8812W        W22226  17.367  14.562   2.778  0.0774  0.1143  0.3002
 8813W        W22227  16.824   8.421   5.236  0.0048 -0.1777 -0.0681
 8814W        W22228   5.730   0.604   5.977 -0.0677 -0.1551  0.3966
 8815W        W22229   7.425   6.975   2.148  0.2337 -0.1804 -0.0695
 8816W        W22230  10.465   5.200  11.854 -0.0781 -0.0803 -0.0923
 8817W        W22231  10.347   4.212  11.072  0.0437 -0.1056 -0.0725
 8818W        W22232  13.218   8.609  10.616 -0.1562 -0.3277 -0.0665
 8819W        W22233   7.549  13.226  13.914 -0.1787 -0.1943 -0.0140
 8820W        W22234  15.839   9.049   3.143 -0.0219 -0.1641 -0.2559
 8821W        W22235   6.123  11.401   1.354  0.2070  0.0589  0.2130
 8822W        W22236  13.562   0.123   1.581 -0.0241 -0.0507  0.0163
 8823W        W22237  11.566  16.752   1.821 -0.1587 -0.0183  0.0032
 8824W        W22238  15.712  10.105   1.237 -0.4141  0.0426  0.1385
 8825W        W22239  15.602  10.687  13.815 -0.0748 -0.1046 -0.3339
 8826W        W22240   2.563   7.951  13.484 -0.1578 -0.1697  0.2141
 8827W        W22241   2.842   5.628  10.764 -0.2359  0.1242  0.1502
 8828W        W22242   4.782   0.893   2.217 -0.2537 -0.1059 -0.0859
 8829W        W22243   2.534   3.354   2.784 -0.1900 -0.0263  0.1689
 8830W        W22244   7.062  13.635  14.043 -0.0413 -0.1295  0.1272
 8831W        W22245   0.127   5.653   6.029 -0.1643  0.2795  0.0212
 8832W        W22246  11.406  13.465  15.338  0.2927 -0.3077  0.0088
 8833W        W22247  16.585  10.207  13.052  0.1077 -0.0148 -0.1755
 8834W        W22248  15.756  14.249   1.943 -0.1370  0.0076 -0.3130
 8835W        W22249  17.676  14.131  11.021 -0.0125 -0.1186 -0.4741
 8836W        W22250  10.155   2.007  14.889 -0.1624 -0.1573 -0.4099
 8837W        W22251   3.426  13.125   4.973 -0.0082 -0.1506 -0.3242
 8838W        W22252   4.071  18.329   2.556  0.0967  0.1448 -0.0767
 8839W        W22253  13.563   5.415   0.130  0.0470 -0.1586  0.2020
 8840W        W22254  18.254   4.825  13.703  0.2007 -0.1157 -0.0198
 8841W        W22255   3.888   7.522   1.891 -0.2580  0.3351 -0.3991
 8842W        W22256  17.741   4.599   0.326 -0.0905  0.1466 -0.0420
 8843W        W22257  16.277  10.702  14.813 -0.0793  0.2735 -0.3480
 8844W        W22258   6.669  10.245   3.322  0.1796  0.0087  0.0815
 8845W        W22259   1.868  18.431   2.998  0.3770 -0.1062 -0.0195
 8846W        W22260   1.696  12.688   4.918 -0.1857  0.2729  0.1071
 8847W        W22261   8.598   6.254  14.366 -0.2686  0.0858  0.1392
 8848W        W22262  16.399  12.423  12.883 -0.2913  0.0921  0.3974
 8849W        W22263  15.664   1.465  14.715 -0.0518  0.0042 -0.0409
 8850W        W22264   8.680   3.493  12.798  0.0123 -0.2116 -0.0597
 8851W        W22265  17.145   7.187  14.272 -0.0550  0.1422 -0.1685
 8852W        W22266   2.562  11.037  15.124 -0.1666 -0.0240  0.2159
 8853W        W22267  15.020  12.763  12.510  0.1942  0.1165 -0.3831
 8854W        W22268  16.902  13.686   1.482 -0.1798 -0.1928  0.0054
 8855W        W22269   9.299  17.040   5.030 -0.1165 -0.2439  0.0845
 8856W        W22270  14.093   1.758   3.294 -0.0678  0.1374 -0.2199
 8857W        W22271   2.298   9.068  12.636  0.1499 -0.3118 -0.1056
 8858W        W22272   3.779   9.275  14.120  0.0501  0.0949  0.1715
 8859W        W22273  13.619   3.093   1.012  0.0359 -0.1016 -0.0020
 8860W        W22274  14.258   3.681  11.665  0.1443  0.2873 -0.2615
 8861W        W22275   8.357  17.812  13.691 -0.0131  0.0664  0.2188
 8862W        W22276   6.061  10.185   5.461 -0.1834 -0.2227  0.0161
 8863W        W22277  15.378  11.123   1.083  0.0000 -0.0340 -0.1636
 8864W        W22278   1.548  15.630  13.711 -0.4517 -0.0717  0.1079
 8865W        W22279   3.219   1.627  12.867 -0.0064  0.0388 -0.0853
 8866W        W22280   1.146  15.631  15.089 -0.0599 -0.1103 -0.3509
 8867W        W22281  15.106   9.605   4.190 -0.0499 -0.0775 -0.1213
 8868W        W22282   5.747   7.854   3.428  0.1487 -0.1122  0.0115
 8869W        W22283   8.370  14.281  10.386 -0.0138  0.0327  0.1795
 8870W        W22284  13.279   6.161  14.089 -0.2721 -0.2357  0.0355
 8871W        W22285   7.956   4.766   2.229 -0.0290 -0.1028 -0.1783
 8872W        W22286  12.883   4.649   1.574  0.2394  0.3172 -0.0326
 8873W        W22287  15.288  13.438  15.383 -0.3093 -0.2854 -0.2028
 8874W        W22288  13.668  14.447  15.017  0.2119 -0.2163 -0.0580
 8875W        W22289   1.004  12.921   5.574  0.2944 -0.4470  0.2145
 8876W        W22290   3.049   5.967   2.362 -0.0893  0.0319  0.0762
 8877W        W22291   5.313   5.459   4.516 -0.0379 -0.0612  0.1111
 8878W        W22292   9.902   7.623   3.081  0.0183 -0.0856 -0.0283
 8879W        W22293   0.723  16.807   0.493 -0.1221 -0.1574  0.0196
 8880W        W22294   8.047  14.852   5.392  0.4423  0.0385  0.1097
 8881W        W22295   7.168   0.781  13.390  0.0559  0.0499  0.0682
 8882W        W22296  13.048   4.252  14.663  0.1201  0.0972 -0.0662
 8883W        W22297   8.489  10.105  14.400 -0.0230 -0.0784  0.0309
 8884W        W22298   2.129  14.983  10.986 -0.3614 -0.1183 -0.0247
 8885W        W22299  17.092   8.664  12.509 -0.1116 -0.0097 -0.0888
 8886W        W22300  11.406   6.072  15.674 -0.0186 -0.1593  0.2754
 8887W        W22301   1.637   0.292   1.330  0.1692 -0.0938  0.1565
 8888W        W22302  16.988  14.097   1.144 -0.2931 -0.1377 -0.0695
 8889W        W22303  15.882  11.748  14.041 -0.0245 -0.3713  0.0393
 8890W        W22304   9.128   0.398   3.656  0.2838 -0.1814  0.1781
 8891W        W22305   3.667   1.563   9.988  0.0100  0.3225 -0.2958
 8892W        W22306  13.185   1.198  11.561 -0.1052 -0.2908 -0.0758
 8893W        W22307  17.262   0.384  10.955  0.0694 -0.1639  0.4347
 8894W        W22308  17.543   7.874   5.498 -0.0052 -0.0040  0.1696
 8895W        W22309   6.368   0.234  12.330 -0.1812  0.2270 -0.1065
 8896W        W22310  18.522   2.766   3.348 -0.0811  0.0442 -0.4709
 8897W        W22311  11.245   9.823   2.234  0.4021 -0.0477 -0.1820
 8898W        W22312  11.077   2.184   1.086  0.0906 -0.0560  0.2907
 8899W        W22313  13.068   1.840  11.872  0.1413  0.2395 -0.2382
 8900W        W22314   3.498  17.606  13.223  0.1071  0.2206  0.0945
 8901W        W22315   9.347  11.858   2.563  0.0632  0.1686  0.4282
 8902W        W22316   7.527   0.233   4.948  0.3354 -0.3831 -0.0244
 8903W        W22317   1.441   2.413  12.823  0.1035 -0.3265 -0.0038
 8904W        W22318  13.414  16.330   4.896  0.0613  0.0035 -0.0191
 8905W        W22319   8.058  10.668  14.966 -0.1130 -0.1427  0.1078
 8906W        W22320   4.125  14.602   6.400  0.0821  0.2705 -0.0154
 8907W        W22321  14.099   2.914   4.171  0.1361 -0.0062  0.1334
 8908W        W22322   0.931  17.338  11.210 -0.0856 -0.0440  0.1562
 8909W        W22323  14.452   4.608  11.254 -0.0008  0.0310 -0.4876
 8910W        W22324  10.296  16.492   3.359  0.0775 -0.1194 -0.1090
 8911W        W22325  15.076   0.270  14.954  0.1999  0.1867 -0.1568
 8912W        W22326   5.716   0.430  14.591  0.1051 -0.0102 -0.0105
 8913W        W22327  10.653  15.125  12.887 -0.0133  0.0491  0.3122
 8914W        W22328  13.756   4.938   1.548 -0.0405 -0.0554  0.0279
 8915W        W22329  15.318  11.756   1.619 -0.0256 -0.1120 -0.1712
 8916W        W22330   8.164   3.096  14.753 -0.0788 -0.3056  0.2410
 8917W        W22331   2.742  10.225  12.947  0.1578 -0.0619  0.0577
 8918W        W22332   1.275   6.919  12.931  0.0268 -0.0608 -0.2685
 8919W        W22333  14.215   6.975   4.369  0.1546 -0.1856 -0.0835
 8920W        W22334   2.461  12.904   5.263 -0.1934 -0.1623  0.0086
 8921W        W22335   9.474   7.958   0.794  0.0188 -0.0823 -0.0551
 8922W        W22336   6.884   8.156  12.676 -0.0441  0.2471 -0.1512
 8923W        W22337  18.144  11.531  11.179  0.1582  0.1228  0.0020
 8924W        W22338  12.022   9.937   2.121  0.0490 -0.1640 -0.3864
 8925W        W22339  18.418  17.700   5.715  0.0083 -0.2342 -0.0861
 8926W        W22340  17.382  13.872   3.318 -0.0151 -0.3147  0.1907
 8927W        W22341   5.971   0.993   4.222  0.0575  0.2350  0.0914
 8928W        W22342   9.498   9.052  13.441  0.3772  0.1689 -0.2019
 8929W        W22343   1.239   6.590  11.495  0.1573  0.0206  0.0065
 8930W        W22344  11.851   7.524  11.844 -0.1769  0.0329  0.0142
 8931W        W22345   1.514   3.417   2.825  0.1465 -0.2351  0.0442
 8932W        W22346  14.558   4.980  12.549 -0.1537  0.2930 -0.0346
 8933W        W22347  16.232  12.112  13.263  0.0752 -0.0677  0.1714
 8934W        W22348  16.490   4.797  13.327 -0.0568 -0.1555  0.0337
 8935W        W22349  16.729   0.048   4.257 -0.0004  0.0043  0.0338
 8936W        W22350  15.869   9.852  10.402  0.1100 -0.0032  0.0178
 8937W        W22351   3.863   7.510   2.818 -0.0451 -0.0320 -0.3604
 8938W        W22352   9.793   6.377  15.686  0.0627  0.0101  0.0838
 8939W        W22353  17.550  16.356  15.870 -0.1446 -0.0732 -0.1016
 8940W        W22354  11.637  15.507   3.773  0.0518 -0.2828  0.2490
 8941W        W22355   6.654  16.055  15.214  0.0857 -0.1606 -0.0777
 8942W        W22356  10.743   0.452   3.131  0.0374 -0.0214  0.1663
 8943W        W22357   0.905   0.453   4.228 -0.1884 -0.1854 -0.1866
 8944W        W22358   7.749   2.942  15.898 -0.2699 -0.1704  0.2141
 8945W        W22359  14.778   5.258   1.588  0.1128  0.1957 -0.2803
 8946W        W22360   7.158   0.588   3.341  0.3010 -0.2589 -0.0386
 8947W        W22361   5.289   6.195   1.133 -0.1861  0.0831 -0.3861
 8948W        W22362   8.119   4.052  11.752 -0.5510 -0.0347 -0.0284
 8949W        W22363   8.552   5.362  10.821  0.1009 -0.0962  0.1331
 8950W        W22364   0.440   2.134   5.716 -0.0399  0.1408 -0.0240
 8951W        W22365   5.850   3.854   3.893  0.2241 -0.1510 -0.1114
 8952W        W22366   9.557  12.722   0.731  0.2341  0.0681  0.2370
 8953W        W22367   3.809   9.067   0.881 -0.1185  0.3632 -0.1534
 8954W        W22368   6.788   4.285  14.255  0.1426 -0.2060 -0.2144
 8955W        W22369  16.591  17.044   3.359 -0.1930 -0.2064  0.0195
 8956W        W22370   8.231  14.375  11.942 -0.0303 -0.0790 -0.2166
 8957W        W22371  10.018  15.467  13.627 -0.1543 -0.1877 -0.0948
 8958W        W22372   5.379  13.442   2.105 -0.0867 -0.1267  0.2193
 8959W        W22373   7.388  16.402   0.780 -0.1050  0.2888 -0.3118
 8960W        W22374  12.251  16.958   0.253  0.0714  0.0064 -0.0907
 8961W        W22375   6.994  15.035   0.308 -0.2139 -0.3199  0.1791
 8962W        W22376   7.630   0.815  12.456  0.1309  0.0120 -0.2735
 8963W        W22377   9.781  17.770  14.411  0.3729  0.1986  0.0040
 8964W        W22378  15.278   3.005  15.968  0.0595 -0.0155  0.0218
 8965W        W22379   7.796   1.302  14.716  0.0469  0.2662  0.1467
 8966W        W22380   1.727  15.948  10.464 -0.1546 -0.5280  0.0730
 8967W        W22381   4.117   5.002   2.021  0.1128  0.1265  0.1024
 8968W        W22382  17.271   1.738  16.232  0.1484 -0.1007  0.2430
 8969W        W22383  14.427   8.326  13.627  0.2733 -0.0387 -0.2175
 8970W        W22384   6.966   1.530  10.166 -0.0222  0.2336  0.0171
 8971W        W22385   4.217   1.713  15.279  0.1737 -0.4024 -0.2761
 8972W        W22386  15.794   9.051   6.098 -0.0057  0.0215  0.1597
 8973W        W22387   2.613   7.993  14.484  0.1627 -0.0076  0.0247
 8974W        W22388  18.487   0.854  15.615 -0.1437  0.3056 -0.2707
 8975W        W22389   3.044  14.384   6.030 -0.1186  0.0206  0.1117
 8976W        W22390   6.722  12.444   5.084 -0.1832 -0.0500  0.0953
 8977W        W22391   6.116   2.159   4.505  0.2771  0.0424 -0.1173
 8978W        W22392  12.550   4.725   0.225 -0.3394 -0.1754 -0.2035
 8979W        W22393   9.928   0.372   3.807 -0.1691  0.1584 -0.2690
 8980W        W22394  17.781  17.545  10.557 -0.0192  0.3800  0.0234
 8981W        W22395   7.115   4.662   0.878  0.1188  0.0065  0.2116
 8982W        W22396  17.206   6.221   4.987  0.1323  0.1213 -0.1722
 8983W        W22397   2.258  13.908  15.428 -0.1277  0.2145 -0.0192
 8984W        W22398  14.260   8.799  13.427 -0.0830  0.4149 -0.0467
 8985W        W22399  13.117  10.979   1.720 -0.0867 -0.0575  0.3288
 8986W        W22400   6.687  13.736  15.307  0.1900 -0.4573 -0.1098
 8987W        W22401  10.967  12.733   6.075  0.0331 -0.1255 -0.0350
 8988W        W22402  16.890  11.488  12.888  0.1145  0.2205 -0.1537
 8989W        W22403  10.685  12.138   4.998 -0.1718 -0.1140 -0.0761
 8990W        W22404  10.664   6.506   3.452  0.3950  0.0594 -0.0620
 8991W        W22405   3.405   9.391  11.348 -0.1917  0.1110 -0.0788
 8992W        W22406   6.848   8.320   2.191 -0.1065 -0.1296  0.0393
 8993W        W22407  16.391  11.498  15.674  0.1265  0.0656 -0.0916
 8994W        W22408  15.144  12.191  13.911  0.1194 -0.0273 -0.0865
 8995W        W22409   2.887   8.342   3.074  0.2108 -0.0992 -0.2663
 8996W        W22410  16.990   8.218  11.440  0.0736 -0.0189  0.2002
 8997W        W22411   0.937   1.309   4.402  0.0269 -0.1461  0.0552
 8998W        W22412  13.787   3.483  11.734  0.1138 -0.0256 -0.0453
 8999W        W22413  12.840   0.231  16.078 -0.1692 -0.1174  0.2637
 9000W        W22414   5.805   3.409  10.440  0.0836  0.2166 -0.0663
 9001W        W22415  10.012   1.137  14.485 -0.0441  0.1632  0.1007
 9002W        W22416   2.687  14.141  13.725 -0.3264  0.0958  0.0074
 9003W        W22417   7.824   8.593   4.242  0.1052  0.0782 -0.0604
 9004W        W22418   1.095   9.526   0.000 -0.0496 -0.0886  0.2530
 9005W        W22419   2.324  14.437  13.063  0.0142 -0.0073 -0.0961
 9006W        W22420  13.885   6.915  15.432 -0.0408  0.3695  0.1236
 9007W        W22421  13.151   2.739   3.025  0.0338  0.0154  0.0561
 9008W        W22422   6.325   7.230   1.363 -0.4979  0.1900 -0.1149
 9009W        W22423   3.406   3.100   0.219  0.3522 -0.0059 -0.0764
 9010W        W22424   2.024   8.776   2.638  0.1755  0.1754 -0.0657
 9011W        W22425   2.923   2.265   6.286  0.0367  0.1351  0.4794
 9012W        W22426  16.596   4.661   0.851  0.4984 -0.0452 -0.1048
 9013W        W22427   2.334  17.440   0.755  0.0162 -0.0296  0.0385
 9014W        W22428   6.056  17.574  14.812  0.1437  0.1593 -0.1211
 9015W        W22429   1.022   3.284   5.835  0.3344  0.1235 -0.0702
 9016W        W22430  14.130  16.250   2.000  0.0168  0.2637  0.2295
 9017W        W22431  13.040   1.889   5.605 -0.1981 -0.0222 -0.0759
 9018W        W22432   3.849   9.833  11.742 -0.1136 -0.1687 -0.1000
 9019W        W22433   7.180  13.929  15.102 -0.4222 -0.0224  0.0636
 9020W        W22434   2.811   7.148   5.994 -0.1892 -0.0249  0.3145
 9021W        W22435  14.551  13.236  15.965  0.0849 -0.1837  0.0449
 9022W        W22436   2.955   4.861   0.742 -0.0852 -0.3011  0.0092
 9023W        W22437   2.196   4.497  11.152 -0.0527 -0.0102 -0.0445
 9024W        W22438  12.769   9.774   3.282  0.1360 -0.1885  0.0905
 9025W        W22439   7.850  18.380   3.823 -0.0035  0.1917 -0.1045
 9026W        W22440   0.171   0.132   2.993  0.0518  0.1727 -0.1328
 9027W        W22441   3.150  18.336  10.961 -0.2160 -0.0749  0.3016
 9028W        W22442   9.386   0.508  13.901 -0.0459 -0.2055 -0.0461
 9029W        W22443   9.003   4.240   3.439  0.2307  0.2679 -0.0432
 9030W        W22444   3.108   9.575   6.036 -0.2319 -0.1650  0.0476
 9031W        W22445   7.537   6.560  10.015  0.3259 -0.1252 -0.0421
 9032W        W22446   5.972  16.854   0.377 -0.4168 -0.1223  0.2248
 9033W        W22447   9.842  15.239   4.208 -0.2189 -0.0380  0.0430
 9034W        W22448  10.344  17.428   1.622  0.0343  0.1332  0.0824
 9035W        W22449  18.122   7.814   0.172  0.1592  0.2596 -0.0826
 9036W        W22450  17.788   6.858   0.167 -0.1199  0.1489  0.0998
 9037W        W22451   7.006  18.102   1.541  0.1198 -0.0188  0.1742
 9038W        W22452   2.861  14.693   3.593  0.1313  0.1119 -0.3352
 9039W        W22453   7.842   8.535  12.870  0.1070 -0.0717 -0.0668
 9040W        W22454  13.361  17.290  14.833 -0.0378 -0.1709 -0.0259
 9041W        W22455  16.108  16.588  12.401 -0.0135 -0.0385  0.0227
 9042W        W22456   7.855  16.349   5.223 -0.1532 -0.2559 -0.1891
 9043W        W22457  14.263  17.599  13.567  0.1722  0.3815  0.1254
 9044W        W22458  10.641   8.040  15.736 -0.0016 -0.0112 -0.2512
 9045W        W22459   4.734   0.591  14.359  0.2944  0.3569  0.1528
 9046W        W22460  10.928   5.620  10.867  0.2836 -0.0987 -0.1844
 9047W        W22461  12.400   2.212   4.205  0.0287  0.3379 -0.2286
 9048W        W22462   7.328   3.013  15.426 -0.0984 -0.2825  0.0261
 9049W        W22463   0.638   0.186  13.552  0.0198 -0.1309 -0.0865
 9050W        W22464  11.514   5.535   5.497  0.1411  0.3493  0.2767
 9051W        W22465   8.241   1.201  15.976  0.2714 -0.0443 -0.0480
 9052W        W22466  18.521   7.083   2.194  0.0027 -0.1398 -0.0633
 9053W        W22467   5.708  17.352  13.575 -0.0904  0.0061 -0.1768
 9054W        W22468  17.163  14.279  10.269 -0.1819 -0.3218 -0.0057
 9055W        W22469   9.781  15.287  14.151 -0.0596  0.2712 -0.1469
 9056W        W22470  12.689  12.751   3.649  0.0758  0.2838  0.0561
 9057W        W22471   9.779  11.848   0.759 -0.0785  0.1496  0.1336
 9058W        W22472   5.192   0.833  11.899 -0.0817  0.0604 -0.1124
 9059W        W22473   2.224   9.460   3.520  0.0729 -0.0025  0.1141
 9060W        W22474  13.986  13.856  10.072 -0.0824  0.0425 -0.5662
 9061W        W22475   7.209  14.980  10.268 -0.0454 -0.2354  0.0511
 9062W        W22476  17.590   7.218   0.725 -0.1225 -0.1829  0.0513
 9063W        W22477  13.426   0.685  15.215 -0.1158  0.0694 -0.0112
 9064W        W22478  14.639   5.885  12.011  0.1371 -0.1360 -0.0737
 9065W        W22479   7.734   1.486  16.072 -0.2599 -0.0222 -0.2065
 9066W        W22480   1.845  13.191  15.670 -0.1222  0.2519  0.1622
 9067W        W22481   3.851  17.862  12.143 -0.4834  0.1795  0.0316
 9068W        W22482  13.635  11.797   0.221  0.2330 -0.2166 -0.0879
 9069W        W22483  11.117   5.929  10.552 -0.1202 -0.1480  0.3013
 9070W        W22484   2.272   1.882  13.802 -0.1005 -0.3148  0.1831
 9071W        W22485   1.481  16.493  14.578 -0.0969 -0.1801  0.2694
 9072W        W22486   7.406   9.506  13.831  0.0812 -0.2361 -0.0381
 9073W        W22487   4.674   7.444  13.772  0.3639  0.4286 -0.1958
 9074W        W22488   7.020   7.262   4.308  0.0543 -0.2884  0.0382
 9075W        W22489   3.850  13.882  10.425 -0.0617 -0.3097 -0.2088
 9076W        W22490   8.124   8.062  12.693 -0.0839 -0.2315 -0.1309
 9077W        W22491  16.718   0.999   5.683 -0.0108 -0.1320 -0.0165
 9078W        W22492   2.457  12.692   1.919  0.1704  0.0998  0.1523
 9079W        W22493  12.719  15.830  12.394 -0.2533 -0.1199  0.1991
 9080W        W22494  14.854   9.453  11.704  0.1756 -0.0210 -0.1323
 9081W        W22495   3.668   3.730  12.569 -0.2080 -0.1343  0.0633
 9082W        W22496   1.375   1.915  12.981  0.3306  0.1207  0.0043
 9083W        W22497   5.034  10.418  15.716 -0.1051  0.0844 -0.0107
 9084W        W22498   1.297   9.746  15.731  0.2553 -0.1174 -0.1732
 9085W        W22499   0.008  12.602   3.102 -0.3007 -0.0822 -0.1018
 9086W        W22500  14.755  13.555   0.067  0.2760  0.2516  0.1825
 9087W        W22501  15.213   7.694  14.627 -0.0396 -0.3579 -0.0520
 9088W        W22502  11.169   8.939   0.814  0.3833  0.2297  0.2627
 9089W        W22503  14.459  13.989   3.046  0.1205 -0.1396 -0.2144
 9090W        W22504   4.518  11.219   2.028  0.0142  0.1203 -0.1141
 9091W        W22505   2.082   3.860  13.667 -0.3429  0.0609  0.3316
 9092W        W22506   7.708  13.030   2.156 -0.1519 -0.1335 -0.0899
 9093W        W22507   2.661  12.233   0.256  0.2126 -0.3488  0.0086
 9094W        W22508  16.414  17.396   3.036  0.0832 -0.3117 -0.1498
 9095W        W22509  17.936   7.084   2.569  0.2289 -0.0543  0.1341
 9096W        W22510  16.284  18.509   0.525  0.1476  0.1665 -0.1281
 9097W        W22511  10.427  13.899   3.466  0.1547  0.1056  0.1121
 9098W        W22512  17.045   2.118  12.712 -0.1050  0.1929  0.1774
 9099W        W22513   5.250   9.761   4.873 -0.1210 -0.1101 -0.5219
 9100W        W22514   7.486   8.531   6.439  0.0940 -0.2531 -0.1192
 9101W        W22515  18.186  12.773   0.171 -0.1045 -0.2096 -0.0172
 9102W        W22516   4.934   0.883  12.441  0.0263 -0.0881  0.0464
 9103W        W22517   8.145  13.221   9.319 -0.0632 -0.2140 -0.0787
 9104W        W22518   0.151   8.304  10.317  0.1921  0.2688  0.0443
 9105W        W22519   5.783  14.549   0.118 -0.1870 -0.2031  0.1407
 9106W        W22520  12.641   8.511   5.233  0.2273 -0.2769  0.3088
 9107W        W22521   3.738   1.706  16.226  0.1835  0.1270  0.0361
 9108W        W22522  14.965  10.137  11.860  0.1237 -0.0201 -0.2159
 9109W        W22523  13.815   6.045   4.597  0.1050  0.0287 -0.2930
 9110W        W22524   6.913  13.036   9.727  0.2128  0.0312 -0.0309
 9111W        W22525   7.852  12.024  13.520 -0.2118  0.2405 -0.2354
 9112W        W22526   2.652  15.320   0.885 -0.0133  0.2833 -0.0559
 9113W        W22527   1.169  12.210  11.777 -0.1517  0.0426 -0.2485
 9114W        W22528   4.353   0.037  11.697  0.2237 -0.0479 -0.0962
 9115W        W22529   5.731  15.094  15.859  0.0120  0.1329  0.3648
 9116W        W22530  12.134  16.302   0.999 -0.2085 -0.0180  0.1500
 9117W        W22531  10.599   5.063  14.951 -0.0831 -0.0338  0.3577
 9118W        W22532  13.759   5.493  14.555 -0.1347  0.1208 -0.0390
 9119W        W22533   7.591  16.090   1.833 -0.4438  0.0796  0.0196
 9120W        W22534   3.699  14.053  12.956 -0.0552 -0.0250  0.0549
 9121W        W22535  15.593  16.567   2.122 -0.1944 -0.0043 -0.0432
 9122W        W22536  17.921  10.257  13.391  0.1437 -0.3361  0.0871
 9123W        W22537  12.743   8.064   4.858  0.0662  0.0900 -0.3098
 9124W        W22538   9.703   0.509  13.546 -0.1315 -0.1819 -0.0330
 9125W        W22539  15.765  16.906  14.874 -0.1466  0.0278  0.1939
 9126W        W22540   4.533   4.360  10.777  0.2465  0.0868  0.1513
 9127W        W22541  11.801  17.095   0.441  0.1715  0.1711 -0.0996
 9128W        W22542   5.421  14.402  11.037 -0.1790  0.0401 -0.1223
 9129W        W22543  13.268   7.814  15.355 -0.0356 -0.2702  0.1782
 9130W        W22544  15.116  10.480   4.737  0.1989  0.0889 -0.2758
 9131W        W22545  12.987   8.311   0.252  0.0461  0.3881 -0.3107
 9132W        W22546  14.788  18.222   3.420 -0.2074  0.0991  0.0476
 9133W        W22547  16.310   9.285   3.009  0.1675  0.0044 -0.1647
 9134W        W22548   6.871   2.506   5.341 -0.0870  0.0448 -0.0182
 9135W        W22549   2.372   6.983  16.019 -0.0931 -0.0751 -0.1227
 9136W        W22550   9.244   3.432   3.885  0.1394  0.3217 -0.3767
 9137W        W22551   9.793   5.654  14.833 -0.0410 -0.3583  0.0593
 9138W        W22552   5.391   2.250  14.948 -0.2044 -0.3625 -0.1645
 9139W        W22553  18.248   5.851  11.497 -0.1684  0.1553  0.0190
 9140W        W22554   4.773  14.927  13.082 -0.0096  0.3022 -0.1777
 9141W        W22555   0.886  16.632  14.435 -0.3556 -0.0771 -0.1377
 9142W        W22556   7.639   2.234  12.965 -0.1131 -0.0049 -0.0992
 9143W        W22557   9.904  17.100   3.137  0.2187  0.1300  0.1569
 9144W        W22558   5.126   0.057  12.346 -0.2150  0.2194  0.2281
 9145W        W22559  14.462   6.546  13.474  0.2601  0.0535  0.2074
 9146W        W22560  12.434   6.067   3.941  0.0705 -0.3870  0.0736
 9147W        W22561   6.300   5.806   2.981 -0.1742 -0.0744  0.1269
 9148W        W22562  13.118  13.942  10.366 -0.3415  0.1953 -0.1201
 9149W        W22563   6.151  17.003   3.198 -0.0579 -0.2031 -0.2326
 9150W        W22564   7.107   1.511  12.303  0.0741  0.4904 -0.3633
 9151W        W22565   1.475  16.648  15.053 -0.1569  0.2721  0.2095
 9152W        W22566  10.693  11.088   5.022  0.3531  0.1209 -0.3452
 9153W        W22567   8.470  13.680  13.866  0.1261  0.1333 -0.0194
 9154W        W22568   3.986  13.002  11.597 -0.0108 -0.1581  0.3099
 9155W        W22569   0.439  10.888   1.533 -0.1386  0.1293 -0.0185
 9156W        W22570  17.618  18.309   5.825  0.2054  0.0486  0.3025
 9157W        W22571  17.823  15.829  15.120  0.4320 -0.3607 -0.1571
 9158W        W22572  16.685  16.274  15.097  0.0094  0.1545 -0.1551
 9159W        W22573  16.926  14.569   4.239 -0.2938  0.2316  0.1966
 9160W        W22574   4.831  10.377   0.946 -0.0340  0.1107  0.1262
 9161W        W22575  12.557   5.686   0.143  0.2886  0.3505 -0.0907
 9162W        W22576   8.040   8.017   4.072 -0.1586  0.0561 -0.1589
 9163W        W22577  17.309   4.148  13.205  0.3358  0.1229  0.5536
 9164W        W22578   4.319   0.144   1.977 -0.1294  0.0921 -0.3117
 9165W        W22579  10.715   9.776  10.763 -0.2029  0.0647  0.1460
 9166W        W22580   5.921  11.472   5.523 -0.0796  0.0912  0.1962
 9167W        W22581   2.224  13.184   4.707 -0.0274 -0.1860  0.1065
 9168W        W22582  11.823   8.894  14.372  0.0762 -0.0516  0.3563
 9169W        W22583  12.355   5.881  13.863 -0.0058 -0.0052 -0.0980
 9170W        W22584  11.978   1.551  15.393  0.4870  0.0818 -0.2217
 9171W        W22585   9.894   3.997   1.751  0.0471  0.0924 -0.2009
 9172W        W22586   7.435  13.728  10.744  0.0475 -0.0614 -0.0615
 9173W        W22587  17.368  11.123   2.336  0.0391  0.1003  0.2648
 9174W        W22588  12.744  12.795  13.303 -0.1202 -0.1713 -0.1538
 9175W        W22589   2.320  10.468   3.505  0.3133  0.1874  0.4255
 9176W        W22590  10.583   3.465  12.510  0.0117 -0.0717  0.1894
 9177W        W22591   7.235   4.272  13.946  0.2339  0.0073  0.0924
 9178W        W22592   0.406   9.397  15.389  0.0202  0.1407 -0.3605
 9179W        W22593  11.501   7.879   0.728  0.1192  0.0071  0.0130
 9180W        W22594   0.580   1.492  12.390  0.1780  0.1260 -0.2476
 9181W        W22595   3.933  13.819   2.761 -0.1884  0.1651  0.0029
 9182W        W22596  11.440   6.968  11.466 -0.1256  0.1269 -0.1000
 9183W        W22597   0.180   6.623  12.445  0.1986 -0.3259 -0.4558
 9184W        W22598   0.655  13.392   0.127 -0.1182 -0.0632  0.2266
 9185W        W22599  10.785  11.104  16.148  0.0921  0.2907 -0.1490
 9186W        W22600   4.269   8.921  13.040 -0.0608 -0.2176 -0.1043
 9187W        W22601  17.383   1.214   4.347  0.1824  0.0946 -0.1650
 9188W        W22602  17.871  11.121   0.595 -0.2416  0.0554 -0.0903
 9189W        W22603  14.781  13.379  11.255  0.2666  0.0262  0.1735
 9190W        W22604   8.053  18.291  12.146  0.0687  0.1413 -0.0501
 9191W        W22605   8.840  16.794  14.670  0.1804 -0.0242  0.4957
 9192W        W22606   4.758   3.096   4.075  0.1758 -0.0749  0.0739
 9193W        W22607  10.123   9.844   4.562 -0.0490  0.3090 -0.0144
 9194W        W22608  13.040  13.673   2.310 -0.1954 -0.4007 -0.0327
 9195W        W22609  11.278   1.151  13.630  0.0035 -0.1187  0.0096
 9196W        W22610  12.222   0.828  13.231  0.0571  0.0638  0.0145
 9197W        W22611   2.574  18.337  14.659  0.3706  0.3266 -0.0607
 9198W        W22612  10.544  17.478   2.490 -0.2858 -0.0763 -0.0574
 9199W        W22613  10.380   7.912   0.891 -0.0404 -0.0411 -0.0941
 9200W        W22614   8.339   7.041  15.936  0.1737 -0.2158 -0.1484
 9201W        W22615  16.851  13.596   4.257  0.1761 -0.0874 -0.0618
 9202W        W22616  16.204  10.317  14.395  0.0758  0.1811 -0.3946
 9203W        W22617  15.016   6.278  13.358  0.0566  0.0847  0.0525
 9204W        W22618   6.776  16.994  14.671 -0.0400 -0.0006 -0.0019
 9205W        W22619  11.373   3.547  12.815 -0.0101  0.2152 -0.3136
 9206W        W22620  11.945   1.386  11.702 -0.0783 -0.0645  0.0595
 9207W        W22621  16.518   9.080  14.092  0.1361  0.0717 -0.1417
 9208W        W22622  15.161  13.636   3.688 -0.5526  0.3691 -0.0116
 9209W        W22623   4.292  16.019   3.713 -0.1285 -0.1529  0.0347
 9210W        W22624  15.976  11.853   5.951  0.2718  0.2084  0.0081
 9211W        W22625   7.340   4.618   5.124  0.0140  0.2201 -0.1666
 9212W        W22626   8.680   7.984  14.770 -0.1710  0.2083  0.0590
 9213W        W22627   3.484   9.856   4.492  0.4538 -0.4152  0.1157
 9214W        W22628   3.518   6.142   5.258  0.0448  0.2414 -0.5067
 9215W        W22629   3.198   1.954  13.732  0.1909 -0.1736  0.0615
 9216W        W22630  14.754   2.062   4.027  0.0061  0.0300 -0.2777
 9217W        W22631   7.588  15.001  14.748 -0.1060  0.1705  0.1407
 9218W        W22632   7.240   6.229   3.760 -0.2267 -0.4671  0.3377
 9219W        W22633  15.199  13.017   0.159 -0.0569  0.1146 -0.2809
 9220W        W22634  14.372   2.837   2.272  0.1258 -0.0278  0.1769
 9221W        W22635   4.856  14.429   0.916 -0.4383  0.0901  0.2321
 9222W        W22636   5.836   5.659  11.695 -0.0178  0.0114  0.2063
 9223W        W22637   8.801  12.547  14.499 -0.1395  0.1126  0.0581
 9224W        W22638  15.670  14.436  12.445 -0.0996 -0.1353  0.1247
 9225W        W22639  11.394   5.188  15.882  0.0752  0.0991  0.1377
 9226W        W22640   9.485   0.456   4.006  0.2943  0.0322  0.1235
 9227W        W22641   2.534  15.804   1.012  0.0834 -0.1147 -0.0210
 9228W        W22642   1.384   6.408  13.386  0.2145 -0.4278  0.0250
 9229W        W22643  11.944  13.033  14.656 -0.1707  0.0253 -0.3512
 9230W        W22644  11.954  15.987   1.323 -0.0975  0.1929  0.2440
 9231W        W22645   5.012  17.592   1.121  0.0431  0.2730 -0.0662
 9232W        W22646   0.866  14.052  10.477 -0.3228 -0.0851 -0.0660
 9233W        W22647  14.581   3.668   5.621 -0.2312  0.3105 -0.4155
 9234W        W22648  10.523  15.730  11.844  0.1079 -0.1539  0.0264
 9235W        W22649  12.172   7.387   3.127 -0.1554 -0.3172 -0.1522
 9236W        W22650  14.644   1.671  15.162  0.1782  0.3058 -0.0173
 9237W        W22651  10.435   0.147   2.755 -0.1486 -0.0216  0.2154
 9238W        W22652   3.209   0.037  10.548  0.0573  0.2188 -0.0887
 9239W        W22653   9.366  10.277  11.995 -0.0559 -0.2621 -0.0418
 9240W        W22654   8.873   2.052   1.239 -0.2570  0.1837  0.1857
 9241W        W22655  16.433   1.358   5.896  0.0126 -0.1621  0.3553
 9242W        W22656   2.728   8.771   1.827  0.2129  0.2278 -0.0051
 9243W        W22657   2.761  12.106   4.572 -0.1527 -0.4462  0.1724
 9244W        W22658   9.397  16.373  12.735  0.1773  0.0293  0.0497
 9245W        W22659  14.879   3.594   5.145 -0.1139  0.0298 -0.3040
 9246W        W22660  10.155  12.921  14.151  0.0596  0.0855  0.0362
 9247W        W22661   2.509   1.930   1.707  0.3367 -0.0676 -0.1435
 9248W        W22662   1.191   4.585  12.647  0.1738  0.1940  0.0879
 9249W        W22663  17.326  15.606  14.153 -0.3822  0.0555  0.2340
 9250W        W22664   3.372  12.636   3.290 -0.2428  0.0423 -0.2100
 9251W        W22665   1.368  10.100   6.153 -0.1152  0.0461  0.0405
 9252W        W22666   9.060  18.328   0.925 -0.0360 -0.0125  0.2625
 9253W        W22667   0.951   6.349   1.304 -0.1870  0.3120 -0.1754
 9254W        W22668   8.991   0.437   2.425 -0.2739 -0.1861 -0.3063
 9255W        W22669   5.785   8.097  10.475  0.1803  0.0498 -0.0584
 9256W        W22670   9.258  14.521  12.497  0.0804 -0.1034  0.1383
 9257W        W22671  13.149   2.854   1.995 -0.2515  0.1232  0.0233
 9258W        W22672  11.260  16.452   0.115 -0.1487 -0.1844  0.1043
 9259W        W22673  18.516  13.145  12.003 -0.0328 -0.1461 -0.2495
 9260W        W22674  10.806   8.094  11.045 -0.0053 -0.4188 -0.1674
 9261W        W22675   7.832  11.967   6.398  0.2200  0.0514 -0.2017
 9262W        W22676  12.171  11.020  15.688 -0.1335 -0.2427 -0.0354
 9263W        W22677   4.822  16.382  12.921 -0.0125  0.2310  0.1817
 9264W        W22678   6.931   5.148   3.099 -0.0036 -0.0421 -0.2488
 9265W        W22679   1.182  16.028   2.761  0.4128  0.0082  0.3018
 9266W        W22680   0.867   5.161   2.992  0.0154 -0.3878 -0.3409
 9267W        W22681   5.401  11.810  10.871 -0.2256 -0.0646 -0.0130
 9268W        W22682  17.596  12.244  13.343  0.3104  0.3996  0.3702
 9269W        W22683   9.908  13.890   3.229 -0.0758 -0.3421 -0.1422
 9270W        W22684  10.108   6.606   1.155 -0.0881  0.1199  0.0003
 9271W        W22685  16.366   5.541   2.051 -0.1304 -0.0635 -0.0487
 9272W        W22686   7.438   7.573   2.154 -0.1693 -0.1255  0.1150
 9273W        W22687   7.866  12.930   4.222 -0.2777 -0.2882  0.1551
 9274W        W22688  18.390   4.010  11.633 -0.1800  0.1333 -0.0561
 9275W        W22689   6.799   6.456  14.045  0.2583 -0.1914 -0.2958
 9276W        W22690  15.784   8.716   3.584 -0.2752 -0.0705 -0.1261
 9277W        W22691  10.916  18.494  13.140 -0.2366  0.1299 -0.0016
 9278W        W22692   8.438  13.981   4.534 -0.0630  0.4357 -0.0694
 9279W        W22693   4.877   1.621  14.423 -0.0309 -0.0978 -0.1016
 9280W        W22694  17.750  13.867  12.627 -0.2941 -0.0075  0.0864
 9281W        W22695  11.694   1.474   5.329 -0.0605  0.0852  0.2341
 9282W        W22696  13.435   6.669   3.937 -0.0429 -0.1805  0.1611
 9283W        W22697  11.182  18.223  12.746 -0.2326  0.5462  0.0081
 9284W        W22698  15.321   3.107   5.615 -0.1621 -0.0630  0.2548
 9285W        W22699  16.348   3.469   4.018  0.1157  0.1623  0.3021
 9286W        W22700   1.818   1.582   6.258 -0.2014 -0.3014  0.0472
 9287W        W22701  14.169  15.708   3.293 -0.1226  0.1537  0.0721
 9288W        W22702  17.831  15.899   2.403 -0.1561 -0.1642 -0.0696
 9289W        W22703   3.298   6.518  11.498  0.1263 -0.2106 -0.3230
 9290W        W22704  13.533   7.105  12.787  0.1699  0.1468 -0.2331
 9291W        W22705  17.573   7.861  10.758 -0.2607 -0.1489 -0.2751
 9292W        W22706   8.927   8.371   3.303 -0.1158 -0.1913 -0.1889
 9293W        W22707  10.137  18.178   2.739 -0.2492  0.1780  0.0001
 9294W        W22708   0.305  14.287   0.598  0.0529 -0.0227  0.2362
 9295W        W22709   1.857   1.512  15.670  0.0639 -0.0437 -0.1696
 9296W        W22710  17.704   6.093   1.117 -0.2860 -0.1464 -0.1749
 9297W        W22711  17.795   7.387   0.220  0.1361  0.1376 -0.0789
 9298W        W22712  16.188  16.054   0.762  0.4423  0.1055 -0.0669
 9299W        W22713  15.331   7.864   3.260  0.0418 -0.0645  0.0392
 9300W        W22714   2.891   7.140  12.688  0.2007 -0.0278  0.0656
 9301W        W22715   7.628   9.797  10.212 -0.1268 -0.0024 -0.0217
 9302W        W22716   1.245   5.078   0.049 -0.1129  0.1487  0.3179
 9303W        W22717  14.571   8.286  14.289 -0.5413 -0.0693 -0.0989
 9304W        W22718   4.636   7.803  15.001  0.1205 -0.2241 -0.1414
 9305W        W22719  15.270  16.801   0.360 -0.0188 -0.0879 -0.0411
 9306W        W22720   8.865   0.399   0.415 -0.2389 -0.2889  0.0004
 9307W        W22721   5.608   9.979   5.615  0.0677 -0.0379  0.1663
 9308W        W22722  10.673  10.476   3.632  0.0255  0.0486 -0.0837
 9309W        W22723   7.045   4.296   2.201 -0.0162  0.0116  0.0174
 9310W        W22724  11.230  10.258   2.540  0.0917  0.1567 -0.0329
 9311W        W22725   8.376  11.782   5.754  0.2890  0.0186  0.1020
 9312W        W22726   5.297  13.239   4.511  0.2457 -0.0918 -0.2329
 9313W        W22727  11.536  17.137  10.838 -0.0263  0.0285 -0.0296
 9314W        W22728  14.818   0.155  13.558 -0.0670  0.2144 -0.0666
 9315W        W22729   2.656  14.255   3.684  0.0258  0.2784  0.4727
 9316W        W22730  16.232   9.585   4.438  0.1039  0.0923 -0.0586
 9317W        W22731  18.109  10.462   4.748  0.4922 -0.1711  0.2039
 9318W        W22732  17.362   4.375   2.433 -0.0864  0.0938 -0.3492
 9319W        W22733   2.949  16.800  14.170 -0.0209 -0.0492  0.0074
 9320W        W22734  10.435  13.328  10.615  0.0280 -0.1639  0.0401
 9321W        W22735  13.939  15.743  12.895 -0.1186  0.1357 -0.1681
 9322W        W22736  16.543   1.832  10.855  0.3361 -0.3958 -0.1615
 9323W        W22737   5.155   0.109  15.030  0.2911  0.3837 -0.1513
 9324W        W22738  17.758  16.219  12.746 -0.5529 -0.0669 -0.0636
 9325W        W22739  13.580   2.523  10.914  0.1047 -0.3437  0.0917
 9326W        W22740   9.089  12.725  13.169  0.0184  0.0561  0.0952
 9327W        W22741   3.847  13.310   2.536 -0.1283  0.0865  0.0683
 9328W        W22742  11.199  10.252  14.975  0.1827 -0.4608 -0.1439
 9329W        W22743   8.587   2.414   5.384  0.2233 -0.1028 -0.0322
 9330W        W22744   0.653  12.271  14.238  0.0491 -0.3229  0.0448
 9331W        W22745   4.103   6.564   1.711 -0.1768  0.1962 -0.0794
 9332W        W22746   2.379   2.696   1.998 -0.1480 -0.0559 -0.2178
 9333W        W22747   6.806  10.202  10.463 -0.0439  0.0514 -0.0815
 9334W        W22748   3.842  17.638  13.875  0.2935 -0.0204  0.0272
 9335W        W22749  15.614   7.233   4.111  0.3531 -0.0059 -0.1865
 9336W        W22750  15.216  16.678  16.127 -0.1569 -0.0214  0.0919
 9337W        W22751  16.972  18.100   5.184  0.2043 -0.1950 -0.3497
 9338W        W22752   3.500  16.352  10.710 -0.2920 -0.1651 -0.4960
 9339W        W22753   5.717  15.528   1.166  0.1020 -0.2377 -0.0473
 9340W        W22754   3.006   2.546  14.879  0.3917  0.1608  0.2798
 9341W        W22755   2.672  11.807  15.923  0.3304  0.1492 -0.0520
 9342W        W22756   4.711   2.995  12.736  0.1524  0.0195 -0.0018
 9343W        W22757   3.463  12.981   3.691 -0.2862 -0.2441  0.2367
 9344W        W22758  15.733  12.247  14.704  0.0264  0.1214 -0.0069
 9345W        W22759  14.287   2.665  11.369 -0.1404 -0.0038 -0.1100
 9346W        W22760   6.507   3.844  12.899  0.0766  0.0947 -0.1329
 9347W        W22761   7.221   7.750   0.768 -0.0972  0.0024  0.0606
 9348W        W22762  14.228  14.465   2.940 -0.1336 -0.1391  0.0874
 9349W        W22763  12.955  14.793  16.143 -0.0176  0.2318 -0.1298
 9350W        W22764   0.349  17.223  16.142 -0.1347 -0.0975  0.0405
 9351W        W22765   8.811  18.162  11.165  0.1884  0.0735  0.1013
 9352W        W22766  12.870   5.659   6.334 -0.1174  0.0134  0.1821
 9353W        W22767  12.002   1.214   3.016  0.0273  0.1633  0.1623
 9354W        W22768   4.687   3.411  12.988  0.1167 -0.2629 -0.0409
 9355W        W22769  12.611   2.245   3.702 -0.3475  0.1949 -0.1762
 9356W        W22770  13.154  18.349   9.920 -0.1723  0.1174  0.0584
 9357W        W22771   3.721  11.596   5.934  0.1678  0.2085  0.2255
 9358W        W22772  12.286   0.626  12.245  0.0980 -0.0442 -0.0977
 9359W        W22773   7.144   2.367  14.425 -0.0139  0.0807  0.2575
 9360W        W22774  12.667  16.997  11.775 -0.1003 -0.3294  0.0369
 9361W        W22775   5.293  16.931  13.604  0.2654 -0.1456  0.0949
 9362W        W22776   2.719   8.468   1.045 -0.1495 -0.4059  0.0263
 9363W        W22777  12.428   0.464   3.824  0.1784  0.1831 -0.0568
 9364W        W22778  10.398  17.548  12.461  0.0028 -0.0888 -0.1251
 9365W        W22779   7.159   6.676  12.444 -0.0842 -0.1408  0.1892
 9366W        W22780  12.641   4.039  12.752 -0.2672  0.2404 -0.1821
 9367W        W22781   2.922  17.271  11.445 -0.1334 -0.3008  0.1104
 9368W        W22782  10.459   6.400  13.375  0.0592  0.0679  0.3966
 9369W        W22783   6.303   4.814   2.898  0.1874  0.0478  0.3020
 9370W        W22784  12.770   4.980   3.625 -0.3135 -0.2442 -0.3545
 9371W        W22785  15.254   8.639   3.683  0.1310  0.2567 -0.0637
 9372W        W22786  15.678  18.065   4.474 -0.0269  0.1104 -0.1704
 9373W        W22787   8.605   9.035  16.165  0.1010  0.0160  0.3402
 9374W        W22788  13.257   7.758  12.300  0.0632  0.1175  0.2103
 9375W        W22789  13.654  14.521   4.160 -0.0323 -0.0976  0.0076
 9376W        W22790   3.608  13.282  15.029  0.1117  0.0996  0.1221
 9377W        W22791   0.222   6.588  11.384  0.0346 -0.0556  0.2762
 9378W        W22792  16.689  18.469   5.441 -0.1566 -0.3031 -0.2104
 9379W        W22793   4.072   9.029  12.544 -0.5470  0.0542 -0.1496
 9380W        W22794   1.670   4.477  14.905 -0.0868  0.0031 -0.2058
 9381W        W22795   6.746   4.994  14.728 -0.4344  0.3033 -0.0427
 9382W        W22796   6.958  11.825  11.208 -0.2072 -0.0055 -0.0618
 9383W        W22797  18.255  12.755  12.146  0.1837  0.0361  0.1768
 9384W        W22798  10.463   1.761  14.548 -0.0366  0.0859  0.0645
 9385W        W22799  14.712  12.788   1.935  0.2182  0.0779  0.0119
 9386W        W22800   3.057   5.852   3.802 -0.1627  0.1958  0.0323
 9387W        W22801   7.645   3.575  15.396 -0.1079  0.0720  0.2495
 9388W        W22802  11.430   8.024  14.447  0.0367 -0.3881  0.0774
 9389W        W22803   8.080   6.497   5.591  0.2758 -0.0488  0.0835
 9390W        W22804   8.707   1.044  11.068 -0.0936  0.2431 -0.0854
 9391W        W22805  13.721   5.946   0.719 -0.0126  0.2273  0.1261
 9392W        W22806  14.987  15.327   6.823  0.1084  0.0276  0.0677
 9393W        W22807  15.202  12.031   5.447 -0.0564  0.1493  0.0396
 9394W        W22808   8.752   1.548   1.557  0.1485 -0.2871 -0.0516
 9395W        W22809  10.182   8.909   3.376  0.1993  0.0819  0.0049
 9396W        W22810  16.149  10.519   5.349  0.0488  0.0492  0.3012
 9397W        W22811   4.336   8.670   5.350 -0.4396  0.0319  0.0277
 9398W        W22812  13.368   2.955   9.991  0.1882  0.0283  0.0964
 9399W        W22813  13.404  11.729   1.397  0.2677 -0.2970 -0.0128
 9400W        W22814  13.013  12.544   1.837 -0.0719  0.2842 -0.0894
 9401W        W22815  10.161  12.176   0.969 -0.1895  0.2099  0.0704
 9402W        W22816  14.508   8.075   1.402 -0.2168  0.1282  0.0645
 9403W        W22817   6.775   2.209  11.950  0.2035  0.1387  0.0255
 9404W        W22818  17.020   1.788  11.063 -0.1106 -0.1425 -0.1310
 9405W        W22819   6.759   2.994   5.566 -0.1586  0.1474 -0.2887
 9406W        W22820   5.201   6.403  14.748  0.1296 -0.1529 -0.2592
 9407W        W22821   8.765   7.609   0.969  0.1296 -0.1846  0.0146
 9408W        W22822   9.403  17.916   0.147 -0.2280 -0.0329  0.3181
 9409W        W22823  10.514   2.498   5.684  0.2128  0.1157 -0.0694
 9410W        W22824   1.603  16.591   4.716 -0.1972 -0.0277  0.0207
 9411W        W22825   9.324   6.020   0.214 -0.2440 -0.0839 -0.0266
 9412W        W22826   4.842   3.084   5.645  0.0835  0.4508 -0.0019
 9413W        W22827   6.023  17.825  10.525 -0.1261  0.0569 -0.0004
 9414W        W22828  13.517  14.690   3.646 -0.2533  0.0635  0.0464
 9415W        W22829   0.511   6.659  16.183 -0.0797  0.0723  0.0433
 9416W        W22830   1.919   1.579   2.121  0.2425 -0.1411  0.1223
 9417W        W22831  16.951  16.348  12.483 -0.1681  0.2323 -0.0263
 9418W        W22832   4.553  10.682   1.836 -0.2785 -0.0495  0.2532
 9419W        W22833   9.829  14.053   1.247 -0.0088  0.0122  0.0033
 9420W        W22834   2.594   6.373   5.266  0.2937 -0.1964  0.2349
 9421W        W22835   3.706  13.041  14.057 -0.3675 -0.0090  0.2044
 9422W        W22836   1.653   7.218  12.322 -0.2611 -0.0228 -0.2911
 9423W        W22837   1.182  14.146   3.666 -0.3849 -0.1267 -0.4003
 9424W        W22838   5.132  14.003   1.430  0.4470 -0.4026  0.3453
 9425W        W22839   7.096  12.769   0.747 -0.2825 -0.0016 -0.1389
 9426W        W22840  16.391  13.062  12.857  0.2265 -0.1116  0.0511
 9427W        W22841  12.363   2.807   0.682  0.0987  0.1423 -0.3313
 9428W        W22842   5.432   4.517   4.725  0.1335  0.2474  0.3234
 9429W        W22843   1.846   4.975   5.011  0.1748  0.1312  0.2310
 9430W        W22844   5.210  11.028   0.462  0.1812 -0.1402  0.3466
 9431W        W22845   6.486   7.982   2.681 -0.0250 -0.1197 -0.1143
 9432W        W22846   4.392   7.398   0.746  0.1214 -0.0233  0.0237
 9433W        W22847   9.741   8.111   1.613 -0.0700 -0.2593 -0.1150
 9434W        W22848  14.357   0.942  10.486 -0.0495 -0.1546  0.1394
 9435W        W22849   6.536   5.883   5.446 -0.2625 -0.0917  0.4177
 9436W        W22850  11.852   9.860  14.592  0.3490 -0.3465  0.2445
 9437W        W22851  12.414   1.779   3.614 -0.0590  0.0776  0.2037
 9438W        W22852   2.718   1.995  13.658 -0.0140  0.1120 -0.2705
 9439W        W22853   4.820   6.536  12.548  0.0798  0.0538 -0.2068
 9440W        W22854   5.824   7.179  14.741  0.0717 -0.0629 -0.2678
 9441W        W22855   5.965   9.169   5.592 -0.0377 -0.0559  0.3998
 9442W        W22856   7.032  13.732   4.828  0.2143  0.2194 -0.2001
 9443W        W22857  11.095  15.272  12.700 -0.0988  0.3431 -0.0108
 9444W        W22858  17.366  17.890   5.560  0.0829  0.0807  0.0106
 9445W        W22859   2.983  14.092  10.809  0.1538 -0.2116 -0.0490
 9446W        W22860  15.000   0.965  14.252  0.1342 -0.1645 -0.2965
 9447W        W22861  12.421  13.061  12.431 -0.0665  0.2243 -0.0122
 9448W        W22862  11.060  13.591  12.611 -0.1700  0.0340 -0.0162
 9449W        W22863   1.658  13.362  14.966 -0.1002  0.1032 -0.0685
 9450W        W22864   2.878  11.931  14.837  0.0254 -0.3556  0.0122
 9451W        W22865  13.065  16.849  12.797 -0.1841  0.0853  0.0750
 9452W        W22866   4.385  18.095   5.539 -0.0801 -0.0493  0.2375
 9453W        W22867   2.624  12.457  11.396  0.0244  0.0014  0.1960
 9454W        W22868   9.190  13.281  14.771 -0.3841 -0.5215  0.0164
 9455W        W22869   0.674   1.984  14.709 -0.0211 -0.3632  0.2162
 9456W        W22870  13.617   2.565  11.962 -0.3789  0.2204  0.0004
 9457W        W22871   6.695   8.751  14.657  0.0028 -0.2375 -0.0156
 9458W        W22872  18.184   5.997  10.113  0.3430  0.1693  0.0395
 9459W        W22873  15.231   3.404  13.965 -0.1808 -0.0534  0.0015
 9460W        W22874   2.680  12.250  14.216  0.2884 -0.3095 -0.1336
 9461W        W22875  15.204   7.699  10.449  0.0588 -0.1169  0.0636
 9462W        W22876  11.703   0.525   2.038  0.1629  0.0170  0.0776
 9463W        W22877  14.644   7.883  12.473 -0.4048  0.0487  0.0379
 9464W        W22878  13.459   4.888   0.170  0.2932 -0.1647  0.1790
 9465W        W22879   8.358   4.122   2.686  0.0709 -0.2189 -0.0574
 9466W        W22880  12.803   1.538  12.257 -0.3803 -0.1969 -0.2126
 9467W        W22881   9.666  18.206  14.158 -0.0530 -0.1119  0.0269
 9468W        W22882   3.204   0.246  13.492 -0.0977 -0.2796 -0.0610
 9469W        W22883   0.465  10.200   0.067  0.0829  0.0212  0.0225
 9470W        W22884  10.050   3.099   1.829  0.0698 -0.0051 -0.0747
 9471W        W22885  17.184  13.982  15.432 -0.4061  0.1377 -0.1461
 9472W        W22886   7.375  10.981  12.321  0.1476 -0.2022 -0.2124
 9473W        W22887  14.554   7.275  12.274  0.0881  0.2582  0.1961
 9474W        W22888   9.910   5.030  14.602  0.3405  0.0254  0.0647
 9475W        W22889   2.457   1.738   5.099  0.4551  0.2621 -0.0826
 9476W        W22890  10.037  10.519   6.053  0.0356  0.0491  0.1449
 9477W        W22891  16.604   8.733  12.529 -0.3420 -0.1781  0.1931
 9478W        W22892  18.324   3.550  15.045 -0.0457 -0.0863  0.1823
 9479W        W22893  15.326  14.317   6.375 -0.0997 -0.0036 -0.0881
 9480W        W22894  14.828   4.903  10.758 -0.2782 -0.0197 -0.1198
 9481W        W22895  10.080  13.441  15.344  0.1592 -0.0419 -0.0270
 9482W        W22896   4.029  15.456   5.195  0.1395 -0.1541 -0.0510
 9483W        W22897  13.790  11.977  13.459  0.0934  0.2693 -0.0510
 9484W        W22898   4.408  12.204  15.772  0.1632  0.1176  0.0702
 9485W        W22899  17.896   4.690   6.610  0.1621 -0.1550  0.0338
 9486W        W22900   4.846   4.688  14.711 -0.1635 -0.0058 -0.2531
 9487W        W22901   7.599   5.856   5.148 -0.0916  0.0996 -0.0532
 9488W        W22902   7.970   1.095   1.591 -0.1994 -0.1279  0.0216
 9489W        W22903   8.100   9.617  12.445  0.1529  0.0007  0.1340
 9490W        W22904   0.569   5.931  14.818  0.2683  0.0340  0.2109
 9491W        W22905   6.870   7.703   2.762 -0.1196  0.1679 -0.3992
 9492W        W22906  12.186   6.881   0.119 -0.1545 -0.1525 -0.0157
 9493W        W22907   6.040  18.259  12.300  0.1576 -0.0249 -0.0235
 9494W        W22908   3.801   8.546  10.991  0.0603 -0.1545 -0.0421
 9495W        W22909   8.039  16.299  10.677  0.0068  0.0702  0.2088
 9496W        W22910   7.057   9.456  12.399 -0.1856 -0.2037 -0.0688
 9497W        W22911  10.085  11.311  12.497 -0.1757 -0.0369  0.2080
 9498W        W22912  16.228  16.815   0.323 -0.0229 -0.1769 -0.1526
 9499W        W22913  10.005   6.678  10.405 -0.3277  0.1204  0.0198
 9500W        W22914  14.592  15.753   2.359 -0.0378  0.3837  0.1233
 9501W        W22915   2.429   4.125  11.469 -0.2095  0.1605 -0.1579
 9502W        W22916   3.447   3.232  11.836 -0.1564 -0.1345 -0.1448
 9503W        W22917   2.227  10.127  13.974 -0.2536  0.0372  0.2875
 9504W        W22918   1.924   6.029   3.706  0.0966  0.1606  0.1000
 9505W        W22919   3.558   6.416   0.302 -0.2602  0.0670 -0.0135
 9506W        W22920  12.778   9.218  15.946 -0.2657  0.0459 -0.1072
 9507W        W22921   6.880   2.253  15.599  0.0763  0.2171 -0.0108
 9508W        W22922  12.208   6.428   5.310 -0.0285 -0.0907 -0.0342
 9509W        W22923  11.467   5.567  15.461 -0.2896 -0.5086  0.0097
 9510W        W22924  17.351   7.665  12.524 -0.0617 -0.1147  0.1170
 9511W        W22925  11.621  12.052   0.842  0.0855  0.4324  0.0496
 9512W        W22926  13.571   0.299  15.580  0.1434  0.2013  0.0062
 9513W        W22927  18.411   1.091   5.199  0.2344 -0.4755  0.2779
 9514W        W22928   0.732  17.436  14.622 -0.1196 -0.0644  0.0586
 9515W        W22929   3.396   6.369  12.705 -0.0366  0.2830 -0.0823
 9516W        W22930  10.974  14.727   2.019 -0.1059 -0.0988  0.0218
 9517W        W22931  10.670   9.219   2.511 -0.3276  0.1754  0.1039
 9518W        W22932  11.202   1.034  13.129 -0.3062  0.2940  0.0185
 9519W        W22933  11.046   2.337  13.229 -0.0611  0.1632  0.0708
 9520W        W22934   3.623   1.550  12.529  0.2631 -0.0277 -0.1970
 9521W        W22935   1.820   8.824  15.640 -0.1355 -0.1723 -0.2610
 9522W        W22936  16.832  10.219  12.583 -0.0329  0.0180 -0.2686
 9523W        W22937  16.418  10.125  16.147  0.2334  0.1230  0.1521
 9524W        W22938  15.609  14.269   5.950  0.0495 -0.3871  0.1548
 9525W        W22939   9.795   5.812   0.361  0.0177 -0.4348 -0.1412
 9526W        W22940   9.506   8.830   2.254 -0.0734 -0.0732 -0.1748
 9527W        W22941  13.830   3.297  13.955  0.0637 -0.1277  0.2052
 9528W        W22942  11.024   6.712   3.125  0.0439 -0.0315  0.0918
 9529W        W22943   9.301   3.778  10.799 -0.0241  0.0719 -0.0358
 9530W        W22944  17.251   6.539  14.337 -0.2275  0.1610  0.1899
 9531W        W22945   3.444   3.593   3.842 -0.3145 -0.2209  0.0845
 9532W        W22946  12.967   7.977  15.702  0.1059  0.0598 -0.1222
 9533W        W22947   5.490  12.803  10.766  0.0589 -0.1618  0.0510
 9534W        W22948   1.424   0.410  16.262  0.1344 -0.3168 -0.2713
 9535W        W22949   5.673   6.610   0.967  0.2368  0.0078 -0.3350
 9536W        W22950  13.177   8.555  12.828  0.3475 -0.1852  0.2027
 9537W        W22951  11.278   8.899   2.980  0.1518 -0.0034 -0.1381
 9538W        W22952  10.548  15.939   2.721  0.1275 -0.0778 -0.2255
 9539W        W22953   8.455  15.205   4.053 -0.4183 -0.1035 -0.0887
 9540W        W22954  13.073  11.495  11.110 -0.1718  0.2716 -0.0924
 9541W        W22955  12.661  11.878  10.913  0.0294  0.0035  0.0560
 9542W        W22956  14.761   9.333  13.426 -0.0630 -0.0080  0.2584
 9543W        W22957   9.762   0.120  14.975  0.3416  0.2498 -0.0101
 9544W        W22958   8.117  15.202   5.774  0.1826  0.1456 -0.1078
 9545W        W22959  10.784   8.138   0.955  0.2284 -0.1155 -0.0658
 9546W        W22960  12.635  17.562   3.924  0.2837 -0.1800 -0.1348
 9547W        W22961   8.331  10.254   0.951 -0.5910 -0.1921 -0.2680
 9548W        W22962  18.455   4.730  15.816  0.0291 -0.1778 -0.4349
 9549W        W22963   5.206  14.538   2.897  0.1014 -0.0781  0.0298
 9550W        W22964   7.807   6.186   2.365  0.2917 -0.2084 -0.3573
 9551W        W22965  10.813  14.720   3.265 -0.0630  0.1487  0.1050
 9552W        W22966   6.194  10.904   1.627  0.1594 -0.2994  0.3227
 9553W        W22967   1.029   8.939  16.162  0.4542  0.2902 -0.0738
 9554W        W22968  18.210   6.157   4.629  0.0065  0.0922 -0.3255
 9555W        W22969   5.384  13.735  15.660  0.3647 -0.0615  0.2096
 9556W        W22970  16.199  17.523  14.393  0.4189  0.1025 -0.0310
 9557W        W22971   3.572  16.642  11.731 -0.0352  0.0812 -0.0804
 9558W        W22972  11.210  15.186   1.196  0.1755  0.2958  0.2606
 9559W        W22973   3.203  10.539   4.154 -0.0098 -0.1892  0.0715
 9560W        W22974  15.460  17.684  16.131 -0.4941 -0.1989 -0.0474
 9561W        W22975   0.501  13.385   1.148 -0.0769  0.1098  0.4044
 9562W        W22976   4.929   5.455  15.878 -0.2549  0.0483 -0.2178
 9563W        W22977   8.181  14.503  14.206  0.1940  0.3646  0.0535
 9564W        W22978   9.812   5.860  15.599 -0.1625 -0.1382  0.1395
 9565W        W22979  13.266  16.243  11.171  0.2044  0.1717  0.0427
 9566W        W22980  17.264   6.372  13.428 -0.0437 -0.1153  0.1030
 9567W        W22981  16.981   6.156  13.088 -0.0193  0.0964  0.1808
 9568W        W22982   6.788  13.064   4.958 -0.2263 -0.1094  0.1247
 9569W        W22983  12.405   8.887   3.646 -0.1019 -0.2605 -0.0778
 9570W        W22984  10.417   2.499  15.689  0.0421  0.0280 -0.0725
 9571W        W22985   8.315  13.082  11.552 -0.1315 -0.0392  0.1235
 9572W        W22986   4.380   1.361   4.569 -0.0715 -0.2028  0.0900
 9573W        W22987   4.544   2.312   5.292  0.3596 -0.1555 -0.2240
 9574W        W22988  12.270   0.617   1.457 -0.1141  0.1645  0.0514
 9575W        W22989  17.428   9.096  13.930 -0.1927 -0.0566  0.1181
 9576W        W22990   7.488   5.460   5.513  0.3731 -0.2035  0.2072
 9577W        W22991  11.428   8.980  14.923 -0.2154 -0.3219  0.0285
 9578W        W22992   1.007  16.999  12.902 -0.0434  0.0999 -0.2097
 9579W        W22993   2.934   4.158  12.585  0.2417  0.0171 -0.2672
 9580W        W22994   4.176   0.930   1.847 -0.1692  0.2499  0.2454
 9581W        W22995  11.832  11.579  13.888  0.0037  0.0046  0.1820
 9582W        W22996  18.448  15.967   2.576  0.1149 -0.1444 -0.1356
 9583W        W22997   0.508  15.377   2.923  0.0136 -0.1669 -0.4267
 9584W        W22998   3.653  11.647   3.634  0.1576 -0.0652  0.0301
 9585W        W22999   7.868   8.765  10.573  0.0007  0.0195  0.1626
 9586W        W23000   5.818  13.118   1.351  0.3783 -0.0255  0.0854
 9587W        W23001  12.834   7.426  12.274  0.1866 -0.3253 -0.0016
 9588W        W23002  15.393   5.491  13.566 -0.0746  0.1124 -0.0884
 9589W        W23003  13.516   2.180   1.304  0.1904  0.0705  0.0287
 9590W        W23004  12.769   7.293   5.746 -0.2423  0.2305  0.1011
 9591W        W23005  10.652   6.939  15.535 -0.0231  0.1991 -0.2217
 9592W        W23006  15.134   0.487  10.664  0.4941  0.0070  0.2199
 9593W        W23007  15.800  13.901   3.717  0.0779  0.1962 -0.1602
 9594W        W23008  13.434   5.798  14.688 -0.1304 -0.0127  0.2674
 9595W        W23009  14.710   0.969   3.883 -0.2863  0.0825  0.1687
 9596W        W23010   3.493   3.402   0.638 -0.0998 -0.2953 -0.2146
 9597W        W23011   8.788   5.891  12.860  0.0598 -0.0737 -0.1442
 9598W        W23012  10.671   9.695  13.914 -0.3100  0.3226  0.1934
 9599W        W23013  14.910  10.392   5.171 -0.0830  0.0210  0.0167
 9600W        W23014  12.803  12.580   4.804 -0.2993 -0.2388  0.3147
 9601W        W23015   7.104   6.767  11.499  0.0754  0.0050  0.0605
 9602W        W23016   3.966  16.753  14.444 -0.2260  0.0642  0.0669
 9603W        W23017   0.890  16.691  15.887  0.2652 -0.1033  0.1788
 9604W        W23018  14.324   7.652  12.060  0.0901 -0.1046  0.2881
 9605W        W23019  16.879   4.475  16.180  0.2738 -0.1288  0.0154
 9606W        W23020  16.173   7.191  11.580 -0.2272 -0.1137 -0.0641
 9607W        W23021   6.229   6.780   9.802  0.1089 -0.1391  0.0895
 9608W        W23022   8.687  13.480   1.060  0.3166 -0.1419  0.1874
 9609W        W23023  11.271  10.699  14.143  0.1579  0.3027 -0.0469
 9610W        W23024  11.344  10.105  13.489  0.2784  0.3338 -0.1875
 9611W        W23025   7.583   3.009  13.926  0.0298  0.1234  0.2407
 9612W        W23026  11.574  15.012  14.070 -0.0489  0.1813  0.1443
 9613W        W23027  12.042   6.417  16.165 -0.2503 -0.0087 -0.0969
 9614W        W23028   1.526   3.205  14.204  0.0239  0.1362 -0.1144
 9615W        W23029  14.926  12.714   9.999  0.1832 -0.1360 -0.3629
 9616W        W23030  14.694   7.866  15.863  0.3036  0.2597  0.0685
 9617W        W23031   2.049   5.372   0.445 -0.1586 -0.0741  0.0887
 9618W        W23032   8.938   6.836   1.577 -0.0289 -0.2002 -0.2744
 9619W        W23033  17.605   3.655   2.990 -0.1913 -0.0972  0.1334
 9620W        W23034  13.810   3.170  15.798  0.4271 -0.1104 -0.3054
 9621W        W23035  14.328   1.513  10.700 -0.1050 -0.0553  0.2117
 9622W        W23036   0.485  16.009   5.419 -0.1703 -0.0115 -0.0354
 9623W        W23037  11.563   0.342  14.281 -0.0208 -0.1635  0.2449
 9624W        W23038  16.161   5.811  15.831 -0.1282  0.1120 -0.2599
 9625W        W23039   2.751   3.232   4.097  0.1545  0.1928  0.2151
 9626W        W23040   3.414   4.691   3.594 -0.1354 -0.0340 -0.3268
 9627W        W23041  16.232  11.346  14.078  0.0902  0.2314  0.0504
 9628W        W23042   6.108  10.520   1.155 -0.3043 -0.1561  0.0613
 9629W        W23043   7.651   4.337  13.132 -0.0141  0.1169  0.0194
 9630W        W23044  14.020   2.239  16.227  0.3196  0.0703 -0.1562
 9631W        W23045   1.667   8.809   5.548  0.1582  0.1189  0.2596
 9632W        W23046  12.061  12.429  11.443 -0.0251  0.1373  0.1515
 9633W        W23047  18.269  15.263  15.278  0.0170  0.2444 -0.1083
 9634W        W23048   9.471   5.521   2.061 -0.1113 -0.1429 -0.0756
 9635W        W23049   8.942   4.035   3.881  0.0587 -0.1194 -0.1859
 9636W        W23050   0.111   7.881   4.786  0.1265  0.1977  0.2866
 9637W        W23051   1.742  13.088   1.601 -0.0138 -0.2549 -0.0113
 9638W        W23052   5.092  15.442  12.480  0.2274  0.1197 -0.0613
 9639W        W23053  17.838  14.104   2.505 -0.1088 -0.1780 -0.1672
 9640W        W23054   3.329  14.510   5.220 -0.0538 -0.2830 -0.0582
 9641W        W23055   1.248  14.444  13.216 -0.0922 -0.0581  0.3618
 9642W        W23056   7.204  11.886  12.697  0.1366  0.1671 -0.1239
 9643W        W23057  10.233  15.348  12.660 -0.0661  0.1894  0.1895
 9644W        W23058   3.137   4.384   3.385 -0.0835  0.0029  0.0187
 9645W        W23059   9.200   6.353   4.959 -0.1570 -0.1714  0.2348
 9646W        W23060   0.487   4.341  12.175  0.0755  0.1100  0.2386
 9647W        W23061   3.643   6.953   9.460  0.1619  0.2623 -0.0295
 9648W        W23062  14.378   8.655  10.776  0.0543  0.1434 -0.0290
 9649W        W23063   2.249   4.188   4.459  0.0631  0.1693  0.4273
 9650W        W23064   7.495   8.179  12.878 -0.0581  0.4947 -0.1804
 9651W        W23065   9.349   4.354   3.879 -0.0288 -0.0573 -0.0540
 9652W        W23066   7.071  15.779  13.485  0.0963 -0.2635 -0.1040
 9653W        W23067   6.320  12.995  10.514  0.3186  0.2145 -0.1937
 9654W        W23068  13.516   9.962  12.328 -0.2686  0.1301 -0.1355
 9655W        W23069   2.035   7.523  15.921  0.1188  0.3981  0.1692
 9656W        W23070   0.996   9.981  16.016 -0.1069 -0.2921 -0.0521
 9657W        W23071  17.423   8.910   5.322 -0.0461  0.4056 -0.0834
 9658W        W23072  12.780   7.155  10.531 -0.1604 -0.0999 -0.2599
 9659W        W23073   0.621   4.247   4.463  0.1407  0.1180  0.1063
 9660W        W23074  18.248  13.293   5.758  0.2530 -0.1110  0.1253
 9661W        W23075  11.470   8.189   2.337 -0.0208 -0.1903  0.1650
 9662W        W23076  16.783  16.032   2.672 -0.1904 -0.2272 -0.1103
 9663W        W23077   7.435  11.596   0.080 -0.2970  0.0581  0.2809
 9664W        W23078   4.200   6.205  14.905  0.0258  0.4807 -0.0820
 9665W        W23079  18.442  17.032  15.933 -0.0186 -0.0743 -0.0306
 9666W        W23080  14.131   3.309   0.550 -0.0155 -0.1532  0.0509
 9667W        W23081  17.669  12.415  14.560  0.4063 -0.0656  0.0409
 9668W        W23082  12.881   5.195  12.775 -0.0566 -0.1680 -0.2693
 9669W        W23083   1.132   4.355   3.901  0.1328  0.1328  0.2825
 9670W        W23084  14.083  14.063  11.984  0.3171  0.0352 -0.3084
 9671W        W23085  12.015  15.060  10.713  0.0510 -0.2394 -0.0120
 9672W        W23086   4.860  15.375   5.307 -0.3896  0.0188 -0.0207
 9673W        W23087  18.287  10.243   4.277  0.1865 -0.2227 -0.1214
 9674W        W23088  13.121  11.838  12.049  0.0682 -0.4043 -0.2450
 9675W        W23089  17.050   1.739  15.791  0.4548  0.1656 -0.2228
 9676W        W23090   6.394   9.870   2.433  0.0909  0.1947  0.1900
 9677W        W23091   6.690  16.461  13.173  0.0468  0.0052 -0.0030
 9678W        W23092   9.558  11.345  11.123  0.0805  0.0672  0.0854
 9679W        W23093  13.909  14.988   0.441  0.0000  0.0437 -0.0243
 9680W        W23094   1.539  17.885   0.839  0.1489 -0.1805 -0.0069
 9681W        W23095  10.198  13.756  12.576  0.2748 -0.0619  0.2594
 9682W        W23096  14.170  17.743  11.528  0.2154 -0.2112 -0.2160
 9683W        W23097  17.411   5.741   4.979 -0.1363  0.2635  0.0143
 9684W        W23098   5.771  13.814  12.642  0.0307 -0.0906 -0.0556
 9685W        W23099  15.107  11.323   5.837 -0.0049 -0.0765 -0.1481
 9686W        W23100  13.678  14.329  16.016  0.1751  0.1286  0.1167
 9687W        W23101   2.355  13.923  10.355  0.2004 -0.0712 -0.1635
 9688W        W23102  18.249  18.465   4.744 -0.1294 -0.1634  0.0766
 9689W        W23103  11.862   5.887  12.310 -0.2275  0.3883 -0.0487
 9690W        W23104  12.526  11.026  11.669  0.1624  0.2873 -0.1209
 9691W        W23105  12.638  15.188   5.652  0.0025 -0.0005 -0.3331
 9692W        W23106   5.677   3.880  11.271  0.0925  0.0078 -0.2502
 9693W        W23107   0.618  14.331  11.913 -0.0197 -0.0598  0.2831
 9694W        W23108  12.542   8.240  14.193  0.1199  0.0195  0.2697
 9695W        W23109   0.924   0.057   1.806  0.0590  0.1713  0.1104
 9696W        W23110   9.014   3.963   4.877 -0.1965  0.0818  0.1208
 9697W        W23111  14.860  15.780   4.050  0.0613  0.2026 -0.2706
 9698W        W23112  11.174  12.484   2.473 -0.2308 -0.0860  0.1022
 9699W        W23113   8.355  12.837   1.104 -0.1788 -0.1463 -0.1806
 9700W        W23114   0.830   2.265   4.671  0.1504  0.1979  0.2500
 9701W        W23115   7.993  11.097   1.989 -0.1119  0.1325  0.1839
 9702W        W23116   5.122  16.184   3.706 -0.0230 -0.1779 -0.1695
 9703W        W23117   2.695  12.868  15.969 -0.2025 -0.2571  0.2484
 9704W        W23118   3.055   1.750  14.535  0.2315  0.1271  0.1882
 9705W        W23119  14.560  15.843   6.228 -0.2478  0.2615 -0.0547
 9706W        W23120   7.894   6.555   0.814  0.1269  0.1781 -0.0778
 9707W        W23121   5.807   7.478   3.738 -0.1292  0.0195  0.6122
 9708W        W23122  10.012  12.848  11.722 -0.0492  0.0333 -0.2481
 9709W        W23123  16.554  16.115  14.153 -0.0607 -0.1207 -0.4744
 9710W        W23124  16.085   8.256   5.711 -0.0219 -0.3250  0.1580
 9711W        W23125  18.122  10.015   2.191  0.1550 -0.1733 -0.0446
 9712W        W23126   1.193  17.294   1.027 -0.0608  0.0000 -0.0973
 9713W        W23127  14.445   9.958   0.999 -0.0479 -0.0619  0.1699
 9714W        W23128  10.920   7.458   3.735 -0.1718 -0.1054  0.1083
 9715W        W23129  16.751   6.918  11.622  0.0309 -0.0255 -0.4208
 9716W        W23130  10.393  10.681  10.648  0.1815 -0.1355  0.1312
 9717W        W23131  11.654   5.913  12.988  0.1973 -0.1544  0.0529
 9718W        W23132   2.516  13.813  15.819 -0.1123 -0.0772 -0.0294
 9719W        W23133   6.969   9.145  14.616 -0.1732  0.2382  0.1038
 9720W        W23134   3.248  16.421  15.843  0.0179 -0.0756  0.1753
 9721W        W23135   8.959   0.165  13.886 -0.1603  0.2458 -0.0480
 9722W        W23136   6.585   7.250  14.332  0.2284  0.0937 -0.0425
 9723W        W23137  14.450  11.371  13.632 -0.0661 -0.1133  0.2360
 9724W        W23138   7.468   4.749  12.682 -0.1132 -0.1778 -0.1143
 9725W        W23139   9.488   5.791  14.367 -0.1183  0.0673 -0.2951
 9726W        W23140  14.078  11.276   4.291  0.1335  0.0930 -0.1516
 9727W        W23141  12.037   2.742   4.940 -0.0007 -0.0413  0.0209
 9728W        W23142  10.652   2.933   1.305 -0.4316  0.3377 -0.0577
 9729W        W23143   9.385   2.485  14.231  0.3738 -0.0933  0.0210
 9730W        W23144   6.344  16.525  15.250  0.1831  0.0229  0.0353
 9731W        W23145  14.747   2.845   6.349  0.1949 -0.0231 -0.1434
 9732W        W23146   4.656   0.890   4.411  0.2997  0.1047  0.1850
 9733W        W23147   5.749   5.594   4.324  0.0331  0.0435  0.2118
 9734W        W23148  13.485   4.464  14.883  0.1021 -0.3915 -0.4056
 9735W        W23149  16.763  10.938   3.537  0.2402 -0.1264  0.4249
 9736W        W23150  13.672  16.200  14.327  0.1180 -0.2331 -0.0872
 9737W        W23151   8.165  18.463  15.692 -0.0820  0.2241 -0.4928
 9738W        W23152  11.932  12.983   4.579 -0.5528 -0.0219 -0.1216
 9739W        W23153   8.950  13.446   4.056 -0.1971  0.1397  0.0751
 9740W        W23154  13.040   0.256   1.890 -0.1666  0.2105  0.2045
 9741W        W23155   6.530  15.286  13.824 -0.1376 -0.1299 -0.4146
 9742W        W23156   7.092  12.135  15.188  0.0969  0.1559 -0.1233
 9743W        W23157  10.432   1.785   3.374 -0.4002  0.0673 -0.0111
 9744W        W23158  13.726  17.165   4.567 -0.0659  0.0351  0.4004
 9745W        W23159   0.318   6.689  14.247 -0.0240  0.3423  0.0645
 9746W        W23160  13.925   7.040   6.515  0.0636 -0.0775 -0.2649
 9747W        W23161   3.501   9.800  10.997 -0.0723 -0.0166  0.1500
 9748W        W23162  13.897   2.174   4.465 -0.2245 -0.2021 -0.3283
 9749W        W23163  12.074   2.871  11.426 -0.0240 -0.1224 -0.0771
 9750W        W23164   9.345   2.839  15.504 -0.1753 -0.0781 -0.2195
 9751W        W23165  12.243   2.840  15.382  0.0293  0.0698  0.1061
 9752W        W23166  15.854   5.664   4.222 -0.0686  0.2201 -0.2585
 9753W        W23167  16.914   8.690   1.569 -0.4148 -0.1848  0.0575
 9754W        W23168   1.504  13.548   0.399 -0.5289  0.0293 -0.1199
 9755W        W23169  11.621  10.946   0.790  0.0772  0.3193 -0.0375
 9756W        W23170  11.226   4.624  15.268  0.2113  0.1638 -0.2890
 9757W        W23171  13.406   3.510  10.254 -0.3909 -0.0185  0.0162
 9758W        W23172  17.497   3.230   5.677 -0.0341  0.0839  0.2256
 9759W        W23173  15.940  16.548  16.218 -0.1568  0.1697  0.0571
 9760W        W23174   3.361   3.201  12.465  0.0989 -0.0924  0.0988
 9761W        W23175  17.032  13.176   2.710 -0.2608  0.1332 -0.2437
 9762W        W23176   6.680   3.840  15.664  0.2877 -0.2648 -0.1697
 9763W        W23177  13.519  13.974  15.126 -0.1681  0.2955 -0.2042
 9764W        W23178   3.724   6.770  15.389 -0.0878 -0.0434  0.0272
 9765W        W23179  11.191  17.799   1.742 -0.1014 -0.1116  0.3642
 9766W        W23180   6.990  10.093  11.646  0.4060  0.0103 -0.0815
 9767W        W23181  14.972   1.663  11.309  0.1000 -0.0775  0.0126
 9768W        W23182   9.501   2.200  12.643  0.2933  0.0803 -0.0626
 9769W        W23183   4.646   3.704   0.423 -0.1852 -0.1977 -0.1559
 9770W        W23184   6.436   1.107  14.504 -0.0206  0.1107  0.1153
 9771W        W23185  18.099  13.372  12.190  0.3010 -0.0963  0.0533
 9772W        W23186  11.168  11.994   0.285  0.2142 -0.1946 -0.2603
 9773W        W23187  15.980   2.499  10.401 -0.1797 -0.2824  0.0855
 9774W        W23188   2.891   4.458  13.484  0.0023 -0.0570 -0.3272
 9775W        W23189   0.384   2.821  13.204  0.3210 -0.0567  0.0760
 9776W        W23190  17.634  10.086  10.097 -0.2425  0.0754  0.0123
 9777W        W23191   5.338   5.624   2.958 -0.1132  0.0712  0.1818
 9778W        W23192   9.487   0.619   2.650  0.3981 -0.1247 -0.1112
 9779W        W23193  16.536   9.114  16.106  0.1310  0.0825  0.0793
 9780W        W23194   0.685  15.284  15.150 -0.0116  0.3907  0.1934
 9781W        W23195   1.053   1.003   4.026 -0.1352  0.1737 -0.1970
 9782W        W23196  10.593   8.343   1.557 -0.2539 -0.0276  0.1064
 9783W        W23197   8.389  15.590  10.288 -0.0845 -0.2533 -0.0038
 9784W        W23198   9.514  17.825   4.946 -0.3532  0.0336 -0.1873
 9785W        W23199  17.525   8.242   3.087  0.1454  0.0115  0.3084
 9786W        W23200   8.948  13.557  12.109 -0.0131 -0.1162  0.2048
 9787W        W23201  17.129   8.038  14.704 -0.0963 -0.0643  0.2341
 9788W        W23202   0.625  10.440   4.247 -0.2040  0.0729 -0.3271
 9789W        W23203  18.207   7.805   5.341  0.0560  0.1377  0.3415
 9790W        W23204  15.471   0.162  11.630 -0.3250  0.1526 -0.0218
 9791W        W23205  17.855  17.389  14.822 -0.3131  0.1680 -0.3148
 9792W        W23206   1.682   3.503  13.791  0.1412 -0.0460  0.0036
 9793W        W23207  17.574   5.264   2.330 -0.0525  0.0756  0.0039
 9794W        W23208   1.086   3.290   2.073 -0.2645 -0.2514 -0.3117
 9795W        W23209  17.131   6.234   5.783  0.0669 -0.1442 -0.1589
 9796W        W23210   3.506  11.052  13.623 -0.1168  0.0703 -0.0128
 9797W        W23211  15.819   5.524  14.980  0.0457 -0.0519  0.1612
 9798W        W23212   4.974   7.292   5.838  0.0891  0.0895  0.4953
 9799W        W23213  14.160  17.997   2.918 -0.3719  0.1270 -0.2283
 9800W        W23214   9.024   5.408   6.543  0.1837  0.1588  0.1675
 9801W        W23215  11.103  10.157  14.050 -0.4677  0.0221 -0.0278
 9802W        W23216   2.628  11.489  11.263  0.0585  0.0879  0.0027
 9803W        W23217   2.552  14.949   1.514  0.2156  0.1188  0.0761
 9804W        W23218  10.191   9.270   4.592  0.1421 -0.0440  0.0329
 9805W        W23219   4.902  14.534   1.451 -0.2820  0.1069 -0.1201
 9806W        W23220   0.260   5.955  10.764  0.0428 -0.2120 -0.2771
 9807W        W23221  10.194   6.198   4.753  0.5746 -0.0526  0.2758
 9808W        W23222  18.409  16.246   3.193  0.0110 -0.0903 -0.0341
 9809W        W23223   0.532   5.233  11.418  0.0348  0.0973 -0.2100
 9810W        W23224  10.117  17.991   3.229  0.5621  0.2019  0.2463
 9811W        W23225  10.995   3.442   6.495 -0.1888 -0.1786  0.0368
 9812W        W23226   4.730   3.371   2.779  0.1133 -0.2292 -0.0672
 9813W        W23227   9.280   5.605  14.789 -0.0668  0.0588  0.3394
 9814W        W23228  16.187  12.308  14.298  0.0639  0.1601 -0.0935
 9815W        W23229   5.560  10.358   3.794 -0.0119  0.2773  0.3183
 9816W        W23230   4.134  12.529  10.744  0.2586 -0.0356  0.0281
 9817W        W23231  17.417   9.519  14.229  0.0064  0.0014  0.2620
 9818W        W23232   5.889   9.498   3.724  0.2225 -0.0037 -0.2873
 9819W        W23233  12.807  14.771   4.155  0.0416  0.2190 -0.3322
 9820W        W23234  14.495   9.118   2.552 -0.1659  0.1180 -0.0556
 9821W        W23235  18.266   3.319   5.204 -0.0480  0.1482 -0.2414
 9822W        W23236   3.175   2.979   2.497  0.0689  0.1638  0.1693
 9823W        W23237  13.123   1.188  12.513 -0.3963 -0.2617 -0.1978
 9824W        W23238  17.754  13.472   5.884  0.2982 -0.1546 -0.0106
 9825W        W23239   7.411  12.668  15.050  0.1574 -0.1083  0.2890
 9826W        W23240   6.028   8.931   6.057 -0.1434  0.3742  0.0125
 9827W        W23241  11.352  11.178   2.176  0.0517  0.0999 -0.0390
 9828W        W23242   0.440  17.640   0.687 -0.1667  0.2839 -0.2416
 9829W        W23243  16.007   5.502   1.097 -0.0266  0.2664  0.3215
 9830W        W23244   1.717  17.177   2.962  0.2480 -0.0155 -0.1860
 9831W        W23245  12.051  13.490   1.111 -0.2496  0.0564 -0.1117
 9832W        W23246  10.024   6.102   1.154 -0.0469  0.2326 -0.2258
 9833W        W23247   2.464  16.893   1.528  0.2391 -0.1817  0.1717
 9834W        W23248   7.443  10.364   4.073  0.1608 -0.0966 -0.0471
 9835W        W23249  13.986   5.914   2.060 -0.0108  0.1151  0.0305
 9836W        W23250   3.843   3.741   5.637 -0.0639  0.2582  0.2146
 9837W        W23251  10.054  13.157  13.299 -0.1440  0.0965  0.2398
 9838W        W23252  15.237  18.013   4.234  0.3057  0.0338 -0.0868
 9839W        W23253  16.116   7.756   1.578 -0.0282  0.1200  0.0671
 9840W        W23254   1.131  15.408  15.885 -0.2229  0.7948  0.1928
 9841W        W23255   8.329   7.752  14.520 -0.0068 -0.1400  0.2103
 9842W        W23256   6.610   8.503  11.668  0.1461 -0.3165 -0.1814
 9843W        W23257  11.859  15.827   0.864  0.0497  0.1621 -0.0098
 9844W        W23258   9.946   0.460   3.024  0.1118  0.1404  0.3335
 9845W        W23259  12.671  12.907  15.650 -0.0809 -0.0229 -0.2220
 9846W        W23260   2.791  15.626   0.492 -0.0711 -0.2580 -0.0543
 9847W        W23261   2.875   3.453  14.511  0.0779  0.2799 -0.1233
 9848W        W23262   3.350   5.801  15.778 -0.1530  0.0194 -0.0208
 9849W        W23263  11.192  15.028   5.034  0.1338  0.1694  0.6280
 9850W        W23264  13.129   3.223  15.072  0.1967  0.0475 -0.1098
 9851W        W23265  11.630   3.744   3.998  0.2204  0.2482 -0.0098
 9852W        W23266   5.481  12.307   3.156  0.0351  0.1051 -0.1159
 9853W        W23267   4.922  13.518  14.485  0.2411  0.2276 -0.0141
 9854W        W23268  17.350   3.814  11.364  0.1208 -0.2583  0.4275
 9855W        W23269  16.008   2.541   4.136  0.0735 -0.3546  0.0597
 9856W        W23270  10.208  14.121  15.261  0.0834 -0.1107 -0.1617
 9857W        W23271   9.895   6.283  10.109  0.4153 -0.0431 -0.0825
 9858W        W23272  10.688  10.500   5.007  0.2651  0.1755 -0.2044
 9859W        W23273   0.556   0.179  14.105 -0.2244 -0.0894 -0.3547
 9860W        W23274  16.084   5.620   5.023 -0.1284  0.2603  0.3002
 9861W        W23275  16.111  14.725   1.897  0.1081 -0.3240 -0.2436
 9862W        W23276   6.801  14.398  11.096 -0.0195  0.0927 -0.2485
 9863W        W23277  15.898   0.124  11.291  0.0050 -0.1248 -0.3517
 9864W        W23278   2.392  14.080   1.516  0.2258  0.1105  0.0706
 9865W        W23279   5.036   3.508  11.277 -0.0315  0.0656 -0.1765
 9866W        W23280   4.699  16.439   2.000  0.1567  0.0989 -0.2334
 9867W        W23281   1.736   6.873   1.399  0.2720 -0.2289 -0.1571
 9868W        W23282  18.489  14.977   2.163  0.0054 -0.0590 -0.1540
 9869W        W23283   0.824   2.375   5.507  0.0761  0.3177 -0.0169
 9870W        W23284   4.657   8.268   1.923  0.0695 -0.3350 -0.2097
 9871W        W23285  16.456   7.031  11.141 -0.1922  0.0393 -0.3055
 9872W        W23286   6.689   6.438   0.967  0.4312 -0.0154 -0.2642
 9873W        W23287  10.451  11.343   0.348 -0.1913 -0.0044 -0.0273
 9874W        W23288   6.032   2.602  10.914  0.0063  0.0549  0.2563
 9875W        W23289  16.446  17.349   1.632 -0.0503  0.0832 -0.1944
 9876W        W23290  15.568   3.740   1.445  0.1556  0.2916  0.0533
 9877W        W23291   2.433  13.539   2.570  0.0136 -0.1206  0.0476
 9878W        W23292  13.935   6.831  12.817  0.0757  0.1203  0.3434
 9879W        W23293   1.110  12.545   4.928 -0.0339  0.1600 -0.0565
 9880W        W23294  14.493  17.603  13.105  0.2134 -0.1974 -0.2039
 9881W        W23295   4.985   1.919  14.935  0.0826 -0.1035 -0.1076
 9882W        W23296   3.601   9.909  14.760  0.4269 -0.0979 -0.3372
 9883W        W23297   5.546   7.595  11.246 -0.1400  0.3006  0.1391
 9884W        W23298  13.759  15.280  15.966 -0.0546  0.0935 -0.0551
 9885W        W23299   3.180  16.020   4.892  0.2725  0.1798  0.0360
 9886W        W23300   6.897   8.573  11.161  0.1399  0.3235 -0.2216
 9887W        W23301   0.229  11.185   1.907  0.0319 -0.0216 -0.0199
 9888W        W23302   3.012   2.734   6.084  0.3650 -0.5444 -0.2933
 9889W        W23303   6.397  13.231  14.849 -0.3386 -0.0467 -0.0732
 9890W        W23304   7.482  16.001  13.680  0.3127 -0.0763  0.0528
 9891W        W23305   2.331  18.165   5.457 -0.1938  0.1824  0.1105
 9892W        W23306   6.884   3.849   3.756  0.0092 -0.1971  0.2492
 9893W        W23307  15.529   4.803   4.042 -0.1418  0.0260  0.4240
 9894W        W23308  18.480  10.143  15.437 -0.2913 -0.2625  0.0932
 9895W        W23309   9.138   1.465  11.106 -0.0028 -0.3261 -0.1560
 9896W        W23310  13.846  11.817   5.658 -0.0122  0.3394 -0.0336
 9897W        W23311  15.715   4.815   1.740 -0.1407 -0.0031  0.0009
 9898W        W23312   9.842   4.106  10.925  0.0688  0.2986 -0.1545
 9899W        W23313   7.747   2.656  14.748 -0.3858 -0.0787 -0.0151
 9900W        W23314   6.465  18.212   1.518  0.1833 -0.0346 -0.0182
 9901W        W23315   7.579  10.366  13.462 -0.0810 -0.0157  0.3441
 9902W        W23316  15.067   2.090  12.726 -0.1387  0.3285  0.0917
 9903W        W23317   9.237  10.975  15.033 -0.0543 -0.2313  0.3613
 9904W        W23318  10.482   9.167   4.233  0.0369  0.0175 -0.2960
 9905W        W23319   3.133  17.508  14.728 -0.0693 -0.2521  0.0929
 9906W        W23320   6.052  13.164   3.262 -0.0842 -0.1115 -0.2536
 9907W        W23321  13.870  17.391  15.001 -0.0486 -0.0906  0.4434
 9908W        W23322   3.985   1.859  13.616 -0.0570  0.1190  0.1111
 9909W        W23323  11.001   8.596  11.265  0.1416 -0.1519 -0.2642
 9910W        W23324   9.042   2.530   6.022  0.5019  0.0634 -0.0314
 9911W        W23325   5.353  11.990   0.578 -0.1427 -0.1871 -0.1891
 9912W        W23326  16.118   1.644   2.231  0.1833  0.0852 -0.1142
 9913W        W23327   7.589   8.532   4.704  0.1359 -0.1628  0.2922
 9914W        W23328  17.205   7.433  13.086  0.2170 -0.0173 -0.2269
 9915W        W23329  16.248  12.508   0.872 -0.1264  0.0650  0.0189
 9916W        W23330  12.782   5.190  14.929  0.2543 -0.0641  0.0419
 9917W        W23331  15.540   3.969   4.348  0.1693 -0.1846  0.3494
 9918W        W23332   6.338   2.627   5.373 -0.3308  0.2098  0.1681
 9919W        W23333  17.897  15.687   1.861  0.3136  0.0070 -0.0839
 9920W        W23334   6.609  12.434  15.442 -0.0124  0.1262 -0.3300
 9921W        W23335   0.365  16.619  12.916  0.2103  0.1799  0.1394
 9922W        W23336  11.418   4.109  12.625  0.0539  0.3020  0.3610
 9923W        W23337   8.492   3.737   0.358 -0.0752  0.0903 -0.0721
 9924W        W23338   5.961  14.773  13.472  0.0097  0.0844  0.1883
 9925W        W23339   1.136   0.185  14.329  0.0778  0.1542 -0.1872
 9926W        W23340  11.874  12.205  10.793  0.1011  0.1032 -0.2861
 9927W        W23341  10.269   7.832   2.741 -0.1140 -0.0564 -0.1399
 9928W        W23342   4.282  11.459  11.087 -0.1070  0.3446 -0.0201
 9929W        W23343   8.372  12.051  14.307 -0.0050 -0.0050  0.1309
 9930W        W23344   3.570  13.029   5.545 -0.5314 -0.0734  0.3279
 9931W        W23345  14.003  15.410  10.396  0.0817 -0.0578  0.1838
 9932W        W23346   1.504  17.710  14.350 -0.1696  0.0632  0.0284
 9933W        W23347  10.286   0.468  14.328  0.2299 -0.1402 -0.1356
 9934W        W23348   9.221   8.905  12.556 -0.2003 -0.2726  0.1619
 9935W        W23349  14.127  13.688   2.814 -0.0063 -0.3605 -0.2027
 9936W        W23350  16.781   1.825  11.697 -0.0352 -0.1448 -0.1822
 9937W        W23351  15.124  15.446  14.195 -0.0169 -0.1370  0.1331
 9938W        W23352  10.034   5.714   4.664  0.0252  0.2611  0.1754
 9939W        W23353  16.608  13.044   2.972 -0.0008 -0.0058  0.3154
 9940W        W23354   0.554  13.817  16.122 -0.2747 -0.3859 -0.1548
 9941W        W23355  14.634  17.715   4.794  0.1762  0.3373  0.1389
 9942W        W23356  14.152  12.170   5.306  0.1586  0.2875  0.0148
 9943W        W23357  16.090   7.196   2.904 -0.1919  0.0927 -0.1200
 9944W        W23358   6.465   3.880   3.303 -0.3356  0.1164 -0.1674
 9945W        W23359   5.157   6.414   1.918 -0.0779  0.2115  0.0559
 9946W        W23360  17.740  12.948   5.022  0.0600  0.0733 -0.0162
 9947W        W23361  15.301   5.464   5.479  0.0152 -0.0664 -0.2659
 9948W        W23362  10.753   4.163  14.307  0.0111 -0.0951 -0.0582
 9949W        W23363  11.835   5.668  10.898 -0.2656 -0.3823 -0.0381
 9950W        W23364   3.145   0.819  12.172 -0.0140 -0.2155 -0.0311
 9951W        W23365   5.068  11.466   9.651 -0.1162 -0.3097 -0.0554
 9952W        W23366  12.662   6.465   3.220 -0.1051 -0.0576 -0.2301
 9953W        W23367   1.103  11.981   5.112 -0.1377  0.0801  0.1235
 9954W        W23368  13.433  13.234   3.653  0.2388  0.0273 -0.2637
 9955W        W23369   8.656  11.318   1.743 -0.1040 -0.2333  0.1003
 9956W        W23370   3.995  13.191  12.174 -0.3582  0.0125  0.3169
 9957W        W23371  15.406  16.214   4.610 -0.2757  0.0942  0.2438
 9958W        W23372   2.748   7.376   5.099  0.0642 -0.0624  0.0198
 9959W        W23373   4.720  10.750  14.138 -0.0710 -0.2831 -0.0161
 9960W        W23374  14.345   4.001   1.275 -0.1422 -0.2062  0.2124
 9961W        W23375   7.650  16.566   2.066 -0.1262 -0.3229  0.1706
 9962W        W23376   9.829  11.811   6.195  0.0787  0.0568  0.1122
 9963W        W23377   2.775   5.165   3.028  0.0114  0.0419  0.1079
 9964W        W23378   2.054   4.320   1.652 -0.1325 -0.2537  0.1272
 9965W        W23379   5.881   5.510  15.848  0.4150  0.0495 -0.1796
 9966W        W23380  10.636   6.771  15.064  0.1326  0.1474 -0.0507
 9967W        W23381   2.190  11.730  10.971 -0.0007 -0.2891 -0.2854
 9968W        W23382  13.858   7.702  14.010 -0.4124 -0.1767 -0.0356
 9969W        W23383  16.859  11.630  15.597 -0.0565  0.0072  0.2344
 9970W        W23384   8.130   5.130   5.610 -0.2032 -0.5668  0.0247
 9971W        W23385   0.253  16.504   3.949  0.1665  0.0706  0.1725
 9972W        W23386   8.847  13.023  15.083  0.1626  0.0049  0.1877
 9973W        W23387   0.973  11.494  12.462  0.3897 -0.0668  0.2377
 9974W        W23388   2.052   8.693  14.276  0.2781  0.0070  0.1351
 9975W        W23389  11.131   3.903  10.853  0.0994 -0.0609 -0.0371
 9976W        W23390  10.229   1.086  13.048  0.2664  0.0676  0.0281
 9977W        W23391   7.950   1.019   3.159  0.1587 -0.1176  0.0509
 9978W        W23392  11.633   7.698  12.652 -0.2850 -0.1781  0.2192
 9979W        W23393   3.284  17.720  13.770 -0.0648 -0.1061 -0.0319
 9980W        W23394   8.017   8.238  13.678  0.2249  0.1094  0.1235
 9981W        W23395   3.533  10.556   0.466  0.1570  0.2651 -0.1985
 9982W        W23396  17.120   9.532  11.508 -0.4129  0.0418  0.0919
 9983W        W23397  18.260   5.783   5.664  0.0630 -0.0040 -0.3130
 9984W        W23398   7.782  14.521  16.141  0.2498  0.0001  0.0641
 9985W        W23399  17.027   7.627   0.171  0.3507  0.1957 -0.0557
 9986W        W23400  10.628   5.385   1.057 -0.1289  0.2514 -0.3797
 9987W        W23401   6.354  14.629  15.143 -0.2411  0.2931 -0.0309
 9988W        W23402   0.595   3.278   2.274 -0.0308  0.0181  0.0340
 9989W        W23403   6.298   5.299   2.973 -0.2411 -0.0848  0.0063
 9990W        W23404  16.759  15.253  12.436 -0.0155  0.0684  0.1764
 9991W        W23405   4.247  10.640   3.644  0.1036  0.1897 -0.1403
 9992W        W23406  14.918   7.858   0.835 -0.0444  0.1034  0.3044
 9993W        W23407   5.052  18.101  12.367  0.4689  0.1881  0.0890
 9994W        W23408   1.877   3.629  16.158  0.2684  0.0835 -0.3950
 9995W        W23409  12.947   7.401   2.082 -0.0433 -0.0435  0.2723
 9996W        W23410   7.622  17.284   5.884 -0.4332 -0.1644 -0.1754
 9997W        W23411   7.396   3.662   2.923 -0.2110  0.1933 -0.0052
 9998W        W23412  17.707  16.480   3.060 -0.2877  0.2943  0.1994
 9999W        W23413   5.587  13.918   2.280  0.1529  0.1050  0.2843
10000W        W23414   3.921   2.169  16.152 -0.1658  0.3443 -0.2119
10001W        W23415   4.339   4.626   1.280 -0.2881 -0.2362 -0.1487
10002W        W23416  15.374   4.614  15.109  0.5345 -0.2718  0.0038
10003W        W23417   2.134   3.700   2.304 -0.1426 -0.0377 -0.1707
10004W        W23418   5.044   9.794  14.006  0.0397 -0.2584  0.0538
10005W        W23419   5.685   6.124   3.674 -0.0266  0.0630 -0.0815
10006W        W23420   3.387  18.083  10.522  0.0469  0.3331  0.1468
10007W        W23421  11.258   4.278   5.379 -0.1708  0.0724  0.0725
10008W        W23422  17.546   6.701   0.572  0.0097  0.0386  0.2553
10009W        W23423  15.422   0.878   0.512  0.0746  0.4421 -0.1710
10010W        W23424   2.049  16.261   5.258  0.0131 -0.0524  0.2778
10011W        W23425   3.830  13.043   0.469  0.0385  0.1150 -0.1275
10012W        W23426   9.129   9.093  10.865  0.1283 -0.0807 -0.1682
10013W        W23427  13.052   5.282   0.814  0.2256  0.2305 -0.0073
10014W        W23428   4.378   2.789  13.689 -0.0248 -0.1922  0.1731
10015W        W23429  17.559   4.233   5.802 -0.2745  0.1218 -0.0126
10016W        W23430  13.585   5.758  15.177  0.2179 -0.1061 -0.1193
10017W        W23431  10.233  13.474   0.652  0.1771  0.0316 -0.0614
10018W        W23432  10.336   3.135   2.983 -0.0991  0.2705 -0.0930
10019W        W23433  13.871   6.303   5.979  0.0558 -0.0355 -0.1993
10020W        W23434  10.178   8.385   3.671  0.1564  0.0197 -0.0369
10021W        W23435  12.250   3.887   1.523 -0.2397 -0.4300  0.0255
10022W        W23436   4.372   9.201  15.641 -0.1390  0.1143  0.0634
10023W        W23437  10.759  17.047  12.430 -0.2077 -0.0793  0.1543
10024W        W23438   6.870  13.767  13.605 -0.1706 -0.0446  0.0363
10025W        W23439   6.174  16.248  14.347  0.3574 -0.0195 -0.0872
10026W        W23440  16.113   1.062  12.770  0.1306 -0.0606 -0.0582
10027W        W23441  12.787  16.192   2.271  0.1830  0.0729 -0.2329
10028W        W23442  18.341  17.378  12.248 -0.1730 -0.0779 -0.1122
10029W        W23443  13.335   7.797   5.359 -0.0959  0.1775  0.2663
10030W        W23444   9.823   1.435   0.927  0.1791 -0.0962  0.2689
10031W        W23445   0.554   8.286  11.060 -0.0989  0.0914 -0.3061
10032W        W23446  17.128   2.939  16.140  0.2348 -0.0553  0.3699
10033W        W23447   5.375  10.847  14.817  0.1093 -0.0949  0.2969
10034W        W23448  14.846  13.750  10.907 -0.2593 -0.1833  0.4636
10035W        W23449  12.944  11.666   2.877  0.2748  0.1377 -0.0781
10036W        W23450   2.934   5.484   2.384 -0.0475 -0.0892  0.0816
10037W        W23451   0.566   9.214   0.991 -0.2378  0.1943 -0.0328
10038W        W23452  17.181  14.087  14.181  0.0581  0.3213  0.4355
10039W        W23453   9.747   1.895  10.315 -0.1492 -0.0266 -0.2039
10040W        W23454  15.720  17.860   2.755 -0.3868 -0.0992 -0.4590
10041W        W23455   5.896  14.341  11.233 -0.0813  0.0984  0.0920
10042W        W23456   3.037   3.295   1.501  0.0677 -0.0280  0.1518
10043W        W23457   6.149   5.526   2.548  0.1695  0.0514 -0.1795
10044W        W23458  14.238  15.340  11.657  0.3759 -0.1834 -0.0047
10045W        W23459  12.964  10.852   2.704  0.3786  0.0041  0.0181
10046W        W23460   3.894   1.852  12.809  0.0939 -0.1651  0.3820
10047W        W23461  16.519   4.300   6.231  0.3427 -0.0970 -0.1189
10048W        W23462  10.622   8.722   4.294 -0.0567 -0.1931 -0.2089
10049W        W23463  18.005   6.328  12.626  0.0614  0.0596  0.0137
10050W        W23464  14.539   5.263   0.606 -0.1862  0.0236 -0.1317
10051W        W23465   9.641  15.270   3.164 -0.2617  0.0569  0.2767
10052W        W23466   5.240   0.255  12.773  0.4234  0.2025  0.2509
10053W        W23467   8.753   9.688  14.622  0.0604 -0.1690  0.2361
10054W        W23468   1.686   7.859  15.582  0.0778  0.0612  0.0812
10055W        W23469  14.481   7.821   0.561  0.2049  0.2643 -0.0798
10056W        W23470   6.031   6.718  11.802  0.2878  0.0094 -0.0191
10057W        W23471   1.269   8.354   6.374  0.1745 -0.2773 -0.1266
10058W        W23472   9.991   0.599  10.956 -0.3443  0.1737  0.3493
10059W        W23473  11.962   7.668  13.414 -0.1913 -0.0165  0.2649
10060W        W23474  12.530   3.607   4.493  0.2624 -0.0376  0.1468
10061W        W23475   9.478  15.808  14.919 -0.3054  0.1424  0.0429
10062W        W23476   3.525   2.712   0.616  0.0159  0.2498 -0.1648
10063W        W23477  11.229   7.919  12.854 -0.3625 -0.1246  0.2609
10064W        W23478   5.630   3.615  14.585  0.2855 -0.0959  0.2317
10065W        W23479  13.228  16.120  15.660  0.1896 -0.3351  0.1120
10066W        W23480  13.212   1.578   3.120  0.1272  0.1749 -0.3199
10067W        W23481   4.737  13.469   2.585  0.2850  0.1087  0.1152
10068W        W23482  14.146   4.600  11.740 -0.0831 -0.1431 -0.2320
10069W        W23483   0.080   2.750  15.888 -0.2671  0.1652 -0.2027
10070W        W23484   1.443  15.736  15.567 -0.0965  0.4084  0.3356
10071W        W23485   2.710   2.932   5.703  0.0553 -0.2791  0.3567
10072W        W23486   1.802  15.415  11.685  0.1666  0.1907  0.0243
10073W        W23487   8.188   3.265   2.142  0.2345  0.0275  0.0788
10074W        W23488   9.737   1.966  15.497 -0.1920 -0.0714  0.1032
10075W        W23489   7.412   2.714  12.442  0.2213 -0.4172 -0.0151
10076W        W23490  10.802  13.679   5.422 -0.4076 -0.0242  0.0396
10077W        W23491  12.874   9.188   0.155 -0.3014 -0.1192 -0.1621
10078W        W23492  16.156  12.012  14.713 -0.0390  0.0235  0.3667
10079W        W23493  15.195   8.791   0.464 -0.1743 -0.0895 -0.1997
10080W        W23494   8.271   4.624   4.767 -0.3424  0.0360  0.0670
10081W        W23495   2.270  13.127   0.617 -0.0050 -0.0160 -0.0381
10082W        W23496  15.955  12.562   3.635 -0.1466 -0.0996 -0.1354
10083W        W23497   6.406   0.041   5.036 -0.0864 -0.1513 -0.2722
10084W        W23498  13.840  14.535   0.226  0.0439  0.4270  0.0861
10085W        W23499   6.431  11.284  13.701 -0.1224  0.3149  0.1632
10086W        W23500   2.023   1.181  14.114 -0.0948  0.1773 -0.1423
10087W        W23501   2.359   1.769  15.725  0.3117  0.1090  0.0384
10088W        W23502   9.334   8.770   4.516 -0.0214  0.1230 -0.2912
10089W        W23503  13.842   1.197  10.365  0.1051  0.2488  0.0604
10090W        W23504   6.749   7.075   3.921 -0.0183  0.2024  0.1517
10091W        W23505  10.494   0.695   5.087  0.1558  0.0399  0.1895
10092W        W23506  11.015   2.104  12.779  0.0349  0.1525  0.3081
10093W        W23507   5.558   0.649   0.978  0.3398  0.0067 -0.0768
10094W        W23508  14.291   9.694   0.587 -0.0408  0.1043 -0.1484
10095W        W23509   7.597  17.298   1.194 -0.1766  0.3484 -0.1186
10096W        W23510  10.543  10.495   1.080 -0.1228  0.0638 -0.0596
10097W        W23511  15.533   3.538  14.362 -0.2558  0.1096  0.3144
10098W        W23512  10.955  11.192   0.364 -0.0624 -0.0334  0.1421
10099W        W23513  14.244   9.397   4.450 -0.0877  0.1744 -0.2841
10100W        W23514  16.267   9.718  14.564 -0.1301  0.1283 -0.2496
10101W        W23515   0.264  14.495  15.089 -0.2110 -0.2885 -0.1011
10102W        W23516   7.037   7.321   2.331  0.4067 -0.0323  0.0372
10103W        W23517   6.677   5.813  11.134 -0.2326 -0.0864 -0.1526
10104W        W23518   4.272  16.963  15.339 -0.0888  0.1028  0.1117
10105W        W23519  11.142   6.943  12.350  0.2070 -0.1198 -0.0750
10106W        W23520  18.396  16.670  10.235  0.0125  0.0822  0.1990
10107W        W23521  14.349   3.368  15.660  0.0034  0.0517 -0.3442
10108W        W23522  12.749   4.520  15.928  0.0158 -0.4351 -0.0560
10109W        W23523   6.372   7.513   0.076 -0.0567 -0.0757 -0.3945
10110W        W23524  15.024   0.979  10.755  0.0393  0.0039  0.0954
10111W        W23525  18.082  11.872  11.562  0.0939 -0.1172  0.0151
10112W        W23526  16.083   8.124  16.121 -0.0232 -0.0501 -0.2842
10113W        W23527  15.366  11.738   3.364  0.0599  0.1542 -0.3455
10114W        W23528   1.739  18.053  11.206 -0.2166 -0.3911  0.0897
10115W        W23529   3.637   6.114   2.555  0.0478  0.0456  0.2761
10116W        W23530   5.851  10.459   1.658  0.0757 -0.2711 -0.2373
10117W        W23531  11.186   5.527  13.778  0.0996  0.0040 -0.1003
10118W        W23532   4.567  18.284   2.832  0.1132  0.2166  0.1405
10119W        W23533  15.695   8.709   0.425  0.0066 -0.0393  0.0245
10120W        W23534   3.892   0.606  13.703 -0.3433  0.0714  0.0221
10121W        W23535   0.095  10.399   3.692  0.0170 -0.1720 -0.1248
10122W        W23536   9.433  17.399   5.381 -0.0135  0.0376  0.1625
10123W        W23537  12.335  12.900   5.883 -0.3717 -0.2825 -0.1826
10124W        W23538   5.349   1.126   3.026  0.0964  0.0758 -0.3189
10125W        W23539  17.621   1.581   4.086  0.0678  0.0931 -0.0013
10126W        W23540  18.302  16.260   3.697 -0.1552 -0.1356  0.0291
10127W        W23541   6.639  10.123   5.609 -0.1006  0.2390 -0.2306
10128W        W23542  13.133  12.891   0.208  0.1082 -0.1528 -0.0388
10129W        W23543   0.845   4.281  14.605 -0.2893 -0.0742 -0.0120
10130W        W23544  10.685  16.305   0.616  0.1282  0.3462  0.0093
10131W        W23545  15.310  13.187  13.054  0.2089  0.3812 -0.1037
10132W        W23546   6.135   1.083  13.532  0.0805  0.0626 -0.2971
10133W        W23547   2.686  11.403   2.912 -0.2146 -0.2984  0.2310
10134W        W23548  13.752   3.984   2.427  0.0506 -0.0759  0.0407
10135W        W23549   5.081   1.687   5.619  0.3029  0.3178  0.0417
10136W        W23550  11.691   6.503  10.785 -0.2554  0.1132  0.1834
10137W        W23551  14.175   3.855   5.471  0.0792 -0.1332 -0.0665
10138W        W23552   7.834  10.300   2.716  0.5799 -0.2229 -0.2556
10139W        W23553  11.978  12.687   1.721 -0.3393  0.1065  0.1303
10140W        W23554   2.400   2.386   4.994  0.3347 -0.1178  0.1844
10141W        W23555  11.384  12.747  13.558 -0.3928  0.2248 -0.1240
10142W        W23556  14.272  13.558   3.937 -0.1375 -0.0286 -0.0577
10143W        W23557  16.073   7.900  14.607 -0.2546  0.2504  0.0332
10144W        W23558  13.028  18.299  13.187 -0.2405 -0.0118 -0.2997
10145W        W23559   0.722  12.562  13.802  0.0027 -0.0616  0.2360
10146W        W23560  13.803  14.058   3.125  0.0018 -0.2338 -0.2377
10147W        W23561  16.448  15.803  14.608 -0.2056 -0.3372  0.0980
10148W        W23562  14.591  13.982   0.792  0.0821 -0.1592  0.3847
10149W        W23563   1.992   8.517   2.221  0.1056 -0.3175 -0.1792
10150W        W23564  16.567   9.219  15.074 -0.3945 -0.1292 -0.0676
10151W        W23565   8.262   8.789  14.796  0.3660  0.0316  0.0129
10152W        W23566   6.970  17.763   0.115  0.0212 -0.0376 -0.0572
10153W        W23567   0.036   3.052   0.497  0.1789 -0.2828  0.0456
10154W        W23568  11.458  13.933  15.531 -0.0458  0.3616  0.0629
10155W        W23569   4.623  13.688   4.827  0.1490  0.3025 -0.0439
10156W        W23570  16.376   7.724  14.260 -0.0933  0.2448 -0.0933
10157W        W23571   5.838  11.741   1.721 -0.0822  0.1323  0.3539
10158W        W23572   5.711  18.499  12.929  0.1505  0.0444  0.2434
10159W        W23573   8.384  11.544  15.561 -0.0055  0.2410 -0.0898
10160W        W23574  11.832  12.447   6.005 -0.1788  0.1644 -0.2768
10161W        W23575  13.389   7.851  11.105 -0.0804  0.3816 -0.1278
10162W        W23576   5.611   1.055  14.092 -0.2546  0.2625 -0.2828
10163W        W23577  12.650  16.649   1.460  0.1709 -0.2461 -0.0112
10164W        W23578  18.115  10.694   0.457 -0.1899  0.0398  0.3150
10165W        W23579   6.573   7.465   2.433 -0.1247 -0.2871 -0.0342
10166W        W23580  10.948  12.430  14.550 -0.0626  0.0484 -0.3595
10167W        W23581   6.647   3.343   2.968  0.3994 -0.0106  0.2188
10168W        W23582   3.233   5.954   2.810 -0.1042 -0.1932  0.0446
10169W        W23583  12.244  13.347  12.903  0.1153 -0.0359 -0.1300
10170W        W23584  17.141  15.372   4.433  0.1434 -0.1085  0.0959
10171W        W23585   2.454  10.159   3.969  0.1920  0.0626 -0.0665
10172W        W23586   5.189   0.074   0.225  0.1023  0.2123  0.0070
10173W        W23587   8.476  10.555  12.612 -0.0031 -0.1053 -0.0421
10174W        W23588   2.772   7.583  14.680  0.5367 -0.0044  0.4006
10175W        W23589  17.194  12.117   3.234  0.0392 -0.2786 -0.1089
10176W        W23590  16.271  16.664  15.722 -0.0657 -0.0222  0.1435
10177W        W23591  16.458   5.720  10.468 -0.1835 -0.1710 -0.0688
10178W        W23592   0.252  15.097   4.303  0.1819  0.2232 -0.1829
10179W        W23593  12.151  18.312   1.580 -0.1245  0.0233  0.1671
10180W        W23594   6.897   0.422  16.232  0.1924  0.3076  0.0879
10181W        W23595   3.301  14.888  12.852 -0.2386  0.1468 -0.0191
10182W        W23596  18.119  15.020  10.897 -0.2062  0.1902 -0.1545
10183W        W23597   5.312  17.895   0.361 -0.0750  0.0400  0.3156
10184W        W23598   1.081  12.310   0.293  0.0234 -0.1553  0.0346
10185W        W23599  13.827   4.483   3.381  0.0175 -0.0782 -0.0241
10186W        W23600   1.684   3.462  12.153 -0.5195  0.0868  0.0698
10187W        W23601  13.362   8.873   2.734  0.0416 -0.0742  0.0053
10188W        W23602   6.815  13.678  10.424 -0.0253 -0.2224  0.0345
10189W        W23603   2.985  15.662   4.061 -0.1208 -0.1346 -0.1630
10190W        W23604  10.594   5.839   3.691 -0.0289 -0.4684 -0.0153
10191W        W23605   2.908   7.017  12.230 -0.1562  0.1544  0.0415
10192W        W23606  16.007  12.353  15.158 -0.2475 -0.0766 -0.0029
10193W        W23607  14.239  12.659   5.012 -0.0615 -0.5963 -0.2764
10194W        W23608   9.899  14.726   1.864  0.0686 -0.0200  0.0320
10195W        W23609   5.718  17.345   0.181  0.1373 -0.2516 -0.1226
10196W        W23610   5.140  11.922   4.023  0.0809 -0.0974  0.0627
10197W        W23611   5.219  16.592  13.989  0.1599  0.0459  0.2677
10198W        W23612   0.930  10.997   1.305  0.0295  0.1296  0.1587
10199W        W23613   8.209  18.493   2.833  0.0211 -0.2816 -0.3145
10200W        W23614   8.752  16.355  15.305 -0.0299  0.0092  0.0940
10201W        W23615   0.391   3.347   3.660 -0.1185  0.2568 -0.0671
10202W        W23616   9.536   4.801   2.375 -0.2017 -0.1742  0.1548
10203W        W23617   1.265   1.444   0.222 -0.2997 -0.0210 -0.0961
10204W        W23618   5.844  14.902   9.759  0.0163  0.2290 -0.2390
10205W        W23619  11.691  13.598   0.125  0.0302 -0.1392  0.3815
10206W        W23620  17.122   3.027  12.482 -0.2035  0.2147 -0.0222
10207W        W23621  10.596  17.544   5.397 -0.3046 -0.1136 -0.1105
10208W        W23622  15.096   3.847   1.287  0.2994 -0.1120  0.1294
10209W        W23623   9.195  12.599  14.198 -0.2145 -0.0202  0.0633
10210W        W23624   5.926  14.031   2.947 -0.0333 -0.2262 -0.2635
10211W        W23625   0.259   3.531  15.545  0.2798 -0.0641  0.0440
10212W        W23626  12.444   0.795   1.890  0.3878  0.0073 -0.1599
10213W        W23627   4.196  16.233   4.153 -0.2444  0.3082 -0.0701
10214W        W23628   4.627   3.996   5.454 -0.0478  0.0857 -0.2638
10215W        W23629  10.721   3.824  13.356  0.1105  0.0113 -0.3344
10216W        W23630   4.530   0.005  13.746  0.1704  0.1479  0.1702
10217W        W23631   8.865   6.779  12.533 -0.0967 -0.0932 -0.0653
10218W        W23632   8.342   9.797  13.338 -0.1146 -0.0412  0.1238
10219W        W23633   3.103   1.702   3.644 -0.2304 -0.3098 -0.1535
10220W        W23634   8.345  13.786   0.254 -0.0122 -0.2556 -0.1972
10221W        W23635   4.675   7.901   2.827  0.4142 -0.0893  0.1317
10222W        W23636   6.172  10.683  13.737 -0.1269 -0.0238 -0.3316
10223W        W23637   4.947   0.719  15.645  0.1401  0.3382  0.0219
10224W        W23638   5.089   1.895  13.386  0.1375  0.2044  0.4319
10225W        W23639  17.983   0.669   5.327  0.2557 -0.1327 -0.1751
10226W        W23640  11.815   5.299  10.413  0.0669 -0.0230 -0.2191
10227W        W23641  14.252  12.959   2.169 -0.2729  0.0478  0.0347
10228W        W23642   6.317  12.946  12.455  0.2244 -0.3964 -0.0764
10229W        W23643  18.120  16.338   2.323 -0.1105 -0.1541  0.1100
10230W        W23644   9.426  18.067  12.168 -0.1815  0.4334  0.2568
10231W        W23645  10.150   6.061   4.288  0.0620  0.1238  0.0281
10232W        W23646   1.386   1.246   1.258 -0.1501  0.0644  0.2520
10233W        W23647   3.743  14.495  13.892 -0.0432 -0.0408  0.3293
10234W        W23648   4.662  13.433  10.836 -0.0105 -0.2180  0.1669
10235W        W23649   2.417  10.950  14.439  0.2055  0.0410 -0.3735
10236W        W23650   9.563   2.657  15.030 -0.0504 -0.1336  0.0852
10237W        W23651  18.360   7.433   3.839  0.1803  0.0564 -0.3923
10238W        W23652   5.567   8.446   4.648 -0.1046 -0.0770 -0.0712
10239W        W23653   9.145   5.872   0.898 -0.0788 -0.1116  0.1238
10240W        W23654   6.827   2.423   1.153 -0.0998 -0.2090 -0.4193
10241W        W23655  13.858  17.959   4.522 -0.0212  0.2857  0.0510
10242W        W23656   9.653  15.560   4.948  0.1560 -0.0269 -0.0677
10243W        W23657   2.944  17.323  10.949 -0.0597 -0.3883 -0.0941
10244W        W23658  18.228  18.462  15.322  0.1291 -0.1025 -0.0487
10245W        W23659   9.947  12.253   1.417  0.0539 -0.2322 -0.0485
10246W        W23660  10.199   1.777  10.402 -0.2627 -0.1487 -0.0972
10247W        W23661  18.302  13.990   3.141  0.1575 -0.1790 -0.0367
10248W        W23662   0.107   8.387  16.001  0.0300  0.1258  0.0504
10249W        W23663  15.124  13.291  16.033 -0.1426  0.0319 -0.5226
10250W        W23664   8.969  18.433   2.469 -0.0807 -0.1410  0.0859
10251W        W23665  10.321  11.079   1.138  0.0983 -0.1412 -0.1464
10252W        W23666   2.007   9.474  11.580 -0.1972 -0.0953 -0.0443
10253W        W23667  15.730  16.907  10.477  0.2226  0.2630  0.4712
10254W        W23668   8.909   8.516   4.253  0.1376 -0.0144  0.4884
10255W        W23669   5.772   8.968   2.617 -0.0422 -0.2696 -0.0987
10256W        W23670   1.135   7.038   2.482 -0.1535 -0.0914  0.0343
10257W        W23671  17.848  11.349  15.297 -0.0170 -0.0989  0.0920
10258W        W23672  13.658   4.755   5.420 -0.4642 -0.4366 -0.0420
10259W        W23673  16.000   4.030  10.841  0.2007  0.3690 -0.2764
10260W        W23674  12.702  10.476   4.246  0.0027 -0.0736  0.1123
10261W        W23675  16.857   0.969  11.654  0.0919 -0.6265  0.1314
10262W        W23676   6.206   5.912  16.054 -0.2262  0.2929 -0.0799
10263W        W23677   0.639   7.283  11.625 -0.0115 -0.1327 -0.0319
10264W        W23678  12.967   2.072   0.955 -0.2314  0.0007  0.0098
10265W        W23679   6.922   0.346  14.318  0.0610 -0.0053 -0.2372
10266W        W23680  11.424   6.928  15.711 -0.0446 -0.1268  0.0624
10267W        W23681   2.762  17.536  13.914  0.1756  0.1623 -0.0507
10268W        W23682  17.580   9.498  12.224 -0.4817  0.0199 -0.2268
10269W        W23683  14.792  10.510  10.953 -0.0288 -0.0301 -0.0325
10270W        W23684  16.336  18.343   4.462 -0.3678 -0.1538  0.1179
10271W        W23685   6.279   5.595  12.019 -0.1338 -0.0610  0.0749
10272W        W23686   8.134  11.406   1.588 -0.3349 -0.0719 -0.2310
10273W        W23687  11.401   9.459  15.516 -0.0058 -0.1699  0.0419
10274W        W23688  14.479   3.203   5.111  0.2039  0.0434 -0.0343
10275W        W23689   7.045  13.970  15.634 -0.1240 -0.2321  0.3200
10276W        W23690  17.563  12.870  13.427 -0.0128 -0.2414 -0.2006
10277W        W23691   8.678   7.622   6.158  0.1691 -0.1461 -0.1480
10278W        W23692  17.067  16.903   3.717  0.0725 -0.1332 -0.0387
10279W        W23693   9.350  16.235   1.827  0.3598  0.1862 -0.2217
10280W        W23694  14.141   4.391  15.450 -0.4774  0.1584  0.3899
10281W        W23695  18.417   2.933  13.323  0.1138  0.3631 -0.0475
10282W        W23696  10.825   5.676  11.787  0.0173 -0.2997  0.2379
10283W        W23697  11.654   3.400  14.707 -0.3549 -0.0538 -0.0052
10284W        W23698  15.242  12.740   3.046 -0.1858  0.0845  0.0604
10285W        W23699   1.733  14.025  14.207  0.1341  0.0294 -0.1679
10286W        W23700   1.050   4.089  13.123  0.0858  0.2312  0.0436
10287W        W23701   6.193  13.580  14.480  0.0843 -0.0629 -0.0688
10288W        W23702   3.117  13.877  13.929  0.0829 -0.2255  0.0001
10289W        W23703  10.385  14.899   5.920 -0.0272  0.1118  0.1238
10290W        W23704   0.720   4.060   4.000 -0.0979 -0.0634 -0.3536
10291W        W23705   8.140  15.553   2.414  0.1531  0.1107 -0.2565
10292W        W23706  13.763  15.132   3.750 -0.0521 -0.1464 -0.2266
10293W        W23707  12.716   7.223   4.798  0.0632 -0.1128 -0.0813
10294W        W23708  14.018   6.668   5.255  0.4707 -0.1319 -0.6501
10295W        W23709   9.610  16.414   9.968 -0.1106  0.1269  0.1625
10296W        W23710   5.277  13.344  12.761 -0.1725  0.1455  0.0088
10297W        W23711   0.912   8.491  13.224  0.0126  0.0395 -0.1499
10298W        W23712   2.841   9.937  11.347 -0.0528  0.2410  0.0552
10299W        W23713   6.026  16.198   6.035  0.1258  0.0188 -0.0580
10300W        W23714   6.035  13.888  13.077 -0.2353  0.2596 -0.0871
10301W        W23715  17.622  11.688   0.676  0.0090  0.1271 -0.0166
10302W        W23716   9.425  13.559  12.730  0.5195  0.3676  0.1202
10303W        W23717   5.088   1.767  10.848  0.2430  0.1792  0.1502
10304W        W23718   3.126   5.794   4.711 -0.1085  0.0744  0.2745
10305W        W23719   2.094   1.856   3.073  0.0244 -0.3142  0.2877
10306W        W23720  16.182   8.634  10.446 -0.0472  0.1165 -0.0393
10307W        W23721   3.495   5.507   5.734 -0.2405 -0.0129 -0.0889
10308W        W23722   1.673   2.378   4.262 -0.0074  0.0703  0.0563
10309W        W23723   5.925  12.071   2.131 -0.0088  0.2820  0.0404
10310W        W23724   2.736   0.164   4.667 -0.2050  0.0327 -0.2382
10311W        W23725   3.270   3.495  14.879  0.0474 -0.1503  0.2416
10312W        W23726  12.044   5.919   5.160  0.1054  0.1897  0.2371
10313W        W23727   4.684   8.145  15.678 -0.0753 -0.0288 -0.0259
10314W        W23728   4.439   4.784  15.029  0.1604  0.2946 -0.0777
10315W        W23729  11.300   5.853   1.346  0.0899  0.0958 -0.1092
10316W        W23730  13.912   6.943   3.951 -0.0048 -0.1620 -0.0410
10317W        W23731   6.000   8.383  10.929  0.0187 -0.0878  0.1159
10318W        W23732   9.236   1.557   5.303 -0.0489  0.0080 -0.2735
10319W        W23733  10.731  12.853  11.065  0.0846 -0.2772 -0.0181
10320W        W23734  10.820   1.195   1.035  0.3946 -0.3065  0.2252
10321W        W23735  18.191   8.419   2.255 -0.0356  0.1270  0.1706
10322W        W23736   4.560  16.675   3.966  0.2317  0.1701  0.2795
10323W        W23737  17.645  18.326  12.385  0.0298 -0.0083 -0.2413
10324W        W23738  17.834  11.893   1.246  0.0208  0.0076 -0.1950
10325W        W23739   4.743   0.650   4.943 -0.3247 -0.0114  0.1545
10326W        W23740  12.096  11.070  13.883  0.3098 -0.1454  0.2357
10327W        W23741   3.338   6.321   3.087 -0.0358  0.0598 -0.0006
10328W        W23742  12.131  12.258   0.877 -0.0256 -0.0862 -0.2279
10329W        W23743  10.015   5.334   5.039  0.0853  0.2040 -0.0411
10330W        W23744   7.880   7.852  15.661 -0.0556  0.2540  0.0232
10331W        W23745  11.489  13.661  12.157  0.1007 -0.0537  0.0831
10332W        W23746   6.131   5.766   5.200  0.4583  0.0368 -0.4926
10333W        W23747  11.791  17.401   4.611 -0.0410  0.0733  0.0247
10334W        W23748   0.647   2.411  10.792  0.0488 -0.2031 -0.2389
10335W        W23749   7.732   2.258   2.849 -0.3355  0.0325 -0.1206
10336W        W23750  10.547  13.976  13.319  0.1898 -0.1169 -0.1155
10337W        W23751   9.095   7.207  14.323 -0.0264 -0.0123 -0.0187
10338W        W23752   0.121   6.598   4.557 -0.1321 -0.2558 -0.2280
10339W        W23753  13.622  12.882   3.180 -0.2420  0.0904 -0.0044
10340W        W23754  17.348   6.917  13.270 -0.0178  0.1408 -0.2756
10341W        W23755  11.668  17.323  12.612  0.1998  0.0664 -0.0990
10342W        W23756  18.427  15.040   1.395 -0.3474  0.0399 -0.2608
10343W        W23757   8.435  18.080  15.582  0.0259 -0.0385 -0.1488
10344W        W23758   1.740  15.221   3.022 -0.1496  0.2164 -0.1279
10345W        W23759  17.725  16.628   1.703  0.1407  0.3179  0.1016
10346W        W23760   0.962  10.318  14.462 -0.0176 -0.0981  0.1964
10347W        W23761  16.755   3.876   4.060  0.0589 -0.0419  0.0115
10348W        W23762   2.172   1.139  15.846  0.1792 -0.1735 -0.2059
10349W        W23763  12.629   6.436  13.695  0.0773 -0.1193  0.1530
10350W        W23764  12.670  12.006   3.114 -0.2834 -0.2026 -0.2690
10351W        W23765  17.378   7.405   3.530 -0.1155 -0.1891 -0.1598
10352W        W23766  12.946  18.369   4.162  0.5200  0.0555 -0.1666
10353W        W23767   8.407  12.953   1.602  0.2868 -0.1167  0.2482
10354W        W23768  18.121   5.589   2.872 -0.0151  0.1270  0.0202
10355W        W23769   5.739   0.341   1.331  0.0497 -0.1405 -0.0372
10356W        W23770  15.558  16.978   9.812  0.0929  0.3132  0.3122
10357W        W23771   4.514  18.285  14.166  0.2106  0.0127  0.0373
10358W        W23772   6.424   2.441  11.098 -0.1405 -0.0094 -0.1201
10359W        W23773  18.439   7.140  13.497  0.0920  0.1339  0.0914
10360W        W23774   1.925  12.344  10.718 -0.0503  0.0540  0.0003
10361W        W23775  17.716  16.601   0.464 -0.2084 -0.1258  0.4184
10362W        W23776   2.718   9.357   0.956 -0.3245 -0.0124  0.1782
10363W        W23777   9.026   5.156  10.859 -0.3300  0.0470 -0.0806
10364W        W23778   7.526  10.112   3.087 -0.5927 -0.1274 -0.1177
10365W        W23779  16.109   9.052   5.691 -0.0793  0.2848 -0.1475
10366W        W23780  17.363   0.624  12.017 -0.2514 -0.2900  0.1449
10367W        W23781  14.849   4.111  12.842 -0.1383  0.1818  0.2393
10368W        W23782  11.228  15.550   3.546 -0.2821  0.2817  0.2919
10369W        W23783  14.826   4.494  12.479 -0.4452  0.2014  0.2021
10370W        W23784   1.506   1.691  13.427 -0.3578 -0.0060  0.2553
10371W        W23785   2.712   8.332  14.068 -0.3504  0.0304  0.2678
10372W        W23786  14.916  17.054  10.350  0.1335  0.0066  0.2439
10373W        W23787   5.715   3.620  10.866  0.0082 -0.0920  0.1961
10374W        W23788   7.257   7.464   2.988  0.5401  0.0089  0.0794
10375W        W23789  11.020  13.228  10.800  0.0333  0.0196 -0.1353
10376W        W23790  13.038   0.035   1.321 -0.0743 -0.3666  0.1876
10377W        W23791  17.483  12.937   2.634 -0.0044  0.2294 -0.1339
10378W        W23792   7.807   6.223   1.865 -0.1585  0.3331 -0.0043
10379W        W23793   5.913  11.562   2.606  0.3063 -0.1454  0.1272
10380W        W23794   2.292   9.508   4.396  0.0735 -0.1647 -0.1624
10381W        W23795  16.391   8.194  12.162 -0.0009 -0.0505 -0.3859
10382W        W23796  10.825  13.003  14.825  0.0140 -0.1181  0.1276
10383W        W23797   3.092   6.078  11.767 -0.1840  0.1148 -0.0328
10384W        W23798   4.632  13.342  11.874  0.2762 -0.0295 -0.2029
10385W        W23799  16.769   2.168  14.807  0.4395 -0.1719 -0.1396
10386W        W23800   4.386  17.515   3.191 -0.1506 -0.1532 -0.3356
10387W        W23801  13.736   2.579  13.076 -0.1291 -0.1884 -0.0352
10388W        W23802   7.513  10.965   3.984 -0.1083 -0.1002 -0.1442
10389W        W23803  17.934   9.962   4.011  0.0205  0.0233  0.2214
10390W        W23804   6.129  13.744  13.825  0.1193 -0.0917  0.0763
10391W        W23805   3.079  14.165   1.145  0.2826  0.0930 -0.0651
10392W        W23806   6.151   6.907   5.467 -0.0981 -0.1147  0.2203
10393W        W23807   6.359  15.214  13.324  0.2109 -0.1337 -0.0378
10394W        W23808   1.794  15.393   1.952  0.0810 -0.0591  0.1306
10395W        W23809  16.734  16.801  14.854  0.4112 -0.0459 -0.0405
10396W        W23810   6.744  15.182  15.053 -0.3686  0.0459 -0.0001
10397W        W23811  15.698   1.230  12.596 -0.3472  0.1245  0.2492
10398W        W23812   7.667   5.595   3.057 -0.2570 -0.2727  0.1621
10399W        W23813  11.339   2.512   5.297  0.1349  0.0301 -0.1134
10400W        W23814  15.796  17.761   4.106  0.2904 -0.1873  0.1348
10401W        W23815   4.782  18.421  12.718 -0.0008  0.1682 -0.0231
10402W        W23816  11.795  13.929   2.146 -0.0179  0.0751 -0.3896
10403W        W23817   9.856   1.330  14.010 -0.1369 -0.2339 -0.2271
10404W        W23818  14.762  10.198  12.776 -0.1029 -0.1468  0.1211
10405W        W23819   6.924  12.283   2.871 -0.2084  0.2412  0.2404
10406W        W23820   0.167   7.929   1.966 -0.0061  0.0583  0.0335
10407W        W23821   3.586   6.713   3.398  0.0062  0.0078  0.2408
10408W        W23822   6.346  18.495  15.102 -0.1329 -0.0686  0.5065
10409W        W23823   0.580   1.453  12.913 -0.1463  0.2450  0.0920
10410W        W23824  16.581   2.985   1.202  0.2400 -0.0627  0.0521
10411W        W23825   9.942   4.348   4.737 -0.1782 -0.2074 -0.1132
10412W        W23826  17.218  12.572  13.236  0.0840 -0.0220  0.3247
10413W        W23827   0.727  18.470   3.619 -0.1786 -0.0945 -0.2852
10414W        W23828   3.016   7.575   2.808  0.2944 -0.1204 -0.0824
10415W        W23829  11.274  12.317   4.595  0.2551  0.3213  0.0866
10416W        W23830  18.318   1.288   6.057  0.0671  0.2045  0.1910
10417W        W23831   8.097   9.238  14.720  0.1307 -0.0212  0.1993
10418W        W23832  11.525  14.043  16.165 -0.0834  0.2401  0.2946
10419W        W23833  15.350  17.788   2.377  0.1601  0.0210  0.1567
10420W        W23834   6.599  12.624  11.796 -0.2623  0.3987  0.2739
10421W        W23835  16.160   1.229   2.717  0.0870  0.1566 -0.0552
10422W        W23836   4.789   5.616  12.490 -0.0802  0.0607  0.2452
10423W        W23837  16.933  12.337  12.754  0.0531 -0.1648  0.3294
10424W        W23838   2.584  17.543  14.739  0.0889  0.1689  0.1553
10425W        W23839  14.805  14.386   2.083 -0.1679 -0.0714 -0.2061
10426W        W23840   9.951  17.278  12.468  0.0350 -0.1744 -0.2052
10427W        W23841   2.876   5.681  15.767  0.3136 -0.0438 -0.1569
10428W        W23842  17.662  14.661   3.878 -0.0028  0.2019 -0.0138
10429W        W23843  14.444   9.917  10.407 -0.1979 -0.0983  0.1921
10430W        W23844  12.396   0.864   5.038  0.1516 -0.0618 -0.1983
10431W        W23845   4.097  10.563   3.168 -0.2070 -0.3332  0.0709
10432W        W23846   9.888   0.710  12.675 -0.2973 -0.0383 -0.1552
10433W        W23847  12.486  16.314  10.678  0.1559  0.1436 -0.1936
10434W        W23848   6.158   9.891   4.780 -0.2413  0.2384 -0.0567
10435W        W23849   4.516   4.800  12.799 -0.2937  0.1798 -0.0475
10436W        W23850  13.637  12.024  11.522  0.0163  0.0236  0.2430
10437W        W23851  10.737   3.333  13.531 -0.0533  0.1907 -0.0103
10438W        W23852   0.958  18.025  10.455  0.0284 -0.3827  0.4542
10439W        W23853  16.358   4.732   6.507  0.3842 -0.3627  0.1829
10440W        W23854  17.010   8.039  15.457 -0.2860 -0.0308 -0.1944
10441W        W23855  18.296   7.274  11.133  0.3133  0.0535  0.2421
10442W        W23856   8.598   4.699   6.422 -0.1373  0.2285 -0.0222
10443W        W23857  15.754  14.250   0.236  0.0579  0.2518 -0.0422
10444W        W23858   3.171   2.515  10.202 -0.2111  0.2567 -0.0869
10445W        W23859   7.918   6.636  15.471  0.0858 -0.0244 -0.1192
10446W        W23860  12.412   6.820  10.466  0.1384  0.0908 -0.0576
10447W        W23861  15.333  16.300   3.527  0.0150 -0.0901  0.1260
10448W        W23862  15.686   0.161  14.885 -0.0200 -0.3155 -0.0518
10449W        W23863   1.058  17.586  10.757 -0.3206  0.1171  0.2204
10450W        W23864   7.274   1.969  10.170  0.2795  0.1623 -0.2378
10451W        W23865  11.878  12.119   1.366  0.0844 -0.1908  0.0767
10452W        W23866  10.337   1.656   2.883 -0.3434 -0.0890  0.0412
10453W        W23867  13.078  14.003  10.942 -0.0053  0.0967 -0.2363
10454W        W23868   1.006   0.505   0.248  0.0487 -0.0758  0.0047
10455W        W23869   9.135   0.736  16.046  0.0958 -0.1965 -0.0568
10456W        W23870  15.267   1.420  10.826  0.1158  0.0036  0.1441
10457W        W23871   0.362   7.283   1.853 -0.0124 -0.0172 -0.1001
10458W        W23872  17.546   7.435  15.517  0.3249 -0.0404  0.1687
10459W        W23873   7.976   6.812   1.352 -0.1279  0.1344  0.3193
10460W        W23874   4.878   5.927   0.617  0.2776 -0.1393 -0.1105
10461W        W23875   1.359   8.884   1.992 -0.2570  0.0148 -0.3450
10462W        W23876   3.437  18.364   3.804  0.3904 -0.3476  0.0393
10463W        W23877   0.845   0.596  14.284  0.1920  0.1358 -0.5335
10464W        W23878   8.544  15.988   9.976 -0.0651 -0.0901 -0.0281
10465W        W23879   5.422   5.588  13.337 -0.0178 -0.0031 -0.0606
10466W        W23880   8.642   3.393   2.442  0.2373 -0.0458 -0.0407
10467W        W23881   6.811   4.213   0.325 -0.1425  0.2341  0.3023
10468W        W23882   3.350  18.495  12.533  0.4009 -0.2087 -0.3175
10469W        W23883  14.694   9.609   4.573  0.3847  0.0024 -0.0226
10470W        W23884  16.707  10.588  13.404 -0.1699 -0.0731 -0.0143
10471W        W23885  12.477  18.228  14.977  0.3531 -0.0463 -0.3122
10472W        W23886   9.791  12.559  15.485 -0.0033 -0.1204 -0.4548
10473W        W23887   8.794  14.614   4.695  0.0381  0.3587  0.1574
10474W        W23888  15.938   1.702   0.409 -0.0674 -0.2203  0.0656
10475W        W23889  18.498   4.015  13.706 -0.2521  0.1109  0.3815
10476W        W23890   7.188   4.070   5.464  0.0317  0.1595 -0.1021
10477W        W23891   1.841   4.781   4.006 -0.1354 -0.1652 -0.1827
10478W        W23892   3.588  11.761   3.168 -0.0357 -0.0934  0.1362
10479W        W23893   7.366   0.356  13.693  0.3987  0.1258  0.0694
10480W        W23894   5.618   5.733   3.350  0.2750 -0.1815  0.0683
10481W        W23895   3.152  14.430   0.692  0.0474 -0.0586 -0.1040
10482W        W23896  15.248   7.568   4.120  0.1351  0.1854 -0.1453
10483W        W23897  12.139  17.249  12.022 -0.0876  0.1903 -0.0786
10484W        W23898   0.784   4.725   2.181 -0.4200  0.1509 -0.1751
10485W        W23899  16.384  11.901  14.146  0.1006  0.0352  0.0798
10486W        W23900   8.496   4.156   1.526  0.1613 -0.1859  0.0700
10487W        W23901  13.704   6.899  15.895  0.2530 -0.3320 -0.2209
10488W        W23902  18.127   5.866  13.455 -0.1122 -0.1050  0.1099
10489W        W23903   7.987  10.871  11.651  0.1446 -0.1804  0.2483
10490W        W23904  14.430   8.204   6.731  0.2313 -0.0329  0.1226
10491W        W23905   0.482  11.314   5.518 -0.0700  0.1113 -0.0345
10492W        W23906  17.258  17.350  12.241  0.2563  0.1462 -0.0561
10493W        W23907  14.990   3.441   5.716 -0.3157 -0.3314  0.0265
10494W        W23908  17.956   0.279   4.997  0.0408  0.1975  0.1000
10495W        W23909   6.057   1.926  12.434  0.2873  0.0778  0.2370
10496W        W23910   4.447  11.100   1.111  0.0210 -0.2051  0.1561
10497W        W23911   8.370  11.505  12.146  0.0971  0.1084 -0.1232
10498W        W23912  14.659  17.271   2.579 -0.0079  0.1365 -0.0988
10499W        W23913   9.539   5.475  11.467 -0.1638  0.2659 -0.4488
10500W        W23914   9.829  10.865  16.058  0.2748  0.0184 -0.2707
10501W        W23915  13.127  14.389   5.781 -0.1615  0.2972  0.1138
10502W        W23916  16.197  16.910   1.945  0.0835  0.5282 -0.0327
10503W        W23917   6.780   3.287  10.699 -0.1896  0.0704 -0.2030
10504W        W23918  16.142   2.331   0.572 -0.3382  0.1726  0.0272
10505W        W23919   5.562   0.910   0.093  0.1164 -0.0098 -0.1630
10506W        W23920   4.719   8.368  13.010  0.0388 -0.0154  0.0587
10507W        W23921  15.618   1.353   0.701 -0.0733 -0.2202  0.1081
10508W        W23922  12.983  14.716  13.056  0.0597  0.1346  0.0150
10509W        W23923  11.044  13.062  11.325 -0.0856 -0.0130 -0.2121
10510W        W23924   3.289   0.581  14.808  0.3146 -0.0331 -0.0421
10511W        W23925  15.160   6.197   4.666  0.3332  0.0182  0.2472
10512W        W23926  10.331   4.318  15.180  0.2673 -0.0880 -0.2815
10513W        W23927  11.173   9.840   0.915  0.1006 -0.1594 -0.2158
10514W        W23928   4.261  14.711   3.214 -0.0820 -0.0499 -0.0233
10515W        W23929  11.296  11.270   4.534 -0.0222  0.0040 -0.1897
10516W        W23930  17.960  16.930   0.043 -0.1269  0.1401  0.3528
10517W        W23931   3.162   1.519  12.363  0.2937 -0.1308  0.1553
10518W        W23932   4.609   1.798  12.135  0.1694 -0.0199 -0.2988
10519W        W23933  17.020  13.719   2.971 -0.1362  0.0648 -0.1252
10520W        W23934  18.447  14.658  11.117  0.0454  0.2084  0.3967
10521W        W23935  13.959   3.168  12.423  0.1668  0.0995  0.1330
10522W        W23936   7.994  12.900  14.056 -0.3909  0.0172  0.2434
10523W        W23937   4.413  13.857  15.175 -0.1766  0.4276 -0.0099
10524W        W23938   4.242   7.053  12.900 -0.2319  0.0576 -0.3521
10525W        W23939   7.813   8.161   1.652  0.2000 -0.2344  0.0345
10526W        W23940   7.829   4.866  11.044 -0.0756  0.3288  0.0792
10527W        W23941   3.675   9.299  12.663  0.2156  0.1355 -0.1394
10528W        W23942   9.019   8.578  10.801 -0.0730  0.2749 -0.0084
10529W        W23943  11.342  15.375  16.125 -0.1188  0.0573 -0.0807
10530W        W23944   9.582  11.221   0.119  0.0043 -0.0653  0.0834
10531W        W23945   0.820  16.560  13.131  0.0848 -0.1044  0.0118
10532W        W23946   3.944  11.032   0.920  0.2116  0.0020  0.0919
10533W        W23947  10.747   1.417   3.147  0.0999 -0.0140  0.0430
10534W        W23948  16.389  12.765  13.286 -0.1551 -0.1012  0.0212
10535W        W23949  11.825  11.479  10.510  0.0262  0.2708 -0.0425
10536W        W23950  13.472  12.019   5.371 -0.1706 -0.0627  0.3536
10537W        W23951   6.291   4.668  12.233 -0.3196 -0.1527  0.2466
10538W        W23952   8.465  17.050   5.463  0.0228  0.1786  0.2185
10539W        W23953   0.654   7.336  11.119  0.4295  0.1125  0.0491
10540W        W23954  11.930  15.146   3.617  0.2320  0.0951 -0.0230
10541W        W23955   7.430   9.152  12.252 -0.1915  0.3035  0.2613
10542W        W23956  14.277  15.504   0.739 -0.1211 -0.0348  0.3198
10543W        W23957   4.616   9.963  12.499  0.1163  0.1517  0.1077
10544W        W23958  14.394   6.960   5.309 -0.0776  0.0796  0.2806
10545W        W23959   9.689   9.650   5.362  0.1251 -0.1002  0.0312
10546W        W23960   2.480  11.386   0.574 -0.2982  0.2060 -0.4667
10547W        W23961   9.864  13.341  12.789  0.0424 -0.2982 -0.0253
10548W        W23962   6.468   0.383  13.541  0.2253 -0.2800 -0.2298
10549W        W23963  12.484  16.933   4.925 -0.2964  0.2183 -0.1531
10550W        W23964  17.602  10.704  12.112 -0.3065 -0.3054 -0.0509
10551W        W23965  11.334   7.770   4.718 -0.2726  0.2335  0.0807
10552W        W23966   6.194  17.779  11.928 -0.2171  0.0092  0.1327
10553W        W23967   4.414   2.871   2.806 -0.3870 -0.0726  0.0297
10554W        W23968   1.141   7.316  11.512  0.1868 -0.3216 -0.0376
10555W        W23969  14.086  16.647   1.445 -0.0028  0.3003 -0.1081
10556W        W23970   0.493   8.529  12.881  0.2138 -0.0246 -0.0379
10557W        W23971   4.016   4.002  10.930 -0.0612  0.1506  0.1600
10558W        W23972   3.609  10.365  15.857  0.0379 -0.0268 -0.2396
10559W        W23973  18.250  12.651   3.584  0.0616  0.0229  0.0209
10560W        W23974  16.258  15.266   4.568  0.1400 -0.1851 -0.2043
10561W        W23975   1.914  11.453  13.267  0.4430  0.2890  0.1052
10562W        W23976  12.095  10.897  12.305 -0.0137 -0.3121 -0.2675
10563W        W23977   1.622   9.788   5.801  0.3530 -0.0928 -0.0924
10564W        W23978  10.727   1.716  13.684  0.0197  0.2234 -0.3132
10565W        W23979   6.844   9.598   3.365  0.2909  0.3978  0.2719
10566W        W23980  18.388  17.446   0.819 -0.1647 -0.0191  0.1248
10567W        W23981   6.709   8.339  15.969  0.0231  0.2065 -0.2838
10568W        W23982   0.882   4.931  11.229  0.4821  0.2046  0.1683
10569W        W23983  10.529   5.934   1.365  0.1828 -0.2906  0.0028
10570W        W23984  11.021   6.611  16.010  0.1559  0.0615 -0.2517
10571W        W23985   4.653   0.132   4.852 -0.4034  0.1802  0.1099
10572W        W23986   8.052   9.062  11.117  0.2558 -0.0499  0.1308
10573W        W23987   3.176   9.726   1.073 -0.3727  0.1268 -0.1879
10574W        W23988   1.389  16.727  10.308 -0.3478 -0.2293 -0.3349
10575W        W23989   3.476  10.131  12.090 -0.2288  0.1274  0.0911
10576W        W23990   2.989  16.796  11.287  0.1972 -0.0428 -0.2439
10577W        W23991  12.688   7.918  14.707  0.0787  0.1821 -0.3392
10578W        W23992  11.873  12.360   0.419 -0.6476  0.0915 -0.0810
10579W        W23993   0.793  16.195  13.468  0.0183 -0.1264 -0.0718
10580W        W23994  14.417  16.885   0.144 -0.0661 -0.0408  0.2474
10581W        W23995  14.182   3.212  14.927 -0.0365 -0.0572 -0.1856
10582W        W23996  16.190  15.655   5.064  0.0339 -0.0096 -0.1618
10583W        W23997   1.496   9.302  13.155 -0.2084  0.1379  0.1815
10584W        W23998  11.039  11.351  11.596 -0.0171 -0.1077  0.1187
10585W        W23999   4.284   7.306   2.880  0.0308  0.2158 -0.0897
10586W        W24000   6.906   1.113   0.590  0.1474 -0.0484 -0.2081
10587W        W24001   0.462   2.990   3.276  0.1625  0.1144 -0.1322
10588W        W24002   6.080  13.820   1.967 -0.0765  0.0346 -0.0695
10589W        W24003  10.194   9.988  12.785  0.0014 -0.2775  0.1463
10590W        W24004  10.944   9.091   3.853 -0.1814  0.0087 -0.2094
10591W        W24005  16.997  11.488   2.294  0.2686  0.0584 -0.1930
10592W        W24006  10.919   7.664   4.948 -0.3520  0.0535 -0.2476
10593W        W24007  13.202  14.429   4.011 -0.2594  0.1251  0.2367
10594W        W24008   6.853   3.804   2.931  0.1702 -0.3842 -0.1561
10595W        W24009  14.280   5.711   1.166  0.2078 -0.1030  0.0990
10596W        W24010   2.445   4.927   2.079 -0.1236 -0.0368 -0.1557
10597W        W24011   0.966  11.558  14.066 -0.0002 -0.0601  0.0273
10598W        W24012  10.644   8.287  12.847  0.1821 -0.0673  0.0654
10599W        W24013  10.490   0.887   4.177 -0.0644 -0.2735  0.0572
10600W        W24014  17.126  13.968   3.885 -0.1866 -0.0812 -0.1017
10601W        W24015  15.078   7.001   2.682  0.1375 -0.0017 -0.0284
10602W        W24016   6.138  14.026  14.221 -0.4782  0.0818 -0.1517
10603W        W24017  13.266   9.210  15.841  0.2731  0.1367  0.2204
10604W        W24018   6.927   5.305  12.796 -0.1799 -0.0499  0.3484
10605W        W24019  15.669   6.809   5.530 -0.1272  0.5232 -0.0907
10606W        W24020   4.449   6.032   2.609 -0.1598  0.0232 -0.0925
10607W        W24021   7.548  18.501  11.435 -0.3326  0.2204 -0.0585
10608W        W24022   4.764   0.797  11.648  0.0631 -0.0786  0.1506
10609W        W24023   0.438  10.532   1.201 -0.1042  0.2722 -0.2810
10610W        W24024  16.372  13.553  12.889 -0.1094 -0.0348  0.1496
10611W        W24025   3.454  11.682   1.604  0.1706 -0.0518 -0.0972
10612W        W24026  13.789  12.318   5.696 -0.0729  0.0367  0.3125
10613W        W24027   0.434  15.046  10.521  0.3771  0.0514  0.2906
10614W        W24028  13.900   7.719   5.383 -0.3221  0.1803  0.1288
10615W        W24029  16.101   2.746   6.055  0.1849  0.0273  0.1808
10616W        W24030  13.284  13.571  11.557 -0.0420  0.0576  0.1128
10617W        W24031   4.119  15.787   2.298  0.0557  0.1092  0.1875
10618W        W24032   9.265  17.471   0.568 -0.0885  0.0273  0.2785
10619W        W24033  16.879   0.638   0.114 -0.0799 -0.0667  0.1383
10620W        W24034  11.368  14.362   1.943 -0.4554  0.5858 -0.1410
10621W        W24035   4.712   9.696   0.786 -0.1816  0.0857 -0.1852
10622W        W24036  16.932   7.449  12.398 -0.3766 -0.1321  0.1332
10623W        W24037  12.953   2.367   0.440  0.0204  0.0985 -0.2301
10624W        W24038  13.796  13.574   3.791 -0.0274  0.1288 -0.2560
10625W        W24039  14.574  10.599  14.139 -0.2284 -0.3067 -0.0509
10626W        W24040  13.607   1.875  13.692 -0.1439  0.1710 -0.0848
10627W        W24041  10.667   2.933  13.861  0.0375 -0.1242 -0.0734
10628W        W24042   2.892  17.527  15.763  0.1574  0.0842 -0.0434
10629W        W24043   4.779  14.399   0.387 -0.2660  0.1008 -0.1114
10630W        W24044  15.818  12.760   2.693  0.0341 -0.1680  0.0738
10631W        W24045  14.450  17.994  14.641  0.1755  0.0695 -0.0902
10632W        W24046  13.363   9.499  12.133 -0.0331  0.1029 -0.2362
10633W        W24047   5.659  14.012   3.707  0.1554  0.1664 -0.1431
10634W        W24048  16.324  10.142  14.836  0.1716  0.3202 -0.0401
10635W        W24049   9.080   1.463   2.045  0.2386  0.0996 -0.0841
10636W        W24050   0.754  15.086  12.569  0.1395 -0.3696  0.0119
10637W        W24051  11.688  12.982   2.382  0.1212  0.0652  0.0038
10638W        W24052   3.467  10.827  16.072 -0.0834  0.0974  0.0472
10639W        W24053  14.312   9.203  12.632  0.0621 -0.3478  0.0383
10640W        W24054  15.182  13.967   5.896 -0.1198  0.1328  0.0409
10641W        W24055   1.970  16.791   2.307  0.3402  0.0136  0.0187
10642W        W24056  17.456  10.157   0.811 -0.2326  0.4507 -0.0542
10643W        W24057  11.726   1.322   0.151  0.2550  0.1590 -0.1426
10644W        W24058   9.409   8.772  11.238  0.0660  0.0689  0.0223
10645W        W24059   3.600  11.920  10.198  0.0968 -0.0582  0.1015
10646W        W24060  13.389  13.394   2.563 -0.1325  0.1682  0.1419
10647W        W24061  14.391  14.718  13.627  0.2366 -0.1653  0.2570
10648W        W24062   5.347  12.418   2.080 -0.0181 -0.0776 -0.3547
10649W        W24063  13.085  15.496   3.857 -0.0225  0.0487  0.0493
10650W        W24064  14.706   4.968   4.907  0.1069  0.2530  0.1679
10651W        W24065   0.763   9.634  13.886  0.0480  0.1406 -0.0003
10652W        W24066  10.593  11.227  12.571  0.1083  0.3209  0.2634
10653W        W24067   1.875  18.468   4.509  0.0131  0.1011 -0.0040
10654W        W24068   7.390   1.843  14.659  0.1301  0.1520  0.0807
10655W        W24069  10.474   7.376   4.037  0.0976  0.0988  0.1235
10656W        W24070  13.459  13.371  12.065 -0.1853  0.0213 -0.2383
10657W        W24071   5.492  13.028  11.901  0.4886 -0.2730  0.1454
10658W        W24072  16.777  11.110  13.184  0.0533 -0.0501 -0.1354
10659W        W24073   6.283   7.981  10.111 -0.2374  0.2982 -0.2000
10660W        W24074   9.054  10.805  15.528 -0.1706 -0.0071 -0.0282
10661W        W24075  17.324  16.083  11.651 -0.1950  0.1189 -0.0955
10662W        W24076  10.407  13.254   2.734 -0.0144 -0.2150 -0.0509
10663W        W24077  15.460  12.470   4.609  0.1848  0.3260 -0.1351
10664W        W24078  16.506  14.792  14.621  0.0380  0.0111 -0.0744
10665W        W24079   7.178  12.382  11.121  0.0136  0.1947  0.2442
10666W        W24080  14.175   4.267   0.295  0.2713 -0.1056 -0.0176
10667W        W24081  15.160   4.089  10.734  0.2932  0.1373  0.1426
10668W        W24082   6.811  11.663  12.467  0.1567 -0.0736 -0.2351
10669W        W24083  14.686  16.841  13.054 -0.0743  0.5236  0.2585
10670W        W24084  13.266  10.588  14.922 -0.1586  0.2048 -0.0579
10671W        W24085   0.998   9.426  12.884  0.0019  0.0767 -0.2612
10672W        W24086  11.783   0.443   1.258 -0.1274  0.0237  0.3278
10673W        W24087  17.756  17.464   1.528 -0.2069  0.1155  0.1360
10674W        W24088   0.696  10.137   1.436 -0.1293 -0.0178  0.1039
10675W        W24089   8.912   6.177   5.795  0.0719  0.3914 -0.1107
10676W        W24090   4.138  14.515   2.055  0.0587 -0.3218 -0.0505
10677W        W24091   9.690   9.457   0.402 -0.5413  0.1874  0.1326
10678W        W24092  10.317  12.024   0.537  0.0290  0.1548  0.0892
10679W        W24093   3.336   1.620   5.492  0.0035  0.2197 -0.1399
10680W        W24094   2.894   1.202  11.493  0.3320 -0.0630  0.1055
10681W        W24095  10.312  12.173  15.480  0.3786  0.1627  0.3985
10682W        W24096   6.835  12.917   9.248 -0.2036 -0.2480  0.3241
10683W        W24097   5.026   3.737  13.182 -0.2263  0.3811 -0.1026
10684W        W24098  18.467  18.153   4.457  0.1465 -0.0457  0.0186
10685W        W24099   1.612  18.088  15.581  0.2714 -0.0915 -0.0822
10686W        W24100  15.850   7.814   0.982  0.0322  0.1814  0.2248
10687W        W24101   8.241   0.413  12.841  0.2159  0.1483 -0.0740
10688W        W24102   0.990   7.244  12.629 -0.1213 -0.0352 -0.0902
10689W        W24103   8.567   7.440   3.313 -0.2629 -0.1818  0.2500
10690W        W24104   9.548   1.349   1.788 -0.0011 -0.0569  0.2313
10691W        W24105   9.288   7.185  16.050  0.0493  0.2659  0.1427
10692W        W24106  14.938  16.563  12.733 -0.1727  0.2405 -0.1367
10693W        W24107  16.627  13.419   1.152 -0.0148  0.0670  0.2096
10694W        W24108  17.278  10.549  15.548 -0.0106 -0.2270  0.1808
10695W        W24109   5.715   5.656  11.243 -0.0594  0.0434  0.0303
10696W        W24110  17.959   5.972   5.207 -0.1147 -0.4782 -0.1355
10697W        W24111  13.305   7.366   1.261  0.1587  0.0262  0.2263
10698W        W24112  10.063  11.395  16.163 -0.1236 -0.1111  0.1066
10699W        W24113   5.908  10.043  15.758  0.3981 -0.0276  0.0085
10700W        W24114  13.551   1.190   0.870  0.1873  0.2481 -0.0220
10701W        W24115   4.233  14.525   5.408  0.0670  0.1901  0.2813
10702W        W24116   5.216  15.197   3.385 -0.3325 -0.0046 -0.1373
10703W        W24117  17.248  17.608   5.060  0.2439 -0.3629  0.0309
10704W        W24118   7.839  18.156   2.924 -0.1637  0.2424 -0.2090
10705W        W24119  12.960  13.303   0.381  0.2918  0.0551  0.3774
10706W        W24120  14.617   9.491  12.241  0.1740 -0.1432  0.1266
10707W        W24121   3.704  16.808   4.514 -0.0961  0.1826  0.1095
10708W        W24122   1.391   6.202  11.812 -0.1278  0.3078  0.0608
10709W        W24123   0.506  11.911  15.263  0.1410  0.1148 -0.0524
10710W        W24124  17.096  13.470   3.753 -0.3571 -0.2322  0.0959
10711W        W24125  13.335  18.015  15.976 -0.1980 -0.1262  0.1098
10712W        W24126  14.355  14.447  13.131 -0.0056 -0.1110  0.2514
10713W        W24127   7.483  10.437  12.926  0.3340 -0.0589  0.2181
10714W        W24128  13.866  17.513   5.666  0.0221 -0.3181 -0.0509
10715W        W24129   6.802  17.172  12.713  0.0151 -0.1348  0.1265
10716W        W24130   6.622  15.161  11.890 -0.0266  0.1453  0.1930
10717W        W24131  15.353   1.209  15.045  0.0570 -0.3127 -0.4500
10718W        W24132   4.518   9.424   1.218 -0.0627  0.0177 -0.0524
10719W        W24133  13.730   5.983   3.289 -0.1476  0.0840 -0.4360
10720W        W24134   9.858  15.766  14.133 -0.0764 -0.0750  0.2661
10721W        W24135  15.511  18.192   5.004 -0.0401  0.3143 -0.4762
10722W        W24136  15.596   7.596  14.320 -0.1267  0.2787 -0.1556
10723W        W24137   6.733  17.369   1.003  0.3786 -0.1395 -0.1583
10724W        W24138   3.944   9.695   4.499 -0.2534 -0.2572 -0.0120
10725W        W24139   8.567  14.287  14.491  0.4420 -0.0621 -0.0409
10726W        W24140  10.528   2.723   1.897 -0.1190 -0.0759  0.1526
10727W        W24141   6.977   0.765   5.472 -0.0974 -0.1636 -0.0493
10728W        W24142   5.962  10.682  10.608 -0.3583 -0.1064  0.1287
10729W        W24143  16.014  11.964   0.971  0.0348  0.1009  0.0513
10730W        W24144  13.765  13.489   5.012 -0.0763  0.1422  0.1010
10731W        W24145  12.275   3.122   4.803  0.0696  0.2271 -0.2369
10732W        W24146   4.802   8.283  15.196 -0.2003  0.0390  0.2471
10733W        W24147   9.637  14.038  10.463 -0.2358  0.0478  0.1038
10734W        W24148  11.759  16.912  12.223  0.2824  0.2109  0.2634
10735W        W24149   4.654  11.830   5.512 -0.1988  0.0506  0.4789
10736W        W24150   6.670  14.341  15.478 -0.1270  0.3718 -0.1303
10737W        W24151   4.835   9.209  15.570  0.1682 -0.0023 -0.0550
10738W        W24152   8.230   3.790  11.167 -0.2148  0.1677  0.2530
10739W        W24153  10.868  18.203  10.949  0.4112 -0.1645  0.1728
10740W        W24154   5.921  16.238   1.665  0.1491 -0.2666  0.0569
10741W        W24155   6.115   4.451   0.639 -0.1237 -0.0213 -0.0255
10742W        W24156   3.870  10.141   4.668  0.0645  0.1821 -0.0485
10743W        W24157   2.992  17.560  13.406  0.1530  0.1126  0.1144
10744W        W24158  15.416  15.987   2.934 -0.2236 -0.1725  0.1361
10745W        W24159  11.451   6.749   6.171  0.1140  0.1784  0.2474
10746W        W24160   9.328   2.882   2.227  0.1868 -0.2732  0.0078
10747W        W24161  14.199   6.782  15.813 -0.2444  0.1732 -0.2544
10748W        W24162  11.097  17.865   3.988  0.1909  0.4861 -0.1957
10749W        W24163  12.111   4.306   2.618 -0.2366 -0.0739 -0.1317
10750W        W24164  10.887   7.478   2.148  0.2040 -0.2567  0.3961
10751W        W24165  15.779   6.783  11.813 -0.0561 -0.0070  0.1888
10752W        W24166  18.041   7.074   0.598  0.4239  0.0249 -0.1080
10753W        W24167  12.447  17.047   1.773  0.1439  0.1468 -0.2419
10754W        W24168  10.459   6.890   6.412 -0.1728  0.3563 -0.1490
10755W        W24169   0.709   6.369  10.944  0.1669 -0.2753  0.0205
10756W        W24170  17.129   5.854   3.507  0.0738  0.0009 -0.0063
10757W        W24171  17.500  16.940   0.767 -0.2692  0.0563  0.2225
10758W        W24172   7.925  13.438   0.045  0.1090 -0.1644 -0.2255
10759W        W24173  15.540   0.170   4.988  0.0569  0.0791 -0.0131
10760W        W24174  17.017  11.539   5.873 -0.3348 -0.0430 -0.3387
10761W        W24175  18.477   9.583  10.893  0.2637 -0.0268 -0.1151
10762W        W24176  10.430  16.650   5.436  0.0229  0.0803 -0.2675
10763W        W24177   3.002  17.736   1.760  0.1236 -0.2252  0.1882
10764W        W24178  14.819   8.279   6.449 -0.2141 -0.0134 -0.1829
10765W        W24179   5.572  12.769  15.960  0.0967 -0.0526 -0.3455
10766W        W24180   8.431  15.235   3.541  0.0828 -0.1406 -0.0970
10767W        W24181  18.387   3.185   2.656  0.3333  0.1907  0.3217
10768W        W24182   4.840   2.129   2.287 -0.0847 -0.0420  0.0867
10769W        W24183   0.202   3.422  16.224  0.2010 -0.2457 -0.2457
10770W        W24184   9.567  10.645   2.019  0.0510 -0.2991  0.2297
10771W        W24185  16.499  16.372  14.598  0.1741  0.2540 -0.0975
10772W        W24186   1.609  17.442  10.775 -0.2095  0.0251  0.0690
10773W        W24187  13.334  10.388  13.714 -0.0869 -0.2429  0.3132
10774W        W24188   5.791  10.645   2.434  0.1771 -0.1156  0.0959
10775W        W24189   5.875  10.714   5.313 -0.0850  0.1994 -0.0418
10776W        W24190   5.106   9.592   2.990  0.0657 -0.3794  0.0129
10777W        W24191   8.871   1.913   5.224  0.5956 -0.3186  0.0281
10778W        W24192  13.106   6.643  12.452  0.0992  0.0342  0.4434
10779W        W24193   1.213   5.104  12.474  0.0451  0.1823 -0.0068
10780W        W24194   9.322  15.553   3.559  0.4433  0.2252  0.0614
10781W        W24195   1.118   4.140   5.386 -0.1654  0.0676  0.1188
10782W        W24196  11.838  18.435  15.549  0.1466  0.0860  0.1882
10783W        W24197   9.157  11.111  12.746 -0.0889  0.1556  0.2389
10784W        W24198  12.062  10.680   4.059  0.2240  0.2538  0.1142
10785W        W24199  16.248  15.500  14.275  0.0163  0.0042  0.0129
10786W        W24200  14.551  11.872   0.735 -0.0638  0.2003 -0.0787
10787W        W24201   1.721   6.492  13.069  0.3699 -0.0704  0.0900
10788W        W24202  17.498   4.209   0.559 -0.3498  0.1036 -0.0911
10789W        W24203   7.559  13.547  12.564  0.4667  0.2396  0.2893
10790W        W24204   9.177  13.922  12.401 -0.1259  0.1559 -0.5534
10791W        W24205  15.246  14.271  15.930 -0.2714  0.0800 -0.2481
10792W        W24206  13.069   4.405   0.298  0.0955  0.2088  0.0652
10793W        W24207   7.420   9.114   0.993  0.2838  0.1811 -0.0861
10794W        W24208   4.332  16.022   5.087  0.0041  0.0178  0.2610
10795W        W24209   7.411  17.637   1.936  0.0143  0.2354 -0.1351
10796W        W24210  18.180   7.893   2.636 -0.0875 -0.1280 -0.1714
10797W        W24211   7.206  17.366  14.700  0.0362  0.1863  0.0089
10798W        W24212   5.183  11.092   3.598 -0.1312  0.1655  0.1183
10799W        W24213  18.364   2.132   2.095  0.0275  0.3921  0.1806
10800W        W24214   1.863   2.738   1.221  0.0022  0.0244 -0.1241
10801W        W24215  16.407   4.266  13.167  0.3835 -0.1257  0.0458
10802W        W24216   0.744  11.283   1.699 -0.1020 -0.0028  0.0554
10803W        W24217   6.730  14.126  14.974  0.1481 -0.1264  0.0969
10804W        W24218   7.946   8.845  14.335  0.0588  0.1184 -0.3224
10805W        W24219   5.647   4.737  16.021 -0.0937  0.1346  0.1138
10806W        W24220  12.175  16.397   2.504 -0.0421  0.1817  0.0547
10807W        W24221   0.550   2.033   1.701  0.0933 -0.0948 -0.1287
10808W        W24222   0.740  15.753  15.962  0.0107  0.1215  0.1784
10809W        W24223   1.802  15.580   1.495 -0.1079  0.1444  0.0732
10810W        W24224  17.599  15.528   2.712  0.0919 -0.1619 -0.1275
10811W        W24225   7.391  10.156   6.189 -0.2953 -0.1776  0.0671
10812W        W24226  16.041  14.201  11.737 -0.1080  0.0588 -0.0573
10813W        W24227   5.568  14.982   0.410 -0.1293 -0.0979 -0.2747
10814W        W24228  15.551  12.796  12.700 -0.2404 -0.0968  0.0343
10815W        W24229   1.177   6.212   1.916  0.1333 -0.1169  0.0267
10816W        W24230  18.212   5.225  10.749 -0.4484 -0.2354  0.2138
10817W        W24231   6.133   6.417  13.291 -0.1856 -0.5987  0.2225
10818W        W24232   0.534  10.972   3.024 -0.0686  0.1113 -0.1241
10819W        W24233   8.616   9.874  15.075  0.1797 -0.2717 -0.3302
10820W        W24234  18.077  16.456  13.762 -0.1355  0.0712 -0.0893
10821W        W24235  10.296  18.311  12.848 -0.2025 -0.3858  0.0719
10822W        W24236   1.855   6.035   2.713 -0.1784 -0.2882 -0.1706
10823W        W24237   9.009  15.555   2.075  0.1310  0.2300 -0.0795
10824W        W24238   7.934   9.773   4.606  0.0028 -0.0025 -0.0258
10825W        W24239  11.389   8.820   1.304  0.0850  0.0405 -0.1176
10826W        W24240   6.222  15.808  13.809  0.0200 -0.0819  0.0908
10827W        W24241   8.784  16.778  15.668  0.0071  0.0421 -0.3053
10828W        W24242  12.583  18.351   1.116  0.0199  0.3411  0.2571
10829W        W24243  17.418  18.427   4.409 -0.1875 -0.0924 -0.3015
10830W        W24244   9.796  15.250   0.016 -0.1992  0.2454 -0.0118
10831W        W24245   3.243  16.966  16.084  0.0939  0.1491  0.4053
10832W        W24246   6.479  13.007  11.463  0.1259 -0.3755 -0.1981
10833W        W24247   5.245  18.252   4.962  0.3362  0.3976 -0.2446
10834W        W24248  13.938   4.929  15.569 -0.2102  0.1844 -0.0656
10835W        W24249   9.262   7.250   2.038  0.0806  0.0624 -0.1375
10836W        W24250   4.035   1.842   0.921 -0.0885  0.2162  0.2473
10837W        W24251  16.774   8.267   0.689  0.1159 -0.4386 -0.0489
10838W        W24252  15.941  17.952   9.817 -0.1087  0.1127 -0.0489
10839W        W24253  17.984   6.377   0.003 -0.0464  0.2727 -0.0259
10840W        W24254   6.928   2.127   4.085  0.1804 -0.1410 -0.0349
10841W        W24255   1.138  11.287  11.135 -0.0898  0.0840 -0.1280
10842W        W24256   0.308   0.611  11.982  0.4518  0.0846 -0.0573
10843W        W24257   8.335   8.518   4.309 -0.1387  0.1989 -0.2723
10844W        W24258   4.502  10.231   2.653  0.2252  0.4092  0.3238
10845W        W24259   2.553  10.838   0.651  0.2393 -0.1700 -0.0330
10846W        W24260   3.499  14.045   4.302  0.1350  0.2280 -0.2162
10847W        W24261   3.722   7.212   6.273  0.0137 -0.0359 -0.7646
10848W        W24262  12.561   7.061   2.960  0.0279  0.1036  0.2236
10849W        W24263  14.085   3.345  14.383  0.0248  0.0364  0.2925
10850W        W24264  17.291  10.271   4.629 -0.1842 -0.3518 -0.1075
10851W        W24265   7.072  18.077  12.605  0.2520  0.0749  0.0031
10852W        W24266   4.794   3.111  11.134  0.1913  0.1366  0.1690
10853W        W24267   1.088   2.251  15.954  0.2654  0.0562  0.0154
10854W        W24268  13.437   5.592   0.976  0.0178  0.0153 -0.2275
10855W        W24269   4.630  18.451  15.786 -0.0424 -0.0431 -0.2157
10856W        W24270   5.588   7.571   1.964  0.3296  0.2094 -0.0734
10857W        W24271   4.063  14.319  11.652  0.0258 -0.0721 -0.0404
10858W        W24272   4.800   4.451   5.433  0.1592  0.3222  0.1428
10859W        W24273  14.667  16.206   2.164  0.0075 -0.1953 -0.1632
10860W        W24274  10.986  14.127   3.151 -0.1601 -0.2336 -0.1395
10861W        W24275  11.867  13.842  11.017 -0.0895 -0.1077  0.1566
10862W        W24276   3.764   9.392  12.189 -0.0992  0.1391 -0.0249
10863W        W24277   8.444  11.992  11.231  0.2542  0.2270 -0.2403
10864W        W24278   9.328   8.968  14.154  0.1321  0.1136  0.1904
10865W        W24279   9.307  12.480   3.431  0.0255 -0.0833 -0.0228
10866W        W24280  10.877   0.389   5.794  0.1846 -0.1668  0.1587
10867W        W24281  13.300  15.245  10.926  0.3382 -0.1637  0.2298
10868W        W24282   7.126  13.895  14.507  0.2184 -0.0707  0.0379
10869W        W24283   0.392  10.755  12.237 -0.0792 -0.2309  0.1020
10870W        W24284  14.777  15.757  15.782  0.1452  0.0867 -0.4831
10871W        W24285   6.321  16.947   4.641  0.0124 -0.0626 -0.1604
10872W        W24286   9.791  12.004   4.939 -0.0472 -0.2498  0.0793
10873W        W24287   6.008   1.749   9.878  0.0017 -0.0190 -0.0560
10874W        W24288   4.270  12.899  10.403  0.1171 -0.3118 -0.1797
10875W        W24289  18.468   0.671  10.011  0.1925  0.0423 -0.3754
10876W        W24290   7.537  10.217  16.184 -0.1469 -0.2733 -0.0760
10877W        W24291  11.122  11.072   2.638 -0.0867  0.0306  0.1261
10878W        W24292   4.098   2.717   5.627 -0.0751 -0.0722 -0.5487
10879W        W24293  15.361   1.488  11.608  0.0403 -0.0434 -0.1166
10880W        W24294  15.181   4.466   4.311 -0.0484  0.2817  0.0324
10881W        W24295   5.462   7.448   1.023 -0.0535  0.2079  0.1942
10882W        W24296  11.938   6.789   5.571 -0.4460  0.1712  0.0601
10883W        W24297  13.181   1.969  12.925 -0.1297  0.1823 -0.0861
10884W        W24298   4.171   4.817  13.139  0.0104  0.1303 -0.0724
10885W        W24299   3.967  10.281  11.999  0.1823  0.0820  0.1905
10886W        W24300   9.499  15.019  11.950 -0.1977  0.1794 -0.1629
10887W        W24301   8.511   6.763  11.690  0.0164 -0.3360 -0.0705
10888W        W24302  15.605  13.897  16.123 -0.2495 -0.1498  0.2173
10889W        W24303  18.284   4.511   5.144 -0.0920 -0.0574  0.2183
10890W        W24304   3.971   7.011   1.963  0.1076 -0.0888 -0.5384
10891W        W24305  12.247   1.399  12.548  0.4091  0.2730  0.2083
10892W        W24306  12.590   1.398   0.575  0.0006  0.2876  0.0432
10893W        W24307   5.205  14.238   0.626  0.0882 -0.0523 -0.1317
10894W        W24308  18.293   9.110  15.840  0.0016  0.0619 -0.2467
10895W        W24309  17.733  16.931   5.496 -0.1691  0.1684 -0.0509
10896W        W24310   6.131  11.842   3.602  0.1694  0.2876 -0.1208
10897W        W24311  17.699  12.911   0.002 -0.2656 -0.1129  0.1141
10898W        W24312  12.400  17.866   0.838  0.1554 -0.0234  0.1285
10899W        W24313   6.648   0.181   0.722  0.0421 -0.0573  0.1023
10900W        W24314  15.100  11.843   3.803 -0.3295  0.1337  0.1252
10901W        W24315  15.440  11.559   0.848  0.1675  0.0143  0.2048
10902W        W24316  10.481   7.405   5.467  0.3085  0.0196  0.1943
10903W        W24317  16.474  17.187  10.491 -0.0005  0.1568  0.0700
10904W        W24318   8.066   2.209   3.792  0.0735  0.0184  0.0607
10905W        W24319   4.543  13.954  11.051  0.0141 -0.2078 -0.0120
10906W        W24320   0.875   8.091   4.432  0.3105 -0.2084 -0.1236
10907W        W24321   5.081  10.046   3.460 -0.1960 -0.2147  0.3809
10908W        W24322   7.578   5.002   4.404 -0.1584 -0.1068 -0.0628
10909W        W24323   2.550  10.087   5.255 -0.3764  0.3299 -0.1499
10910W        W24324   6.451  13.857   2.804 -0.1098  0.0994  0.0728
10911W        W24325  16.470  18.515   3.847 -0.1293  0.1804  0.1652
10912W        W24326  16.677   2.750   4.625 -0.3154  0.2264  0.0607
10913W        W24327   6.055   3.185   1.469  0.2304  0.3997 -0.1970
10914W        W24328  13.489   6.660   3.341  0.0110 -0.4272 -0.0557
10915W        W24329  16.672  15.968  13.680  0.1591  0.0044  0.1054
10916W        W24330  10.914   3.436   1.363 -0.2652 -0.1477  0.3130
10917W        W24331   8.956   7.902   2.615 -0.1677 -0.1480  0.0726
10918W        W24332  10.132  13.129   4.724 -0.1459 -0.1693 -0.0248
10919W        W24333  13.606  16.121   2.090  0.1217 -0.2160  0.0313
10920W        W24334  17.670  12.635  12.957  0.1329  0.1536 -0.0056
10921W        W24335   4.044  11.417   1.234  0.0766 -0.1725 -0.0999
10922W        W24336   3.369   3.718   4.723 -0.0511 -0.1926 -0.0425
10923W        W24337  14.420  14.022   2.561 -0.0249 -0.3265  0.1121
10924W        W24338  15.883  10.517  12.272  0.3047 -0.2784 -0.2767
10925W        W24339   1.961   1.898   1.683  0.2337 -0.0121 -0.0483
10926W        W24340   5.416  12.044  13.189 -0.0828  0.2868 -0.1741
10927W        W24341   9.947   0.885   2.671 -0.1960 -0.1259  0.0243
10928W        W24342  15.219   2.239   2.479  0.0945  0.0509  0.0123
10929W        W24343   2.046   7.286  12.651 -0.0930 -0.0868  0.3332
10930W        W24344  16.319  17.126  13.180 -0.1683  0.2967 -0.0662
10931W        W24345  10.715   1.962   4.976  0.0281 -0.1637 -0.1401
10932W        W24346   2.576  15.554  14.090  0.1419 -0.0176 -0.1479
10933W        W24347   2.463  11.858  13.954 -0.1866 -0.2444 -0.2637
10934W        W24348  11.382   9.789  11.517  0.3311  0.1053 -0.2217
10935W        W24349  10.196  15.705  12.332 -0.2838 -0.1347 -0.1322
10936W        W24350   2.893   0.770  13.094  0.0134  0.1490  0.1608
10937W        W24351  13.848   0.894  15.419 -0.1001  0.0340 -0.2448
10938W        W24352  10.722   8.996  15.768 -0.0968 -0.2078  0.0005
10939W        W24353   8.268  15.930   5.194 -0.1150  0.0031 -0.0008
10940W        W24354  14.873  12.684  14.374  0.3349 -0.2051 -0.2529
10941W        W24355   3.760  16.298  15.943  0.0787  0.3065 -0.2257
10942W        W24356   0.087  13.220  13.466 -0.1254 -0.0032 -0.0366
10943W        W24357  14.814   4.098   3.376  0.0115 -0.0001 -0.2880
10944W        W24358   5.416  11.958  15.155 -0.0059  0.1855 -0.1291
10945W        W24359  13.344  13.505   1.461 -0.0973 -0.3495 -0.1619
10946W        W24360  17.124   9.859   4.949  0.2138  0.3580 -0.2223
10947W        W24361  10.228   1.451  14.855 -0.0577 -0.0674  0.0635
10948W        W24362  11.876   3.732  11.151 -0.0471  0.1945 -0.1342
10949W        W24363  15.021  10.521   6.031 -0.2598  0.1692 -0.0856
10950W        W24364   7.447  13.336  11.043 -0.1366  0.1144  0.0075
10951W        W24365   0.328   8.052  12.855  0.1050 -0.1568  0.2831
10952W        W24366   7.895  15.161  10.909  0.0479 -0.1722  0.2465
10953W        W24367   4.147   9.396  12.855  0.1662  0.1463  0.2044
10954W        W24368  13.438  14.783   0.425 -0.0564  0.2683 -0.2802
10955W        W24369  14.628   8.079  15.380  0.0399  0.1898 -0.2236
10956W        W24370  15.160   7.779  12.528 -0.2279 -0.0103 -0.2694
10957W        W24371   3.728   4.545  13.186  0.1875 -0.2181 -0.0073
10958W        W24372  13.497  10.247  11.496 -0.1990 -0.0503 -0.2078
10959W        W24373  15.436   7.486   0.340 -0.2036  0.0181  0.0733
10960W        W24374   0.319  11.487  10.391  0.0305  0.0671  0.0661
10961W        W24375   9.059   4.985  12.496 -0.5067 -0.0997 -0.1145
10962W        W24376   4.764  13.618   5.789  0.2605 -0.0058 -0.1376
10963W        W24377   1.012  14.741   5.520  0.2887 -0.0435  0.0775
10964W        W24378   3.307  10.362  12.515 -0.2032  0.1142 -0.2279
10965W        W24379   1.657  16.674  12.640  0.3323  0.0148  0.1034
10966W        W24380   9.394   6.527  11.318  0.1034 -0.0929  0.4589
10967W        W24381   3.050   8.465  14.670 -0.0227  0.2527 -0.2211
10968W        W24382   3.430  11.089   2.824  0.1184 -0.1088  0.3301
10969W        W24383   3.525   6.643   1.695 -0.3081  0.0334  0.0574
10970W        W24384   2.305   0.986   0.061  0.0005 -0.0052 -0.5031
10971W        W24385   8.384   6.927   4.918 -0.1853 -0.2050  0.0062
10972W        W24386  11.476   8.443   2.748  0.1920 -0.2214  0.2027
10973W        W24387   1.028   1.431  14.086  0.3928 -0.1703 -0.0850
10974W        W24388   9.787   2.291   4.835 -0.2194  0.0563 -0.4445
10975W        W24389   9.819   6.111   5.693 -0.1329 -0.2793  0.0361
10976W        W24390  15.786   1.060  10.952 -0.2114 -0.0949 -0.0863
10977W        W24391  11.626  14.887   9.739 -0.1867  0.1140 -0.1618
10978W        W24392   8.074  13.966   4.877 -0.0802 -0.0431  0.2321
10979W        W24393  10.449  11.642  12.175  0.1143  0.0132  0.0992
10980W        W24394  13.938  11.192  13.014 -0.1001  0.3655 -0.0220
10981W        W24395  14.976  10.785  14.489  0.0549  0.1106  0.0992
10982W        W24396   7.183  10.806   5.228  0.1610  0.0508 -0.1172
10983W        W24397  16.855   6.967  12.148 -0.2900 -0.0020  0.1619
10984W        W24398  16.206   3.068   2.780 -0.0223 -0.1950  0.2250
10985W        W24399  10.481   6.845   2.757  0.0768 -0.1340  0.3639
10986W        W24400   6.869   4.318   1.759 -0.0102 -0.1109  0.3607
10987W        W24401  15.321  12.392  12.322  0.1562 -0.0073  0.1663
10988W        W24402   8.955   2.641  15.681 -0.5134  0.3628  0.0807
10989W        W24403  12.441  11.958   1.746 -0.0311 -0.1805 -0.0575
10990W        W24404  13.850  12.817  11.731 -0.0567 -0.0924 -0.0611
10991W        W24405   2.014   1.279  11.846  0.3524  0.0243  0.0182
10992W        W24406  10.508  17.413  16.142 -0.1512  0.1523 -0.2162
10993W        W24407  18.467  12.525  10.975 -0.1534 -0.1779  0.1568
10994W        W24408   9.810   5.231  12.998 -0.3815 -0.0421 -0.3194
10995W        W24409   8.236   3.641  12.703 -0.1954 -0.3243  0.0316
10996W        W24410   4.174  14.592   4.851 -0.1178  0.1951 -0.1393
10997W        W24411   3.964  12.135  13.815  0.0671  0.0990  0.0543
10998W        W24412   6.868  12.236  13.445  0.1232 -0.1629  0.0238
10999W        W24413  12.202  10.099   1.686 -0.0750 -0.0471  0.1639
11000W        W24414  17.273  10.082  10.573 -0.0389  0.3172 -0.1812
11001W        W24415  14.759   1.501   2.212 -0.1645  0.3869 -0.1581
11002W        W24416  11.329  13.691   0.716  0.0259 -0.1200 -0.1633
11003W        W24417   5.631   3.276   2.370 -0.1438 -0.2676  0.1236
11004W        W24418   6.661  18.063  14.122  0.3861 -0.0011  0.1719
11005W        W24419   5.854   7.579   0.741 -0.1028 -0.1652 -0.0516
11006W        W24420  12.480   5.987  12.492 -0.0393 -0.4013 -0.0140
11007W        W24421   0.297  13.309   2.578 -0.1335 -0.1568  0.1683
11008W        W24422   1.508   4.218   1.759 -0.0374  0.2071 -0.1867
11009W        W24423   2.609   5.889  16.230 -0.1427 -0.1506 -0.0505
11010W        W24424  17.061  15.925  11.139 -0.0989  0.1974  0.3920
11011W        W24425  12.208   4.110  14.365  0.0124  0.2664  0.2526
11012W        W24426   1.614  11.791  13.068  0.0335  0.0529  0.1537
11013W        W24427  18.098   3.469   2.996 -0.1296 -0.3350 -0.1061
11014W        W24428   2.197   9.339  14.583  0.0586 -0.0983  0.1297
11015W        W24429  13.007  17.193   6.207 -0.2774 -0.2061 -0.0234
11016W        W24430   2.246   6.581  14.243  0.0563  0.2194  0.0925
11017W        W24431  10.737   3.159  14.349  0.0844  0.0960  0.2117
11018W        W24432  17.453  11.384  13.826 -0.1947 -0.1550  0.1193
11019W        W24433   6.493  16.019  11.624  0.2727  0.1359  0.2329
11020W        W24434  18.107  16.768   2.107 -0.1379  0.0824  0.1757
11021W        W24435   4.508  15.178   0.190 -0.2055  0.3802 -0.0690
11022W        W24436   3.398  13.063   2.274 -0.3449  0.0543  0.3260
11023W        W24437  13.568  14.084  10.990 -0.0501 -0.1545 -0.0100
11024W        W24438   4.022  16.315  13.257  0.1688 -0.1988  0.0191
11025W        W24439  11.486  12.958   1.917 -0.5116  0.1219  0.0246
11026W        W24440  16.525   6.954   2.898 -0.0566 -0.3149 -0.1617
11027W        W24441   6.241  12.738  16.157  0.0445 -0.3905  0.0964
11028W        W24442  16.594   1.201   0.849 -0.3317  0.3077 -0.1979
11029W        W24443   3.603  18.424  12.095 -0.0551  0.1851 -0.0253
11030W        W24444  11.547  10.618   4.881  0.0813  0.1347  0.0776
11031W        W24445  11.719  11.492   5.970 -0.0039 -0.0266 -0.1709
11032W        W24446  14.755  12.633   4.307 -0.1697  0.2307 -0.1475
11033W        W24447   8.144   4.808   5.226  0.4482  0.2024  0.1682
11034W        W24448  13.193   5.418  11.488 -0.0356  0.1651 -0.3195
11035W        W24449   6.913  11.097   3.149 -0.1513 -0.0318 -0.1101
11036W        W24450   1.328   6.830   3.792  0.3783  0.0797 -0.1680
11037W        W24451  14.473  12.921   0.711 -0.0162 -0.0696  0.0353
11038W        W24452  15.453  13.192  13.890  0.1003  0.0802 -0.0343
11039W        W24453  15.874   7.477  11.972  0.2504  0.2430  0.1738
11040W        W24454  10.709  17.619  15.749  0.0587 -0.1949 -0.0140
11041W        W24455  11.854  11.265  15.464 -0.0478  0.0141 -0.0592
11042W        W24456   5.660   0.050  10.543  0.2026 -0.0687  0.1659
11043W        W24457   5.188   2.537  11.349  0.1533  0.0110 -0.0849
11044W        W24458   6.314   3.367  13.568 -0.0074  0.2900  0.2189
11045W        W24459   3.886   2.039  14.945  0.2119  0.1310  0.0413
11046W        W24460   1.547   7.408  14.134  0.2118 -0.1540  0.0551
11047W        W24461   1.499   2.538  10.307  0.1303  0.1061  0.0320
11048W        W24462  14.625   8.239   0.344 -0.2028 -0.0722  0.2971
11049W        W24463   8.701  11.267   3.439  0.0238  0.0085  0.2874
11050W        W24464   8.651   9.745   2.986 -0.0545  0.0553  0.1890
11051W        W24465   2.216  10.339  14.486 -0.0455 -0.0153 -0.0639
11052W        W24466   4.961   6.974  11.112 -0.1591 -0.1358  0.0824
11053W        W24467  17.687   9.575   3.899 -0.1125 -0.1406 -0.1626
11054W        W24468  16.612  15.025  13.419  0.0451  0.2337  0.2743
11055W        W24469   0.453   7.436  12.419  0.0446  0.2900  0.1081
11056W        W24470   1.883   6.446  11.080 -0.4204 -0.0519 -0.1958
11057W        W24471  17.086  14.180   2.406 -0.0252 -0.1354 -0.3082
11058W        W24472  14.075   5.547  16.123 -0.3907  0.3917 -0.0779
11059W        W24473   5.343  12.459  14.845 -0.2071  0.1753  0.0466
11060W        W24474  14.797   2.750  13.425 -0.0264 -0.0293  0.2738
11061W        W24475   4.197   8.257  15.778  0.2581 -0.1328  0.2686
11062W        W24476  16.468   3.202  13.073 -0.2298 -0.2167 -0.2958
11063W        W24477   7.161   4.354   1.254  0.2508  0.2212 -0.0018
11064W        W24478   7.663  10.611  15.393 -0.1361  0.3402 -0.3052
11065W        W24479   5.143   0.566  14.067 -0.0325 -0.2526  0.0317
11066W        W24480   3.038   1.878   1.663 -0.3630  0.0561  0.1949
11067W        W24481   4.721  13.998   3.436 -0.0071  0.1788  0.3369
11068W        W24482  16.662   9.994   5.306  0.3222 -0.3220 -0.1545
11069W        W24483   0.396  14.200   9.560 -0.1059  0.1414 -0.0999
11070W        W24484   8.456   2.593   2.499 -0.2084 -0.0576 -0.1236
11071W        W24485  10.576  15.645  13.514 -0.0372  0.0015 -0.0534
11072W        W24486   2.550  17.749   4.547  0.2342  0.0204  0.0149
11073W        W24487  14.466   0.763   0.245  0.1425  0.1202  0.1238
11074W        W24488   3.336  18.456  11.702  0.0171  0.3146  0.0056
11075W        W24489  12.903  17.587   2.548 -0.7553  0.1612  0.0920
11076W        W24490   5.550   6.706   1.853 -0.0987 -0.0175 -0.0272
11077W        W24491   5.450   3.362   3.719  0.0895 -0.1111 -0.2231
11078W        W24492   5.289  17.323  11.228  0.2661  0.2509  0.1372
11079W        W24493   7.182   3.256   5.371  0.0679 -0.3539  0.0700
11080W        W24494   4.036  18.273   1.963  0.0368  0.0233  0.0866
11081W        W24495   4.128  11.630  10.653  0.4248  0.0378 -0.0744
11082W        W24496   8.044   3.996   1.153 -0.3002 -0.2210 -0.2135
11083W        W24497   2.764   3.297  13.735 -0.2707  0.0084 -0.1422
11084W        W24498   3.138  17.584  15.308 -0.1650  0.2817  0.0000
11085W        W24499  14.017  17.833   2.424  0.0385  0.3172  0.2199
11086W        W24500  10.471   9.368  15.191  0.2169  0.0657 -0.2472
11087W        W24501   4.333   2.313   6.030 -0.2228 -0.1564 -0.0190
11088W        W24502   7.262   2.101   5.433  0.0342 -0.0912 -0.3619
11089W        W24503   1.907   9.806   3.803  0.2887  0.0561  0.2566
11090W        W24504  16.226  12.603   5.208  0.1714 -0.1989  0.0294
11091W        W24505  18.497  15.205  15.799  0.0232 -0.1575  0.1051
11092W        W24506   7.411  12.266   3.907 -0.1627 -0.0229  0.0147
11093W        W24507  17.854   1.860   5.513 -0.0612 -0.0843 -0.0955
11094W        W24508  16.351  14.929  15.522 -0.0894  0.0034 -0.2842
11095W        W24509   4.743  10.102   5.075 -0.0269 -0.0500  0.1092
11096W        W24510   6.442   3.551   1.347 -0.1543 -0.2725  0.0284
11097W        W24511   8.277  14.795  10.470  0.0011 -0.0666 -0.0213
11098W        W24512  15.652  17.958   1.898  0.0576  0.0056  0.0416
11099W        W24513  15.451   6.958   0.223  0.3753  0.2251 -0.1710
11100W        W24514  17.961   7.197  15.464 -0.0940 -0.0363 -0.0679
11101W        W24515   6.850   1.924  14.480  0.0156  0.2415 -0.0830
11102W        W24516  17.740   7.686  11.713  0.0023  0.1339  0.1435
11103W        W24517  13.411  10.645  10.231  0.0750 -0.0228  0.0638
11104W        W24518   8.535  11.748   0.750 -0.1737 -0.0792  0.1803
11105W        W24519   9.378  13.496   0.267 -0.1861  0.3688  0.2790
11106W        W24520  14.709   8.110  14.890  0.0323  0.2069 -0.4256
11107W        W24521   6.934  11.262   0.047 -0.1851 -0.5779  0.0112
11108W        W24522  10.713   9.916  15.251  0.1293 -0.0697 -0.1978
11109W        W24523   5.580   9.073  12.175  0.0207 -0.0602  0.1997
11110W        W24524  12.785   7.342  14.724 -0.0122 -0.0641  0.2650
11111W        W24525  15.700   0.358   4.024 -0.1427 -0.1467 -0.0590
11112W        W24526   7.434   6.566   6.116 -0.3002 -0.2325  0.0490
11113W        W24527  18.212  18.474   2.996  0.0404  0.2195 -0.0105
11114W        W24528  11.228   0.092  14.771  0.2046  0.3046  0.1318
11115W        W24529  13.260   3.214   3.228 -0.2258 -0.0006  0.3384
11116W        W24530  16.345   3.648  15.031 -0.2522 -0.1774  0.0667
11117W        W24531   5.483  16.199   1.820  0.3624 -0.1113 -0.1310
11118W        W24532   5.749  13.700  10.320  0.0955 -0.1937 -0.0145
11119W        W24533   5.697   1.733   4.723 -0.1308 -0.2245 -0.0279
11120W        W24534   3.278  13.773   5.788 -0.1316  0.1506 -0.2437
11121W        W24535  16.671   9.558  11.759 -0.0688 -0.1429 -0.1542
11122W        W24536  14.114   7.720   4.959  0.3693  0.2707 -0.3000
11123W        W24537   9.053  15.352   4.975 -0.1892 -0.0642 -0.0064
11124W        W24538  10.672  16.070  13.133  0.0490  0.3331 -0.3792
11125W        W24539   6.807   3.669   5.439 -0.1054 -0.2484  0.0389
11126W        W24540   3.344  13.177   3.165 -0.1280 -0.0839 -0.2313
11127W        W24541   3.945   1.748   3.660  0.1180 -0.0575 -0.0873
11128W        W24542  10.900   7.529  15.032 -0.2929 -0.0790 -0.1816
11129W        W24543   2.372  10.898   5.476 -0.0386 -0.0235 -0.2938
11130W        W24544   2.180   8.541  11.607 -0.0382 -0.1997 -0.2812
11131W        W24545   0.021  18.202  16.126 -0.1129 -0.1245  0.0237
11132W        W24546   7.755   8.502   2.046  0.1868  0.3017 -0.1296
11133W        W24547   3.106  14.693  12.466 -0.1067 -0.4296 -0.2572
11134W        W24548   2.198  16.969   2.831  0.0103 -0.0622 -0.0219
11135W        W24549  17.531   1.645  13.528  0.3755 -0.3474  0.0044
11136W        W24550  10.950   9.220  12.489 -0.0392  0.2042 -0.2262
11137W        W24551  10.106  12.462  13.893 -0.1775 -0.0155 -0.3588
11138W        W24552   2.608   8.933   3.998  0.1951  0.0996  0.0440
11139W        W24553  18.116   1.650  12.594 -0.1250 -0.0762  0.0194
11140W        W24554  14.448   9.726   9.911  0.2742 -0.0563  0.2077
11141W        W24555   7.087   0.041  15.991 -0.0372  0.4234  0.2725
11142W        W24556  11.587  15.224  12.934  0.2906 -0.0311 -0.0828
11143W        W24557   0.209   4.458   4.340 -0.0721  0.0749  0.2738
11144W        W24558  16.016  10.536   3.158 -0.0240  0.1021  0.0079
11145W        W24559  12.241  15.334   5.354 -0.0843 -0.3112 -0.0395
11146W        W24560   5.286   5.047  10.592 -0.2061  0.0013  0.0927
11147W        W24561  13.832   4.958  11.989 -0.1959 -0.0466 -0.0223
11148W        W24562  15.824  13.051   3.912 -0.3168 -0.0609 -0.0800
11149W        W24563  11.361   3.285  15.659  0.1005  0.2318 -0.0787
11150W        W24564  14.103   9.150  10.834  0.0135  0.0861  0.1743
11151W        W24565   9.321  15.119  13.134  0.2432  0.0105 -0.0863
11152W        W24566   2.898  11.256  15.842 -0.0779  0.0162  0.1179
11153W        W24567  10.322  12.694  15.423  0.0959  0.1632 -0.0263
11154W        W24568   0.068   7.026   2.693  0.0596 -0.1971  0.1273
11155W        W24569  14.841   4.727  13.455 -0.0924  0.0058  0.0117
11156W        W24570  17.646  11.943  11.818  0.0089  0.2648  0.1619
11157W        W24571  10.516   2.419   1.388  0.1898  0.1265 -0.0215
11158W        W24572  14.030  12.364  14.262 -0.5262 -0.0287 -0.0121
11159W        W24573   9.645  13.913  15.366  0.1802  0.3002  0.1226
11160W        W24574  11.485  17.273  15.224 -0.2268  0.2481 -0.0462
11161W        W24575   2.007   7.384   3.178  0.1615  0.1326 -0.2593
11162W        W24576   9.533  10.896   1.129  0.1584  0.1695  0.0528
11163W        W24577  15.934  16.329  13.980  0.1086 -0.0737 -0.2482
11164W        W24578   8.672  12.927   5.025 -0.1058  0.2032  0.0836
11165W        W24579  15.593   0.813  15.815  0.0473  0.2004 -0.1556
11166W        W24580   6.812   7.741   0.480  0.2229  0.2396  0.2531
11167W        W24581  13.221   8.277  16.038 -0.1006 -0.1041  0.1165
11168W        W24582   1.595   0.439  15.400 -0.0691  0.0076  0.0241
11169W        W24583  12.641   0.296   2.213 -0.0804  0.0658  0.4056
11170W        W24584   3.820   6.092   3.044  0.0850  0.0473  0.0433
11171W        W24585   0.637  17.936  15.191 -0.1808  0.1731 -0.0688
11172W        W24586   0.478   2.754  15.493 -0.1975 -0.0164  0.0805
11173W        W24587   9.541   9.068   1.427  0.0972 -0.1293 -0.0399
11174W        W24588   7.393  18.424  12.767  0.0861  0.0210 -0.0572
11175W        W24589   5.889   4.550   2.693  0.1499  0.0276  0.0853
11176W        W24590  16.595   3.399  15.393  0.1341 -0.0215 -0.2988
11177W        W24591   5.539   7.542  15.966 -0.0947  0.3490 -0.1035
11178W        W24592   6.368  17.392   2.950 -0.2656 -0.0639  0.3654
11179W        W24593  15.965   2.411   6.628 -0.1789 -0.1523 -0.1798
11180W        W24594  11.479   4.426   5.820  0.0047  0.0775 -0.1309
11181W        W24595   7.095   6.649   1.518  0.3107 -0.0919 -0.2647
11182W        W24596  14.903   5.187   5.715 -0.3734 -0.1374  0.1053
11183W        W24597   0.993   8.960   3.588  0.1680  0.2596 -0.0445
11184W        W24598   2.963   6.631   4.981 -0.1191  0.0926  0.1487
11185W        W24599   0.694  10.343  15.921  0.3599 -0.0597  0.1906
11186W        W24600   4.722   4.684   4.106  0.1616 -0.0054 -0.0088
11187W        W24601  11.671   7.201   4.776  0.0935  0.1210 -0.2562
11188W        W24602   6.000  12.096   0.554 -0.2242  0.1384  0.0386
11189W        W24603   1.184   9.113  11.426  0.1328 -0.0163 -0.1621
11190W        W24604   2.706  11.636   2.060 -0.1438  0.0845 -0.2128
11191W        W24605  16.609  12.030  13.707  0.0285  0.1176  0.4106
11192W        W24606   5.777   4.699  12.356  0.0197 -0.3202 -0.0534
11193W        W24607   8.500   9.072   5.574 -0.2450 -0.2524 -0.0188
11194W        W24608  12.162   0.555   0.907  0.0969  0.1049 -0.3417
11195W        W24609   8.690  12.515   2.255 -0.2347  0.3013  0.0496
11196W        W24610  12.558  13.794  11.874  0.0321 -0.0992  0.3420
11197W        W24611   5.309  16.238  13.181 -0.1897 -0.1348 -0.2520
11198W        W24612   4.711  16.057  11.755  0.0113 -0.1177 -0.3693
11199W        W24613  16.713   4.728  15.513  0.2752  0.2679 -0.0246
11200W        W24614   1.834  12.515  16.162  0.0568 -0.0959 -0.0601
11201W        W24615  16.805   1.639  14.629 -0.2263  0.0177  0.2168
11202W        W24616  15.831   3.192  15.772 -0.0033 -0.2180 -0.1524
11203W        W24617   0.159   8.313   4.979 -0.1525 -0.0350 -0.2112
11204W        W24618   7.410  12.685   4.259  0.1704  0.1855 -0.1803
11205W        W24619   1.006  18.403  13.370 -0.0550  0.1971  0.2388
11206W        W24620  13.177   2.925  13.842 -0.1915  0.0479 -0.0694
11207W        W24621   2.081   5.833  11.083 -0.2066  0.0326 -0.1327
11208W        W24622   5.114   4.972   0.745 -0.1477 -0.3048  0.0724
11209W        W24623  13.191   0.709  13.299 -0.0458  0.0132 -0.2460
11210W        W24624  13.858  16.197  12.584  0.0617 -0.0394 -0.0414
11211W        W24625  14.737   7.407  12.691  0.1718 -0.0324  0.0025
11212W        W24626   6.791  13.998   9.553 -0.1298 -0.0898  0.1835
11213W        W24627   6.703  17.388  15.589  0.1620 -0.1464  0.1290
11214W        W24628  16.559   7.211  10.599 -0.1008  0.0611  0.1081
11215W        W24629  14.969   9.597  16.174 -0.2811 -0.1331  0.0247
11216W        W24630   6.584   8.814  12.098  0.0245  0.1193 -0.2500
11217W        W24631   0.384   9.981  13.089  0.2551  0.0320 -0.0319
11218W        W24632   7.358  11.164   4.403  0.1138  0.1904 -0.0986
11219W        W24633  12.331   6.267   1.873  0.0468  0.1391 -0.0224
11220W        W24634   0.784   6.819   3.691 -0.3606 -0.1129 -0.2634
11221W        W24635   9.778   5.017  15.412  0.1733  0.2018 -0.6533
11222W        W24636   2.712   3.860  14.846  0.1251 -0.0045 -0.0460
11223W        W24637   2.789   8.876  14.704 -0.0055 -0.0811  0.0956
11224W        W24638  15.703   3.758  11.603 -0.0817  0.1388  0.1455
11225W        W24639  11.850  15.211   2.226 -0.1707  0.1078 -0.0203
11226W        W24640   8.263   5.301   3.831 -0.3144 -0.0576 -0.4371
11227W        W24641   7.005  15.484  11.193  0.1661  0.2547  0.0447
11228W        W24642   6.009  13.011  15.127 -0.0214  0.0428  0.0133
11229W        W24643   3.317   9.535  14.096  0.1158 -0.0033  0.0121
11230W        W24644  10.010  15.464  15.650 -0.0231 -0.1273 -0.1547
11231W        W24645   8.954  16.273  11.313 -0.1142  0.0134  0.0756
11232W        W24646   6.552   9.888  10.779  0.2581 -0.1202 -0.1669
11233W        W24647   6.334  17.615   5.370  0.3276 -0.0291 -0.0933
11234W        W24648  17.566  13.629  10.911 -0.1200  0.0191 -0.1085
11235W        W24649  16.535  10.960   4.420  0.0547 -0.2720 -0.4036
11236W        W24650  16.924   3.515   2.788  0.0958  0.0583 -0.3331
11237W        W24651  12.638   8.249  13.688 -0.1236  0.0828  0.0376
11238W        W24652   7.354  13.237   3.342 -0.0099 -0.1850 -0.2188
11239W        W24653   0.771  13.328  12.781  0.0238 -0.3678  0.3545
11240W        W24654  13.974  15.280  12.657  0.0584  0.1710  0.0773
11241W        W24655   1.490  12.389  12.233 -0.1108 -0.0623  0.1026
11242W        W24656   3.775  16.028  12.892  0.1810 -0.1609  0.2761
11243W        W24657  12.113   0.460   0.425 -0.1902 -0.0897 -0.0793
11244W        W24658  12.086   6.808  14.425  0.0051  0.1503 -0.1199
11245W        W24659  16.160  10.567  15.958 -0.0417  0.0651  0.4185
11246W        W24660  12.118  18.073  12.084 -0.0118  0.7013  0.0601
11247W        W24661  14.953  13.766   0.518 -0.0398  0.0209 -0.4595
11248W        W24662   9.214  14.083  14.193 -0.1464 -0.0692  0.1376
11249W        W24663   6.696  17.117  10.997  0.2521 -0.1829 -0.0666
11250W        W24664  12.647   4.020   1.036 -0.0533  0.0713  0.0567
11251W        W24665  15.033   1.868   3.644 -0.2542 -0.1453 -0.0627
11252W        W24666   5.768   6.124  15.092 -0.2135  0.0091  0.0994
11253W        W24667   7.948   3.558  10.823 -0.1625  0.3250  0.1569
11254W        W24668   7.229  11.682   2.232  0.0353 -0.1477  0.0267
11255W        W24669  13.580  18.207   5.723 -0.0355  0.0873  0.3108
11256W        W24670   8.682  17.101   0.082  0.1366 -0.5534 -0.2422
11257W        W24671   3.436  15.760  15.148  0.1673 -0.0579  0.0724
11258W        W24672  12.987   0.155  10.660  0.1507  0.1988  0.1086
11259W        W24673   7.162  11.349  15.400 -0.1274  0.1015 -0.4468
11260W        W24674  11.482   5.594  10.173 -0.2252 -0.2428 -0.1140
11261W        W24675   0.814  16.820  10.465  0.4639  0.2596 -0.2423
11262W        W24676   9.885  13.926   4.313  0.1932  0.1393 -0.0681
11263W        W24677   8.079  11.213   9.879  0.1403 -0.1330 -0.1031
11264W        W24678  11.671  15.818  14.307  0.1169  0.0530  0.0270
11265W        W24679  15.816   8.276  15.571  0.3743  0.2986  0.0696
11266W        W24680  16.805   4.079   2.991 -0.0247  0.4175  0.0788
11267W        W24681   7.665  15.250   4.081 -0.0151 -0.0459 -0.0543
11268W        W24682  16.104   3.148  13.455  0.1985  0.0001  0.2229
11269W        W24683  14.558  10.939  10.511  0.0577 -0.0290 -0.2252
11270W        W24684  15.873  15.204  14.103 -0.0681  0.2134  0.0993
11271W        W24685   8.834  17.859  15.783  0.2487  0.2274  0.0504
11272W        W24686   5.070   1.802  12.121  0.0498 -0.1360  0.0627
11273W        W24687  15.591  13.145  16.033  0.1049  0.0507 -0.2866
11274W        W24688   3.999  11.170   5.802 -0.1844 -0.0303 -0.0830
11275W        W24689   1.693   6.959   2.376  0.4008  0.1425 -0.2556
11276W        W24690   4.816  17.203  11.448 -0.3971 -0.1131  0.1331
11277W        W24691   6.435   6.518   2.913 -0.1953 -0.0177  0.3565
11278W        W24692  10.131  16.214  12.271  0.1444 -0.1993  0.2631
11279W        W24693   1.534  14.810  13.941  0.0779 -0.5551 -0.1913
11280W        W24694   6.883   6.059   5.026 -0.0838 -0.1229 -0.0551
11281W        W24695  12.377   1.987  12.643 -0.1715  0.1661  0.0763
11282W        W24696  18.056   1.807   0.303 -0.1237 -0.0770 -0.1429
11283W        W24697   4.517   2.331   3.473 -0.0415  0.1724 -0.3165
11284W        W24698   2.973   8.357  11.033  0.0420  0.0634  0.2186
11285W        W24699   2.394   8.446  11.152  0.1994  0.1782  0.1492
11286W        W24700   8.649  16.269   5.069 -0.3360  0.0947 -0.1836
11287W        W24701   1.797   6.141   5.818  0.2027  0.1721 -0.4405
11288W        W24702  17.379   8.283   5.071  0.1129 -0.1290 -0.3126
11289W        W24703  10.688   2.196   1.877  0.0644 -0.1933  0.2876
11290W        W24704  11.102   5.140  14.349 -0.2219 -0.0161  0.0996
11291W        W24705  12.941  15.748  15.102 -0.0448 -0.0599  0.2441
11292W        W24706  14.516   2.188   3.618  0.0573 -0.0066  0.1636
11293W        W24707  10.747  10.313   2.698 -0.4460  0.1614 -0.5031
11294W        W24708  10.746  16.500   1.825 -0.0469 -0.0488 -0.0470
11295W        W24709  15.053  15.482  11.212  0.2489 -0.2614 -0.2509
11296W        W24710   6.993   6.214  12.250  0.2001  0.0279  0.1033
11297W        W24711   6.337   0.779  15.706  0.1796  0.1837 -0.2008
11298W        W24712   7.543  18.381  13.750  0.0029 -0.3305  0.1119
11299W        W24713   6.492  11.495  15.492  0.1856  0.2482  0.0003
11300W        W24714  10.811   6.013   3.259  0.0675  0.2266  0.0228
11301W        W24715   1.030  14.256   5.220  0.2029  0.1356  0.2760
11302W        W24716   3.832   4.470   3.968 -0.1858 -0.0775 -0.0058
11303W        W24717   8.507  12.591   4.487  0.0613 -0.0269  0.2420
11304W        W24718  15.506   6.268   0.898  0.0130  0.0210  0.0682
11305W        W24719  13.008  10.666   4.647 -0.1856 -0.1254 -0.2388
11306W        W24720   2.240  11.118  11.295 -0.2937 -0.3379  0.0706
11307W        W24721   7.275  15.329  15.055  0.1708 -0.2547 -0.3267
11308W        W24722  16.508   1.981  12.744 -0.0243 -0.0360  0.1089
11309W        W24723   0.758  17.059   1.285 -0.0696 -0.2675  0.0159
11310W        W24724   1.369   0.271  10.359  0.1375 -0.0908 -0.1083
11311W        W24725  13.287   6.355   4.879 -0.2587  0.1491  0.3373
11312W        W24726   4.275  16.455  14.223 -0.1401  0.0121  0.4445
11313W        W24727   5.806  13.507  11.362 -0.0720  0.2197  0.0457
11314W        W24728   1.368  11.212  14.306 -0.3924  0.0075 -0.2313
11315W        W24729   7.394  16.927  14.083  0.1708  0.0947  0.1187
11316W        W24730   9.314  14.920  15.545 -0.1063  0.1359 -0.1526
11317W        W24731  12.208  13.397   5.886  0.1452  0.3322 -0.0353
11318W        W24732   8.981  13.184  12.480  0.0832 -0.1617  0.1015
11319W        W24733  11.350  13.606  16.091  0.2189  0.0485  0.0603
11320W        W24734  11.085   5.160   3.862 -0.2273  0.0417 -0.1078
11321W        W24735  13.641  14.723   4.652  0.2765  0.1211  0.3092
11322W        W24736   1.893   0.283   5.853  0.1111  0.3970  0.0313
11323W        W24737  15.360   6.579  15.681  0.0029 -0.1389  0.4320
11324W        W24738  14.597  16.803  15.447 -0.2007  0.1645  0.1620
11325W        W24739   4.378  15.062  12.825  0.0423  0.1493  0.0557
11326W        W24740   1.716   2.957   6.571  0.0325 -0.1264 -0.2054
11327W        W24741  11.083   4.937   3.278  0.5356 -0.1825 -0.4749
11328W        W24742   7.909   5.192  13.067 -0.0416 -0.0252  0.2530
11329W        W24743   0.810   1.382  11.425  0.1332 -0.2712  0.0014
11330W        W24744  11.432   3.047   5.719  0.3509  0.0885  0.0102
11331W        W24745   2.940  15.032   5.239 -0.0358  0.1057 -0.4300
11332W        W24746  12.427  14.562  11.371  0.0329 -0.0147  0.0556
11333W        W24747  12.182   6.287  11.477 -0.3802 -0.2855  0.1990
11334W        W24748   6.425  16.925   1.246  0.2107  0.0520  0.3683
11335W        W24749   8.816   5.970   3.963  0.0042  0.2393 -0.0664
11336W        W24750   5.528   9.814   1.221  0.3412 -0.1205  0.2803
11337W        W24751   6.839   4.339  15.567 -0.1056  0.4128 -0.0953
11338W        W24752   4.459  16.172  10.967 -0.1607 -0.1713  0.0532
11339W        W24753  16.918   1.925   4.663  0.1547  0.0767 -0.3636
11340W        W24754   9.275  12.155   0.023  0.3706  0.1459 -0.0375
11341W        W24755   8.496  18.173  13.381 -0.3172  0.3639 -0.0989
11342W        W24756   9.770   1.962   0.970 -0.3882  0.0377  0.3606
11343W        W24757   5.799   2.637  12.612 -0.0084  0.0868 -0.0647
11344W        W24758   1.768  14.016   3.498  0.2684  0.1004  0.2608
11345W        W24759  10.325   9.113   5.043 -0.2569  0.0851 -0.0913
11346W        W24760  13.149  17.211  13.327 -0.2407 -0.0468 -0.1922
11347W        W24761  12.888   8.009   1.337 -0.0023  0.1773 -0.1238
11348W        W24762   1.091   2.430  10.538 -0.0777  0.0148 -0.0938
11349W        W24763   3.819   3.030  12.669  0.0520 -0.1745 -0.0447
11350W        W24764   7.623   4.244   5.860 -0.0624  0.1486  0.1104
11351W        W24765   7.273   7.955  11.823  0.0457 -0.0680 -0.3140
11352W        W24766  14.888   6.559   6.828 -0.4521  0.4879 -0.0720
11353W        W24767  10.055   7.508  15.023  0.2467  0.0863 -0.0125
11354W        W24768  17.770  14.920   0.129  0.1837  0.0767  0.0740
11355W        W24769   6.797  17.339   5.300 -0.0334 -0.3375 -0.0042
11356W        W24770   3.102   3.345  16.183 -0.0896 -0.2939  0.0934
11357W        W24771   5.066   1.247  11.717 -0.0733 -0.0440  0.2549
11358W        W24772   8.635   8.537   2.612 -0.2589  0.3005 -0.0755
11359W        W24773   4.114   6.503   3.331 -0.1045 -0.1039 -0.0515
11360W        W24774  10.375   6.921   1.452  0.0180 -0.0136 -0.0570
11361W        W24775  12.339   6.096   4.441 -0.2621 -0.0024 -0.0999
11362W        W24776  11.097   3.047  13.337 -0.3110  0.2348 -0.0819
11363W        W24777  11.717  10.379  13.159  0.0140  0.1232  0.1890
11364W        W24778   1.273   5.533   0.216  0.1924  0.2418 -0.0907
11365W        W24779   8.185  13.148  15.977 -0.0577  0.3078  0.1109
11366W        W24780   8.242  16.819  13.548 -0.0861  0.0075 -0.0236
11367W        W24781   2.079  11.087  14.859  0.0157 -0.1556  0.0015
11368W        W24782   5.406   3.522  15.717 -0.1368 -0.1292 -0.1308
11369W        W24783   9.324  16.194   6.175  0.1505  0.0169 -0.3113
11370W        W24784   1.147  13.762  16.254  0.1353  0.1825 -0.2229
11371W        W24785  16.643  14.125  10.833  0.1430 -0.0477  0.0634
11372W        W24786  15.698  12.917   1.740 -0.2649 -0.0630  0.0553
11373W        W24787   5.524   8.698  15.390  0.0431  0.1143  0.1198
11374W        W24788   7.602  17.195   5.348 -0.0918  0.0373 -0.5105
11375W        W24789  13.839   5.820   1.431  0.0815 -0.1305 -0.1415
11376W        W24790   9.122   2.241  14.789 -0.1016  0.0710  0.1283
11377W        W24791   2.596  13.106   4.375  0.0145 -0.4691 -0.0494
11378W        W24792   1.985   9.265  15.886 -0.0503 -0.0093  0.0543
11379W        W24793  11.769   5.660   2.251 -0.1490  0.0682  0.4661
11380W        W24794  14.911   6.889  12.605  0.0812  0.0136 -0.4196
11381W        W24795  17.530  12.498  12.450  0.0629  0.1858 -0.0538
11382W        W24796  14.182   6.699   0.064 -0.4418  0.1687 -0.2088
11383W        W24797  14.515  12.838  15.164  0.1408  0.0138 -0.2247
11384W        W24798  13.490   3.713  15.281 -0.1205 -0.4356  0.1314
11385W        W24799   0.292  14.285  14.594  0.0846 -0.2368 -0.1028
11386W        W24800  13.725   8.371   0.544  0.1000 -0.0570  0.5045
11387W        W24801  11.324   9.264   5.668 -0.5216 -0.2631  0.2075
11388W        W24802  17.239  16.009  15.875 -0.1376 -0.0769 -0.0131
11389W        W24803  17.852  15.522  12.103  0.3750  0.1670 -0.0018
11390W        W24804   6.737  18.157  14.662  0.2708 -0.0615  0.0709
11391W        W24805  14.199   0.126   5.107  0.1867  0.0629 -0.1688
11392W        W24806   9.654  12.271  14.205  0.1371 -0.0587 -0.1153
11393W        W24807  12.353  17.099  13.995  0.0737  0.1808  0.3219
11394W        W24808  15.373   1.273  13.942 -0.2130 -0.0671  0.0073
11395W        W24809   7.440   8.661  14.327 -0.1144  0.2560 -0.0016
11396W        W24810   1.228   4.835   2.435 -0.0918  0.0690 -0.0847
11397W        W24811  17.562  10.465   0.475 -0.0072  0.0596  0.1988
11398W        W24812  12.323   6.854   3.347  0.0918 -0.0113 -0.1249
11399W        W24813   5.608  10.228   9.977  0.5411  0.0852  0.0265
11400W        W24814  12.472  12.187  12.312 -0.3664 -0.0402  0.0385
11401W        W24815   5.970   7.966  11.292  0.0915  0.2038 -0.3194
11402W        W24816   6.919  18.082  15.779 -0.0142  0.2530 -0.0143
11403W        W24817   6.102  12.926  12.937  0.1349 -0.2027 -0.2956
11404W        W24818  11.706  13.211   3.483 -0.0476 -0.4198 -0.0869
11405W        W24819   3.383   8.941  14.027 -0.1766 -0.1524 -0.0310
11406W        W24820  18.492  16.474  13.315  0.0692  0.0088 -0.0764
11407W        W24821   1.370  13.826   5.441  0.0301  0.0657 -0.0842
11408W        W24822  12.117   4.208   0.120  0.0685 -0.1125 -0.0666
11409W        W24823  16.133  16.018   5.513  0.2296 -0.3195 -0.2120
11410W        W24824   9.992  12.320   3.553 -0.2230  0.0273  0.1152
11411W        W24825  17.461   1.752  11.305 -0.1608 -0.4151 -0.0322
11412W        W24826   8.038   1.075  14.236  0.2931 -0.3442  0.0160
11413W        W24827   8.240  10.969  10.218  0.0507  0.1986  0.2462
11414W        W24828  12.996  18.251  10.433 -0.2736  0.2429 -0.3428
11415W        W24829   3.671  12.801   2.647 -0.1400 -0.1724  0.2115
11416W        W24830   2.247   5.384   2.436 -0.0932  0.2298  0.1323
11417W        W24831  10.669   3.239  14.829 -0.2105 -0.0712  0.2810
11418W        W24832  13.929  16.008  10.844 -0.1173  0.0331  0.0566
11419W        W24833  18.052  16.618   3.401 -0.2642  0.1165 -0.0462
11420W        W24834   7.020   2.008  12.391 -0.1651 -0.2385  0.0132
11421W        W24835  17.720   6.932  13.643 -0.1790 -0.4296  0.0800
11422W        W24836  14.836  18.204   1.294 -0.1675  0.0965 -0.1296
11423W        W24837   9.375   0.314   4.992 -0.3928 -0.2614 -0.0902
11424W        W24838   6.712   2.066   5.050  0.0982 -0.0797 -0.0665
11425W        W24839   8.330  13.091   2.902 -0.0015 -0.2737 -0.2324
11426W        W24840  13.409   0.346   0.064  0.1804  0.1846  0.0645
11427W        W24841  11.656   9.984   5.341  0.0484 -0.1481  0.0254
11428W        W24842  12.953   8.182   2.399 -0.1887  0.1537 -0.0292
11429W        W24843  14.369   6.380   6.183 -0.3123  0.1872 -0.0516
11430W        W24844   7.764  17.368   1.692  0.1695 -0.2907  0.4753
11431W        W24845  14.248   0.279   2.678  0.1194  0.0196 -0.0884
11432W        W24846  17.995   4.458  12.937 -0.2409  0.3192  0.0975
11433W        W24847   4.935   2.283   4.529 -0.0521  0.2394 -0.0204
11434W        W24848   7.115  16.280  12.789  0.0438  0.2080  0.2449
11435W        W24849  14.170  12.245  14.844  0.2408  0.4380  0.1322
11436W        W24850   8.660   6.608   3.428 -0.2152  0.2457 -0.0258
11437W        W24851  16.058   7.866   4.060  0.0273  0.2838  0.0926
11438W        W24852  18.388   8.270   0.237 -0.4237 -0.1356  0.1151
11439W        W24853   7.489  10.500   1.344  0.0269  0.2590  0.1437
11440W        W24854  14.591  18.279  11.063  0.2825  0.1970 -0.2105
11441W        W24855   5.166  13.879   1.959 -0.4224  0.0892  0.2628
11442W        W24856   6.620   3.963   4.212 -0.2165 -0.1597  0.3144
11443W        W24857   7.720  14.004   5.368  0.1198 -0.0594  0.1460
11444W        W24858  12.786   9.628   4.643 -0.0074  0.0364 -0.1848
11445W        W24859   9.975   1.779   0.132 -0.2160  0.1289 -0.1621
11446W        W24860  12.258   6.203   1.304 -0.1822  0.1924  0.1929
11447W        W24861  17.360   7.771   5.967 -0.3032 -0.0376 -0.1321
11448W        W24862  11.905  11.721  12.621 -0.1093  0.0548 -0.1950
11449W        W24863   3.632   6.655   1.205  0.1277 -0.1754 -0.2026
11450W        W24864  15.650   6.295   4.844  0.2791  0.1430  0.3161
11451W        W24865  10.448  16.139   1.448  0.2221  0.3336 -0.0247
11452W        W24866   1.587  16.695   1.307 -0.0723 -0.1907 -0.2554
11453W        W24867  12.396   5.992  13.391 -0.1064 -0.1893  0.0038
11454W        W24868  15.969   6.724  15.058  0.1423  0.2117  0.0399
11455W        W24869  17.488  13.658   1.510  0.2585 -0.3078 -0.2812
11456W        W24870   5.684  11.134  13.133 -0.1393  0.0776  0.0338
11457W        W24871   4.494   7.957  12.706 -0.0438 -0.1486  0.2251
11458W        W24872  10.611   3.414  11.647 -0.0277 -0.1988  0.1897
11459W        W24873  17.650  12.459  13.811  0.1388  0.0457 -0.1172
11460W        W24874   0.585   3.216   5.148  0.0074 -0.0868 -0.5132
11461W        W24875   4.782  15.178   2.651  0.2084  0.0217  0.0915
11462W        W24876  13.871   4.087   3.039 -0.0751  0.2500  0.3296
11463W        W24877  17.903  17.465  14.139  0.2043  0.1526  0.3448
11464W        W24878   2.830  15.186  13.771 -0.0062  0.2043  0.1350
11465W        W24879  11.554  14.602   3.717 -0.2023 -0.0190  0.2493
11466W        W24880   2.686  16.082  14.018  0.2389 -0.1519  0.1208
11467W        W24881   0.156  14.592   3.062  0.1418  0.1697 -0.0716
11468W        W24882  13.776   7.170   2.659  0.0875  0.0322  0.4018
11469W        W24883  15.119  10.140  12.378 -0.0122 -0.0527 -0.0751
11470W        W24884   8.603  15.890   2.217  0.1345  0.3121  0.0380
11471W        W24885   6.780  14.876   4.296  0.1057  0.1403  0.0569
11472W        W24886   0.526   0.248   3.929 -0.0982 -0.0739  0.0103
11473W        W24887  17.871  12.917   3.564  0.2061 -0.0421 -0.0014
11474W        W24888  17.922   5.128  12.292  0.0968  0.0474  0.1490
11475W        W24889  13.558  10.309  10.589  0.0235  0.1122 -0.1483
11476W        W24890  14.897  11.725   5.005  0.3476  0.2832 -0.0804
11477W        W24891   9.840   3.690   3.589  0.0177 -0.0358 -0.1746
11478W        W24892  10.627   8.517  14.838 -0.2436  0.0376 -0.1314
11479W        W24893   6.739  17.686   2.271 -0.1883 -0.1485  0.2797
11480W        W24894  11.759   5.914  13.876  0.0853 -0.1258 -0.0566
11481W        W24895  10.087  12.292   0.043 -0.0003  0.2283  0.0035
11482W        W24896   6.098   5.740   5.700 -0.1180 -0.4310 -0.3454
11483W        W24897  11.487  11.034  13.703 -0.1505 -0.3022 -0.0391
11484W        W24898   9.020  13.676  11.599  0.1210 -0.1176  0.2136
11485W        W24899   8.854  18.434   1.578  0.0234 -0.0990 -0.1739
11486W        W24900  14.833  15.557   2.842 -0.0211  0.1845  0.1172
11487W        W24901   0.309  16.119  11.540  0.0567  0.4031 -0.0291
11488W        W24902  17.811   1.049   4.558 -0.0240 -0.0276 -0.0509
11489W        W24903  13.499   2.751   4.164 -0.1941  0.1366  0.0917
11490W        W24904   4.960   6.291  11.975 -0.1979  0.2688 -0.1949
11491W        W24905   6.948  12.890   5.444  0.2807 -0.0676 -0.0003
11492W        W24906   3.946   5.806   2.200  0.1816  0.0165 -0.1874
11493W        W24907   7.620   1.440  11.880  0.0872 -0.2222 -0.0600
11494W        W24908  13.638  12.895   0.287 -0.0527  0.0921 -0.1032
11495W        W24909   6.627   4.447   0.830 -0.3554  0.0939 -0.1793
11496W        W24910  14.485   2.994  11.007 -0.0180 -0.1857  0.0635
11497W        W24911  13.508  11.253  12.150  0.0035  0.1262  0.1027
11498W        W24912  15.092   2.512  15.366 -0.1697  0.0874 -0.0991
11499W        W24913  18.380  16.393   0.714 -0.0065 -0.2825 -0.3971
11500W        W24914   7.088  14.157   0.473  0.1533 -0.0086  0.2545
11501W        W24915  13.895  13.900  16.048 -0.0958  0.2279  0.0322
11502W        W24916   7.894  16.552   0.874 -0.2816 -0.2174 -0.1007
11503W        W24917  12.021   8.548   0.212 -0.2311 -0.2251 -0.0669
11504W        W24918   6.162   2.165   0.071 -0.0532 -0.0225 -0.0601
11505W        W24919   0.326  11.925  14.167  0.1095  0.5065  0.1644
11506W        W24920  16.489   2.437  10.739  0.1588 -0.0410  0.2030
11507W        W24921  15.799  10.721   0.376  0.1102  0.0699 -0.0157
11508W        W24922   4.202   5.183  14.749 -0.1574  0.1119 -0.2967
11509W        W24923   4.818  11.842  11.734 -0.0429  0.0191 -0.1219
11510W        W24924   7.606  11.707   0.544 -0.0540  0.1298  0.1354
11511W        W24925  11.772   1.108   4.444  0.0041  0.0539 -0.1464
11512W        W24926   2.606   1.731   3.272 -0.1622 -0.0008 -0.0936
11513W        W24927  17.019  10.391   3.180 -0.2042 -0.0072 -0.2708
11514W        W24928  13.126  11.063  15.349  0.1600 -0.1694 -0.3955
11515W        W24929   2.821   5.002  12.280 -0.0943 -0.1399 -0.0856
11516W        W24930   8.996  14.610   2.786 -0.0886  0.0348 -0.1543
11517W        W24931   7.991   6.926  11.841 -0.1200  0.2248 -0.1762
11518W        W24932  17.035   4.520  11.011  0.0017 -0.0747  0.0049
11519W        W24933   1.860   0.040  15.596  0.2725 -0.3583  0.1082
11520W        W24934   3.564   7.587  10.733  0.2542 -0.1725  0.0500
11521W        W24935   9.818   3.190  10.260 -0.0524  0.2194 -0.1026
11522W        W24936   5.433  10.239  15.902  0.1103 -0.0360  0.0474
11523W        W24937   7.916  18.107  15.930 -0.2638  0.0930 -0.1435
11524W        W24938   0.941   6.769   4.153  0.1155 -0.1570  0.1375
11525W        W24939  18.269  12.714   4.983  0.3610 -0.0031  0.1025
11526W        W24940  13.142  13.114   1.694  0.1989  0.0271 -0.2462
11527W        W24941   2.236  10.698  14.093  0.1480 -0.1024  0.1009
11528W        W24942  17.719   5.907  10.275 -0.2153 -0.1863 -0.0155
11529W        W24943  14.558   7.563  15.422  0.3724  0.1316  0.1904
11530W        W24944   3.269  12.510   1.432  0.0120 -0.0392 -0.1678
11531W        W24945  12.389   2.754  15.850  0.1002  0.1702  0.0947
11532W        W24946   0.867   8.027   5.238 -0.0994 -0.0806  0.0105
11533W        W24947  16.951   4.922  15.972 -0.1159 -0.0050 -0.0363
11534W        W24948   8.172   5.313   2.144  0.0495 -0.1998 -0.4016
11535W        W24949  15.408  16.011   6.407 -0.1231 -0.0168  0.2635
11536W        W24950   8.261   2.757   2.060 -0.0839  0.0003  0.2690
11537W        W24951  14.107   6.222   0.288 -0.1695 -0.1341 -0.2188
11538W        W24952  17.333   6.895  16.215 -0.1399  0.0257  0.2258
11539W        W24953   8.422  14.067   6.001 -0.2604 -0.4403 -0.0581
11540W        W24954   8.053   4.981  15.948 -0.1543  0.1875  0.0458
11541W        W24955  12.664  12.646   5.586  0.1379 -0.5954  0.1836
11542W        W24956  13.063  11.359   0.821  0.1948 -0.0719 -0.3247
11543W        W24957   7.418   0.825  15.542  0.0695  0.0573  0.1709
11544W        W24958   1.182   4.823  11.986  0.2595  0.1073  0.0217
11545W        W24959  16.399  12.204   2.491  0.0529  0.0674 -0.0698
11546W        W24960   6.193  14.798  13.045 -0.0738 -0.2914  0.0407
11547W        W24961   6.375  18.325   3.830 -0.0798  0.2832  0.1828
11548W        W24962   1.728  10.724  11.757 -0.2135 -0.0643 -0.2178
11549W        W24963  17.501  10.643   1.788 -0.1903 -0.1753  0.1047
11550W        W24964  17.986  14.491   3.538  0.1897 -0.0141  0.0258
11551W        W24965   7.481   8.780  14.922  0.1191 -0.1402 -0.2572
11552W        W24966  12.565  17.350  12.233  0.0067 -0.0149  0.0358
11553W        W24967  18.003   3.480   3.482  0.1783 -0.0614 -0.1314
11554W        W24968  13.854   4.005  11.979  0.1319 -0.2083 -0.2506
11555W        W24969   3.864  16.937   5.439 -0.1839  0.0012 -0.0623
11556W        W24970  17.732  10.360   4.352 -0.1701 -0.0533  0.1899
11557W        W24971  15.199  16.283   2.365  0.2261  0.1610  0.2967
11558W        W24972  10.470   5.748   2.621  0.1865 -0.2257 -0.0251
11559W        W24973  11.612   7.827  15.730 -0.0142 -0.2982 -0.0719
11560W        W24974   7.587  12.883   0.437  0.0633 -0.3495 -0.1307
11561W        W24975  11.159  12.921   2.322 -0.0388  0.0279 -0.0162
11562W        W24976   3.276   2.558  15.676  0.2420  0.1608 -0.2074
11563W        W24977  17.449   0.309   3.578  0.1314  0.0075  0.4366
11564W        W24978  17.886  18.042  11.943  0.0578 -0.0222  0.3517
11565W        W24979   4.418  12.654  14.645  0.1297 -0.2009  0.0021
11566W        W24980   1.274   2.780   0.115  0.0680 -0.1276 -0.4664
11567W        W24981  11.891  14.445  13.541 -0.0520 -0.1669 -0.2106
11568W        W24982   4.122   7.708  10.884  0.0936 -0.0260 -0.3113
11569W        W24983  16.085   0.655   3.950  0.4332 -0.2372  0.3572
11570W        W24984  13.073   5.730  14.219 -0.0598 -0.2964 -0.1598
11571W        W24985  17.035   3.483  15.015 -0.0156  0.0287 -0.0786
11572W        W24986   9.367  17.824  15.941  0.1056 -0.0574  0.1685
11573W        W24987   4.488  15.542   3.568 -0.3528  0.0762  0.1205
11574W        W24988   8.215  12.607   4.092  0.0270  0.0694  0.2523
11575W        W24989   2.511  17.995   2.050 -0.0058  0.1457  0.3286
11576W        W24990   2.199   4.608  12.272  0.1192  0.0218  0.2777
11577W        W24991  18.456   2.753   1.415 -0.0457  0.4901  0.0460
11578W        W24992  13.517   0.606  14.722  0.1076  0.0335  0.1182
11579W        W24993   3.432  13.013  12.847  0.0327  0.0964 -0.1959
11580W        W24994  12.573  10.891   5.171  0.1632 -0.1285  0.2214
11581W        W24995  15.067  11.394   1.344  0.1161  0.2303 -0.0846
11582W        W24996   8.553   5.678  14.206  0.1543  0.2525 -0.0250
11583W        W24997  17.384   3.622   1.177 -0.0470  0.2611  0.2665
11584W        W24998  14.604   8.579  13.109  0.0887  0.1804 -0.1384
11585W        W24999  10.380  18.076   3.833 -0.0736 -0.0650 -0.1969
11586W        W25000   8.171  14.549  13.650  0.1254  0.0226  0.0421
11587W        W25001   7.822  16.496  11.815  0.0334 -0.0176 -0.0041
11588W        W25002  12.494   1.294  14.330 -0.1403 -0.0100 -0.0444
11589W        W25003   3.774   3.980   5.211 -0.0487  0.2734  0.0995
11590W        W25004   8.204  15.093   2.635 -0.2093  0.0164 -0.2278
11591W        W25005  18.519  11.914   0.577 -0.0546 -0.3145 -0.2360
11592W        W25006  14.700   7.433   3.505  0.2652  0.1475  0.1701
11593W        W25007   8.678   8.628   3.802 -0.0865  0.0209  0.0949
11594W        W25008   2.434  14.931  10.367 -0.0618  0.2109 -0.2168
11595W        W25009   1.084  17.593  14.175  0.3426  0.0277 -0.0643
11596W        W25010  12.826  17.498   5.452 -0.1185 -0.1514  0.2128
11597W        W25011  15.364   1.948  11.064  0.0600  0.1130  0.1257
11598W        W25012  12.101   0.967   3.634  0.1065 -0.1335 -0.1311
11599W        W25013   3.660  12.612   4.013 -0.0049 -0.1473 -0.2556
11600W        W25014  15.200  10.772   5.089 -0.0213  0.1706  0.0029
11601W        W25015  14.013  12.895  11.283 -0.1220  0.2376  0.1364
11602W        W25016  12.434   7.522  11.202 -0.2130  0.3680  0.0639
11603W        W25017  14.913  10.861   3.959  0.1269 -0.2089 -0.3173
11604W        W25018   6.301   1.362   4.088 -0.1195 -0.0857 -0.2242
11605W        W25019   5.721   8.867   3.833 -0.0643 -0.3225 -0.0134
11606W        W25020   3.732   9.592   0.384 -0.2272 -0.0360 -0.1099
11607W        W25021   1.077  14.426   2.194  0.2047  0.1216 -0.1356
11608W        W25022  16.913  10.580   2.053  0.0754 -0.2452 -0.2608
11609W        W25023  16.755  18.235  12.192  0.2624 -0.0486 -0.3090
11610W        W25024   7.067   1.996   2.323  0.1730 -0.0353  0.0782
11611W        W25025  10.958   6.339   4.305 -0.0101  0.1646 -0.0172
11612W        W25026  15.956   5.974   4.645  0.1618 -0.0608 -0.0688
11613W        W25027   1.300   4.462   5.031  0.2798  0.1686 -0.0686
11614W        W25028   1.411   8.041  16.102 -0.1204 -0.2474  0.4806
11615W        W25029   9.921  14.378  15.704  0.3081  0.0260  0.0688
11616W        W25030   2.231  17.045   5.573  0.2077 -0.0367 -0.2148
11617W        W25031  14.558  17.524   0.382 -0.2096  0.3147 -0.0719
11618W        W25032   5.504   4.316  15.829  0.1250  0.0764 -0.0383
11619W        W25033  17.819  15.014  14.639 -0.0780 -0.0576 -0.2601
11620W        W25034  16.346   3.403  13.791 -0.5361 -0.2977  0.4211
11621W        W25035   7.000   5.714   4.714  0.2699 -0.0944  0.2965
11622W        W25036  12.621   9.506   5.152  0.1275  0.1474  0.0306
11623W        W25037   2.317   2.633   5.688  0.2982 -0.0491 -0.1548
11624W        W25038  14.747  18.458   0.904  0.2010 -0.0223 -0.0519
11625W        W25039  13.691  15.949  11.252 -0.0685  0.2624 -0.0766
11626W        W25040   6.627  11.206   6.336 -0.0511 -0.3139 -0.3605
11627W        W25041   7.519   9.417   5.242 -0.1484  0.0793 -0.1032
11628W        W25042   4.125  16.621   3.580 -0.1249  0.0249 -0.0921
11629W        W25043   7.016  14.910  10.946 -0.0281 -0.1419  0.2299
11630W        W25044  15.382  17.801  12.826  0.4191 -0.0349 -0.1257
11631W        W25045  10.443   6.894  10.509 -0.0627  0.2379 -0.0013
11632W        W25046   7.660   3.581  14.194 -0.1326  0.1005 -0.0210
11633W        W25047   7.347   4.204   0.665  0.3030  0.2007  0.1311
11634W        W25048  14.142   0.172  11.724 -0.0922  0.1150 -0.1379
11635W        W25049   2.698   5.138   3.531  0.3268 -0.1484  0.2259
11636W        W25050   3.298  11.752   5.414  0.2369 -0.0045  0.2033
11637W        W25051   8.422  13.234   5.275  0.0917 -0.0504 -0.0340
11638W        W25052   5.152   2.421   0.593  0.0292 -0.1710 -0.0429
11639W        W25053   0.115   2.648  11.519 -0.0346 -0.3130 -0.1624
11640W        W25054  15.319   7.197   4.982  0.0392 -0.0644 -0.2473
11641W        W25055   8.395   0.111  12.088 -0.0683 -0.0374  0.2973
11642W        W25056   2.232  14.926  11.490  0.0411  0.0090 -0.1401
11643W        W25057   4.643   2.368   4.179 -0.3760  0.0360 -0.2015
11644W        W25058  13.616  18.417  13.910  0.4025  0.0912 -0.0413
11645W        W25059  18.349   8.921   2.097  0.0313 -0.3346 -0.1685
11646W        W25060  13.114   6.479  13.757  0.0163 -0.3666  0.0484
11647W        W25061   8.126  10.907  14.258  0.4065 -0.3737  0.1314
11648W        W25062  14.623   7.900  13.341  0.1863  0.1342  0.0715
11649W        W25063   2.328  14.036   4.764  0.1954  0.0870 -0.0873
11650W        W25064   6.559  10.498  11.422  0.1459  0.2251  0.1400
11651W        W25065   0.583  15.742  13.262  0.2036 -0.0911  0.0070
11652W        W25066  11.998   8.255   0.624 -0.1440 -0.3187  0.1293
11653W        W25067   2.862   3.491  13.172  0.0631  0.2366  0.1089
11654W        W25068   4.004   6.336  15.355  0.0636 -0.2456  0.0333
11655W        W25069   9.326   9.090   2.703 -0.1675 -0.0232  0.1046
11656W        W25070  17.385   5.520  10.615 -0.0956  0.2018 -0.1231
11657W        W25071   8.816   2.163  13.758  0.5486  0.1559  0.2254
11658W        W25072  17.647  13.357  14.275 -0.1100 -0.2195 -0.1248
11659W        W25073  18.508   9.937  11.876 -0.2260 -0.0578 -0.2740
11660W        W25074  12.173  15.712   3.605  0.1322 -0.1668 -0.1031
11661W        W25075  15.087   8.721   2.099  0.1014 -0.3275 -0.1621
11662W        W25076   7.757   4.511  16.030  0.1489  0.1183  0.1365
11663W        W25077  10.409   6.161   5.623  0.4934  0.1329  0.0224
11664W        W25078   2.987  12.934  11.056  0.2471  0.0940  0.0134
11665W        W25079  12.952  10.354  11.428 -0.0914  0.2730 -0.3162
11666W        W25080  15.481  11.603  15.514  0.2590  0.0681  0.3416
11667W        W25081  17.321  16.298   0.062 -0.0480 -0.4874  0.2470
11668W        W25082  18.062   8.260   6.530  0.0080  0.1532 -0.2458
11669W        W25083  15.328  13.468  10.628 -0.0588 -0.3307  0.0236
11670W        W25084  16.672  11.214  14.961 -0.1969 -0.2705 -0.2591
11671W        W25085  13.529   4.620  15.378  0.1210 -0.1748  0.1350
11672W        W25086  12.802   4.925  12.340 -0.0850 -0.3028 -0.0089
11673W        W25087   4.163   0.836  12.267 -0.0854 -0.2098  0.1467
11674W        W25088   3.196   2.233  12.099  0.0654  0.3390  0.0220
11675W        W25089  15.113  13.085   2.101 -0.2370  0.0031 -0.3019
11676W        W25090   0.845   9.889  13.486  0.1725  0.1169 -0.2646
11677W        W25091   4.249  17.875  13.977  0.1391 -0.0397  0.2104
11678W        W25092   3.689   2.424   2.023 -0.1434  0.2203 -0.2636
11679W        W25093  15.503   6.503   0.447 -0.1268  0.1172 -0.3021
11680W        W25094   7.268   7.197  14.968  0.2371  0.0803 -0.0222
11681W        W25095  15.183  17.928  10.487  0.1114  0.2424  0.1498
11682W        W25096  16.166   3.812   0.678  0.0319 -0.7478  0.1163
11683W        W25097  16.804   9.581   5.821 -0.2177 -0.2382 -0.2933
11684W        W25098  10.158   9.469  15.644  0.2208 -0.1339 -0.0013
11685W        W25099   6.819   5.242  16.008 -0.0269  0.0924  0.1014
11686W        W25100   2.831  17.969  13.047 -0.0890  0.0408  0.1903
11687W        W25101  10.925   6.955   6.222 -0.0385 -0.2679 -0.1762
11688W        W25102  12.645  16.156  15.270  0.0395 -0.0443 -0.1292
11689W        W25103   3.801   6.246   1.420  0.1274  0.0698  0.0107
11690W        W25104   4.735   1.158  13.595  0.0949 -0.1189 -0.1149
11691W        W25105   1.908   3.863   0.341 -0.0785  0.1785  0.0703
11692W        W25106  15.638   7.205  11.540  0.0099 -0.1784 -0.0747
11693W        W25107   9.403   0.603   2.108  0.1144 -0.0903  0.4135
11694W        W25108   2.852   1.290  16.009  0.0215 -0.1435  0.1769
11695W        W25109   0.903   1.499  10.279 -0.2187 -0.0840 -0.1770
11696W        W25110  10.563   9.102  13.827  0.0153  0.1381 -0.0921
11697W        W25111   5.332   2.774  10.929 -0.2278 -0.2082 -0.1894
11698W        W25112  13.521  16.335  10.087  0.0181 -0.1238  0.2528
11699W        W25113  17.973   0.075  10.911 -0.1109  0.1152  0.0874
11700W        W25114  12.670   9.759  11.476 -0.0046  0.1020 -0.0047
11701W        W25115   8.164   6.605  16.178  0.0991  0.1729  0.0323
11702W        W25116  14.969   0.725   2.099 -0.1855  0.1282  0.5130
11703W        W25117   5.172   8.138  12.382  0.2127  0.0979 -0.0965
11704W        W25118   1.702   3.155   1.618  0.1522  0.0741  0.1377
11705W        W25119   6.287   5.225  10.734 -0.0849  0.3574 -0.0241
11706W        W25120   4.195  18.494   4.869 -0.0891 -0.3782 -0.1087
11707W        W25121   2.308   0.229  14.403 -0.2175  0.0190 -0.0341
11708W        W25122   7.333   9.848  13.442 -0.0259 -0.0320  0.1073
11709W        W25123   4.179  11.887  11.461 -0.1814  0.1214 -0.0255
11710W        W25124   1.077   2.194   5.058 -0.2394  0.2845  0.1395
11711W        W25125   7.177   7.747   5.855 -0.0639  0.1096 -0.0391
11712W        W25126   8.186   3.263  13.055  0.2419  0.4533  0.1144
11713W        W25127   7.441  16.122   2.845  0.2644  0.0606 -0.1398
11714W        W25128  17.926   6.205   5.648 -0.0510  0.1731  0.2341
11715W        W25129  14.621  10.935   2.674  0.0989  0.1961  0.2116
11716W        W25130   4.328   4.697   2.355  0.2331  0.1524 -0.2122
11717W        W25131  13.544   9.119   5.243  0.0245  0.3196  0.1208
11718W        W25132  17.995   3.736   5.386 -0.0609 -0.0431  0.3030
11719W        W25133  10.966   0.770   5.198  0.4207  0.1443 -0.0407
11720W        W25134  17.283   4.462   4.282  0.0402 -0.0687  0.3746
11721W        W25135   2.710   6.155   2.653 -0.0595 -0.3255  0.0949
11722W        W25136   5.324  15.201   1.035  0.1107  0.0207 -0.2485
11723W        W25137   3.864   4.565   3.479 -0.1365  0.1731 -0.0736
11724W        W25138  14.679   3.022  14.950  0.0648  0.1410  0.1554
11725W        W25139   0.679   2.085  16.157  0.1005  0.0699  0.0903
11726W        W25140  13.420   4.337   3.849 -0.0509  0.1237  0.3715
11727W        W25141  16.299   4.413   4.432  0.1072 -0.0275  0.1453
11728W        W25142  10.058   0.246  11.898 -0.0523 -0.3134  0.3655
11729W        W25143   8.206   6.947   1.932 -0.0350 -0.0309  0.3999
11730W        W25144  17.878   5.642  12.239  0.0581 -0.0225 -0.0773
11731W        W25145  17.619  14.905   1.443 -0.0606  0.0382 -0.2171
11732W        W25146   8.255   7.266   0.168  0.0467  0.0083  0.0347
11733W        W25147  14.419  17.698  11.089  0.0228  0.1097  0.3099
11734W        W25148  14.799   0.617   5.575 -0.0562  0.0799  0.1320
11735W        W25149   8.511  17.111   0.627  0.0060  0.0495 -0.2000
11736W        W25150  12.431   9.207   2.015  0.0637 -0.2002 -0.1328
11737W        W25151  16.993   9.319  16.045 -0.0383 -0.0589  0.1513
11738W        W25152  15.992   7.318   5.922  0.1031 -0.1326 -0.1569
11739W        W25153  16.493  17.467  10.946 -0.0126  0.0306  0.2985
11740W        W25154  11.604   3.380   4.402  0.1353  0.0826 -0.3697
11741W        W25155  17.026  16.977   2.226 -0.1628 -0.0349  0.1075
11742W        W25156  10.785  17.124   0.558 -0.2932  0.0061 -0.0657
11743W        W25157   5.536  17.699  16.178 -0.1554 -0.0454  0.2221
11744W        W25158   3.102  10.999   0.118  0.0562 -0.2229 -0.1601
11745W        W25159  11.790   8.122   5.104 -0.0228 -0.1876 -0.0635
11746W        W25160   3.479   5.913   2.088  0.2806 -0.0859 -0.0248
11747W        W25161   6.153   7.492  14.963  0.1171 -0.2672  0.0696
11748W        W25162   2.461   9.131   4.883 -0.1831 -0.1461  0.1348
11749W        W25163  17.652   0.476   0.510  0.1296 -0.0027  0.1392
11750W        W25164  10.743   5.492  12.274 -0.0401  0.2514 -0.0454
11751W        W25165   3.919  15.341   1.601  0.0095 -0.1422 -0.3978
11752W        W25166   9.915  18.251   5.612 -0.0063  0.1030 -0.1254
11753W        W25167   7.191   0.736   4.910  0.0620  0.0290 -0.0515
11754W        W25168   9.139   2.184  11.479 -0.0825 -0.1689 -0.2240
11755W        W25169   3.534  17.986   3.167 -0.1231  0.0179  0.0399
11756W        W25170  12.994  16.285  10.743  0.0047 -0.1816  0.1027
11757W        W25171  14.415   0.820  12.536  0.2311  0.2964 -0.0574
11758W        W25172  15.061  13.592   1.938  0.1373  0.1082 -0.2120
11759W        W25173   5.163   8.409  12.791 -0.2140 -0.2158 -0.2597
11760W        W25174   8.466  15.668  12.631  0.1688  0.0907 -0.2922
11761W        W25175   9.521   4.115  15.130  0.0676 -0.3833 -0.0745
11762W        W25176  14.045   3.673   2.678 -0.0399 -0.1840  0.0457
11763W        W25177  14.071  17.344   4.293  0.0684 -0.0314  0.1686
11764W        W25178  13.538   6.154   5.612  0.0016  0.1248  0.1712
11765W        W25179  13.010  15.306  12.492 -0.0679 -0.2854 -0.2160
11766W        W25180  16.094  13.309  13.216  0.0451 -0.0291  0.0401
11767W        W25181   7.573   4.553   1.069 -0.1379 -0.1607  0.0509
11768W        W25182   9.256   8.783  15.595 -0.0528 -0.0276  0.0063
11769W        W25183  11.449  12.768  15.962  0.2298 -0.3167  0.1030
11770W        W25184   4.874   2.949   2.094 -0.0370 -0.2003 -0.0127
11771W        W25185  11.831  14.634  15.899 -0.3428 -0.4685 -0.1336
11772W        W25186  13.075  16.114   9.776 -0.1346  0.1570  0.1430
11773W        W25187   9.766  17.648   3.181  0.0136 -0.1761  0.0066
11774W        W25188   7.899  17.546  15.409  0.0833  0.2490 -0.0157
11775W        W25189   0.431   4.059  11.191  0.0311 -0.3916 -0.2997
11776W        W25190   9.603  16.302   5.704  0.1167  0.0428  0.0452
11777W        W25191  16.715  16.673  15.453 -0.0915 -0.0218 -0.1953
11778W        W25192   3.207   1.130   5.315 -0.5225  0.3481 -0.0802
11779W        W25193   1.759   8.061   9.758  0.0492  0.3449 -0.3466
11780W        W25194   5.226  15.654   3.573 -0.3964  0.1807  0.1434
11781W        W25195   7.370   6.871  14.587 -0.1250 -0.1085 -0.3802
11782W        W25196   2.454   8.626   2.309  0.2198  0.1924  0.1881
11783W        W25197  13.175  13.397  10.434 -0.0588 -0.3567  0.3176
11784W        W25198   4.902   1.207   2.616  0.2462 -0.2777 -0.3324
11785W        W25199   0.228  15.104  15.076 -0.0377 -0.2157 -0.2482
11786W        W25200   6.431   1.718  12.900  0.1727 -0.1055 -0.0401
11787W        W25201   3.285   8.978   4.579  0.0988  0.0015  0.2930
11788W        W25202  18.272  12.974   0.814 -0.1160 -0.0300  0.2282
11789W        W25203  13.938  12.166   4.267  0.1875 -0.1015 -0.1372
11790W        W25204  16.603  14.950  11.423 -0.0279  0.0154  0.0008
11791W        W25205  15.759   3.751   5.117 -0.1225  0.1856 -0.1300
11792W        W25206  11.831   2.503  12.429 -0.0979 -0.3435 -0.0392
11793W        W25207  18.010   4.899   5.217 -0.2999 -0.1329  0.0073
11794W        W25208  12.354   9.441  11.285  0.2567 -0.0510 -0.0119
11795W        W25209   8.400  13.520   4.764 -0.1096 -0.0855  0.0039
11796W        W25210   4.669  14.945  14.998 -0.3535 -0.1815 -0.1155
11797W        W25211  15.505   6.915   0.973  0.2153  0.2126  0.0482
11798W        W25212  17.854   7.684  16.063 -0.0303  0.2528  0.1420
11799W        W25213   2.086  13.206  11.506  0.2646  0.1924 -0.0360
11800W        W25214  14.242  13.221  11.753 -0.1521  0.3796  0.0048
11801W        W25215   4.695   6.519  14.783 -0.0570  0.0871 -0.1001
11802W        W25216  12.951   8.049   0.753 -0.0122 -0.0747 -0.0982
11803W        W25217   7.254  14.488  10.968 -0.0784  0.2276 -0.0982
11804W        W25218  10.812  10.799  12.146  0.0993  0.0506 -0.2416
11805W        W25219   9.391   5.519   1.557  0.3005 -0.1100  0.0884
11806W        W25220   3.222   5.817  13.309 -0.1859 -0.1753 -0.0561
11807W        W25221   9.732   7.374  14.667 -0.3416  0.1115  0.2265
11808W        W25222  18.139   3.568   4.782  0.0189  0.1242  0.0647
11809W        W25223   0.792   9.981  12.295  0.1168 -0.0345 -0.0093
11810W        W25224   3.732   7.276   4.379  0.1676  0.0725  0.1627
11811W        W25225  17.583   2.127   4.329 -0.0333 -0.0711 -0.2941
11812W        W25226  16.891   9.226  13.049  0.2230  0.0736  0.1177
11813W        W25227   2.893  10.680   1.686 -0.3344 -0.0424  0.3566
11814W        W25228   4.084   1.195  11.910 -0.1367 -0.3006  0.1484
11815W        W25229   7.973   5.003  14.308  0.2314 -0.0035 -0.3035
11816W        W25230   3.223  17.275  14.110  0.4860  0.1326 -0.1188
11817W        W25231   6.381  17.188  14.440 -0.0326  0.2136  0.1131
11818W        W25232   6.495  15.816  16.154  0.0543 -0.0848  0.1810
11819W        W25233  13.464  17.772   1.049  0.0125 -0.0365 -0.1379
11820W        W25234   5.699  12.247  13.549  0.2622  0.0231 -0.1774
11821W        W25235   0.339   7.439   3.979 -0.0053  0.2563  0.0063
11822W        W25236  15.181  15.736  10.446  0.0667  0.0490 -0.3406
11823W        W25237   3.810   4.565  12.173  0.0752  0.1309 -0.1123
11824W        W25238   4.248  16.146   5.772  0.1400 -0.0711 -0.1077
11825W        W25239   3.679   6.046  14.545  0.2968  0.1373 -0.0917
11826W        W25240   5.241   5.961  15.202  0.1013 -0.1536  0.3992
11827W        W25241  11.128   7.132   4.828  0.1531 -0.1756 -0.2273
11828W        W25242   0.706   2.458   2.704  0.0737  0.2880 -0.0545
11829W        W25243  14.197  11.387   4.782 -0.1333 -0.0103 -0.0570
11830W        W25244   7.466   8.871  13.068 -0.6075  0.1757  0.2075
11831W        W25245  15.218   0.851  11.625  0.0338 -0.0615  0.0287
11832W        W25246   4.196   6.841  15.542  0.0140  0.0347  0.0779
11833W        W25247   6.503   4.985   5.733  0.0266  0.5918 -0.4495
11834W        W25248   6.726   7.897  13.530  0.0460  0.1091  0.0865
11835W        W25249  15.336   9.148  12.035 -0.0860  0.0062  0.3598
11836W        W25250   0.728  14.472  10.024  0.0068 -0.2004  0.0491
11837W        W25251   9.363   3.762   6.095  0.2201 -0.4006  0.3806
11838W        W25252   8.625   9.617  12.582  0.2796 -0.1797 -0.1693
11839W        W25253  10.001   4.542  14.489  0.1038  0.2219 -0.0131
11840W        W25254  18.125  10.953   5.696 -0.0987 -0.2349  0.2920
11841W        W25255   2.615   7.233   1.828  0.0670  0.1464  0.1453
11842W        W25256  13.232   1.021   4.980 -0.1001  0.1955  0.0785
11843W        W25257  10.624   2.466  14.110 -0.1315  0.1739 -0.0224
11844W        W25258   8.659  10.209  13.821  0.3224 -0.4367  0.0877
11845W        W25259  15.466   0.841  12.455  0.0039  0.1381 -0.1507
11846W        W25260   7.556   1.035  13.504  0.1224  0.1546 -0.0835
11847W        W25261  15.753  13.730   0.414  0.1552  0.1135 -0.2863
11848W        W25262   5.092  11.755  13.420  0.0873 -0.0566  0.0850
11849W        W25263   6.419   5.676  15.659 -0.1363  0.1730  0.0521
11850W        W25264  10.138  10.679  11.573 -0.1456  0.2932 -0.5695
11851W        W25265   5.481   2.004   2.090  0.2220  0.3932  0.0957
11852W        W25266  16.222  10.805   2.118  0.0915  0.0906  0.0920
11853W        W25267   2.984  12.830  14.999  0.0073  0.0797 -0.0722
11854W        W25268  17.940   4.051  10.604 -0.1970  0.0020 -0.1777
11855W        W25269  15.041   1.621   1.671  0.3797  0.1484  0.1285
11856W        W25270  12.557   2.732   3.992  0.3942  0.1590 -0.0026
11857W        W25271  17.491   6.131  11.390 -0.2163  0.2114  0.1369
11858W        W25272   0.519   9.548   1.387 -0.2725 -0.2238  0.0559
11859W        W25273   1.902  14.947  12.479 -0.2990  0.1080  0.0655
11860W        W25274   3.457  10.981   4.177  0.0201 -0.2128  0.0674
11861W        W25275  13.653  16.487   3.237  0.1391  0.2085 -0.2192
11862W        W25276   5.758   1.123   3.351  0.1817 -0.1459 -0.0114
11863W        W25277   1.383  13.612   3.438  0.0004 -0.2296  0.1687
11864W        W25278  14.027   9.118  11.653 -0.4956  0.1707 -0.1857
11865W        W25279  14.941  17.047  15.098  0.2182 -0.0663 -0.2083
11866W        W25280  11.451  12.286  15.756  0.1085  0.0257 -0.1472
11867W        W25281   4.172  13.055  13.787 -0.2188 -0.1595  0.0428
11868W        W25282  14.731  14.366  16.139  0.1997 -0.0446 -0.1133
11869W        W25283   1.676  17.297  15.954  0.1426 -0.0151  0.0148
11870W        W25284  11.363  15.471  14.106 -0.0298 -0.2541  0.0919
11871W        W25285  13.445   7.303   3.989 -0.2176  0.0561  0.0788
11872W        W25286   3.273  15.756  10.650  0.1684 -0.2064  0.1534
11873W        W25287  17.188   1.684  14.162 -0.1199 -0.1664 -0.0277
11874W        W25288   2.992  10.719   3.023 -0.1994  0.4313 -0.0990
11875W        W25289   7.265   6.479  10.891 -0.3966  0.0524  0.0267
11876W        W25290   0.972   5.982  16.239  0.0642 -0.4245  0.1563
11877W        W25291  16.186  13.683   1.038  0.0645 -0.1672 -0.3414
11878W        W25292   3.538  16.697   1.535 -0.2431  0.3188 -0.3109
11879W        W25293   0.754   4.725  12.299  0.0383  0.1949  0.1125
11880W        W25294   6.976  14.118   3.661 -0.0912 -0.3673 -0.1077
11881W        W25295   7.650   9.973  13.062  0.5150  0.0798  0.1065
11882W        W25296   7.342   7.118   3.377  0.0575  0.0995  0.0918
11883W        W25297  13.176   1.958  13.446 -0.2485  0.2485 -0.1614
11884W        W25298  14.650   7.239   2.982 -0.2578  0.0861 -0.1613
11885W        W25299  15.490  10.340   2.713 -0.1653  0.3466  0.1176
11886W        W25300   8.057   9.512  11.505  0.0390 -0.1821 -0.2156
11887W        W25301   4.281   4.769  12.119 -0.1003  0.0486 -0.1024
11888W        W25302  17.118   8.270  16.106 -0.0705  0.1423 -0.0281
11889W        W25303   2.180  11.214   1.364  0.2903 -0.4216 -0.4169
11890W        W25304   9.298   6.464   2.461 -0.0489 -0.2405 -0.3050
11891W        W25305   7.529   5.760   0.159  0.1812  0.0920  0.0728
11892W        W25306  13.592   1.330  15.251  0.1996  0.1823 -0.0795
11893W        W25307  15.667  13.236   0.243 -0.1927  0.1113  0.1090
11894W        W25308  16.226   2.979   3.314 -0.0875  0.2482 -0.3647
11895W        W25309   7.732  18.135  10.337 -0.0053  0.2312 -0.2690
11896W        W25310  14.644   2.637  14.010 -0.2553 -0.0215 -0.0021
11897W        W25311  18.369  11.302   4.819 -0.2764 -0.1266 -0.3042
11898W        W25312   3.430   1.643  14.080  0.1897  0.2111 -0.2100
11899W        W25313  16.923   5.462   5.575  0.2729  0.2684  0.0631
11900W        W25314  17.909   2.165  14.326 -0.1512 -0.1361  0.1754
11901W        W25315  14.786  15.909   5.267  0.1568 -0.0714  0.3358
11902W        W25316   1.460  12.798  14.883  0.0770  0.1839  0.3608
11903W        W25317   6.297   5.759   4.762 -0.4732  0.0062  0.1280
11904W        W25318  10.501  12.099  12.288 -0.0541  0.1127  0.4106
11905W        W25319  15.600   8.219   1.279  0.3828  0.1285  0.0000
11906W        W25320   4.274   9.996   3.015 -0.0916 -0.0234  0.2178
11907W        W25321   7.224  14.028  11.094 -0.2061 -0.1597  0.1856
11908W        W25322   8.153   5.043   0.417 -0.3493 -0.2590 -0.0488
11909W        W25323  11.677   3.464  16.013 -0.1054 -0.1354  0.2361
11910W        W25324   8.866   7.514  14.951  0.0379  0.2241 -0.0719
11911W        W25325   2.244  13.280   3.661 -0.1798  0.0664  0.0347
11912W        W25326  12.864  10.412   1.342 -0.1480 -0.3714 -0.1159
11913W        W25327   9.034  14.758   0.627 -0.0550 -0.2698 -0.1512
11914W        W25328  10.221   8.109  13.055  0.2667  0.1628  0.0672
11915W        W25329   4.549  15.455  12.506 -0.2552  0.1053  0.1317
11916W        W25330   1.044   9.324   1.079  0.1111  0.0511 -0.0971
11917W        W25331  17.899  17.143  12.934 -0.1780  0.1234 -0.4069
11918W        W25332  14.958   6.187   5.437  0.0728  0.3293 -0.3651
11919W        W25333  15.707   4.189  14.914  0.2381  0.0700 -0.0705
11920W        W25334   8.310  10.172   0.476  0.1270  0.0856 -0.1938
11921W        W25335  15.603   4.457   3.442 -0.0370 -0.0175 -0.0451
11922W        W25336  11.024   8.270   0.492 -0.2793  0.2294  0.1729
11923W        W25337   1.058  10.303   3.368 -0.1075 -0.0075 -0.2865
11924W        W25338   2.092  12.936   1.040 -0.2025  0.0053  0.1585
11925W        W25339  15.658   2.197   2.023 -0.1911 -0.2297  0.0462
11926W        W25340   9.712   4.704   3.050  0.2754 -0.0301 -0.1698
11927W        W25341   7.630  16.862   1.631 -0.2603 -0.2046 -0.1277
11928W        W25342   3.645  16.095  14.830  0.0464 -0.1427 -0.1403
11929W        W25343  11.412   3.485   1.132  0.0007  0.2447  0.1127
11930W        W25344  11.378  17.795   0.867  0.1756 -0.0614 -0.2014
11931W        W25345  11.295  12.351   0.659 -0.0115 -0.1872 -0.0394
11932W        W25346  11.634  16.093   0.489 -0.3159 -0.0396 -0.0709
11933W        W25347   7.619  12.904   4.669 -0.0677  0.0838 -0.0605
11934W        W25348   4.514  16.835   4.802 -0.2337 -0.1206  0.2158
11935W        W25349  10.544   8.537  15.900  0.1387  0.2140 -0.0811
11936W        W25350  16.071  15.173  14.669  0.0577  0.0690  0.0382
11937W        W25351   1.727  16.354   2.163  0.0133  0.2955 -0.1048
11938W        W25352   1.186  13.231  11.398 -0.1344  0.0764 -0.1632
11939W        W25353   7.440  14.581  10.116  0.0760 -0.0961 -0.2771
11940W        W25354  15.141  16.915   0.915 -0.2042 -0.0512 -0.0853
11941W        W25355   4.448   4.796  11.077  0.0111 -0.1448  0.0049
11942W        W25356   2.911   4.218  14.169  0.1636 -0.0743  0.0658
11943W        W25357  10.924  16.184   1.034  0.0090 -0.0446 -0.1763
11944W        W25358   1.871   8.995   2.013 -0.0923 -0.3180 -0.1728
11945W        W25359   0.508   7.382  14.653  0.0311 -0.1798 -0.1768
11946W        W25360  17.499   2.994  13.003  0.1632 -0.4640 -0.3903
11947W        W25361   1.276  12.856   2.181  0.2508  0.1326 -0.1061
11948W        W25362   8.207  15.998   3.884 -0.1834  0.4231  0.2048
11949W        W25363   9.198   9.717   5.686 -0.1291 -0.1442  0.1141
11950W        W25364  10.927  17.453   9.973  0.0175 -0.1967  0.0024
11951W        W25365   1.211  10.967   0.664 -0.1429 -0.0490 -0.0597
11952W        W25366  12.246  17.739  14.221 -0.0463  0.2142  0.1618
11953W        W25367   0.289   5.347   3.726 -0.0111  0.0771  0.1034
11954W        W25368   4.404   4.758   4.602 -0.0162  0.0752 -0.0583
11955W        W25369  15.508  14.419   5.181 -0.3965  0.1814  0.0247
11956W        W25370  18.261   0.450   2.812  0.1421  0.2108 -0.1251
11957W        W25371  17.188  10.826  11.817  0.1199 -0.3557 -0.0280
11958W        W25372  17.341   4.894   2.578  0.1507  0.1682  0.0449
11959W        W25373   4.953   0.119   6.261  0.1449  0.0612 -0.0823
11960W        W25374  13.301  18.315  10.790  0.2355  0.0079 -0.0652
11961W        W25375  16.470   7.491   3.049 -0.3471  0.3333  0.0924
11962W        W25376  11.725  18.475   1.203  0.0705  0.1674  0.0727
11963W        W25377   6.616  11.553   2.233 -0.1111 -0.0303 -0.0037
11964W        W25378   6.511   6.660  14.917 -0.2096 -0.2925  0.0597
11965W        W25379  12.281  14.363   2.311 -0.1421  0.1565  0.1126
11966W        W25380   6.167  12.373  11.037 -0.1450  0.3175 -0.0149
11967W        W25381   6.887   4.648   3.166  0.0676  0.1029  0.0403
11968W        W25382   1.821   4.963   3.073  0.2398 -0.0229  0.0858
11969W        W25383   2.808   7.203  11.246 -0.0855 -0.1653 -0.0398
11970W        W25384  14.423  18.469   2.998 -0.0030  0.4004  0.0539
11971W        W25385  16.624   6.116  13.877 -0.0953 -0.0738  0.3167
11972W        W25386   0.310  17.668  14.909  0.2802 -0.1029  0.0391
11973W        W25387   4.815  11.017  13.371  0.1722  0.0502 -0.0753
11974W        W25388   7.726   1.989  16.129  0.1647  0.1510 -0.0636
11975W        W25389   0.572   7.233  10.261 -0.0035  0.3714  0.0758
11976W        W25390  14.033  18.274  16.213 -0.4138  0.2119  0.0699
11977W        W25391   2.225   7.701   0.975 -0.0044  0.0049 -0.1974
11978W        W25392   3.218  11.947  15.254  0.1426 -0.3729  0.1996
11979W        W25393   2.341  11.783   0.192  0.0445 -0.1280 -0.2302
11980W        W25394  14.757  15.193  11.529 -0.1084 -0.3270 -0.1728
11981W        W25395   5.714   9.572   4.716  0.0521 -0.3883  0.5425
11982W        W25396   7.773   5.618  14.442  0.0864  0.1304  0.0882
11983W        W25397  16.696   8.639  10.573  0.0097 -0.2719 -0.0313
11984W        W25398  17.516  10.198   3.393 -0.2594  0.0116  0.1521
11985W        W25399   5.914   6.680   5.072 -0.0538  0.2718 -0.6726
11986W        W25400   5.139   8.141  13.505  0.3541  0.0784  0.4559
11987W        W25401   2.609  13.114  10.499  0.0395  0.0308 -0.0366
11988W        W25402   3.398   5.054   4.130 -0.2262  0.1057 -0.0412
11989W        W25403   5.841   6.114   0.966 -0.0987  0.3017  0.1236
11990W        W25404   2.032   8.974   0.631 -0.1633 -0.1820 -0.1722
11991W        W25405  12.434  16.801   4.287 -0.0340  0.3416 -0.2315
11992W        W25406  17.372   7.174  11.621  0.2308 -0.1793  0.3264
11993W        W25407   4.132   8.907   1.233  0.0917 -0.3059 -0.3232
11994W        W25408   3.582  10.769  12.766  0.2705 -0.1098  0.0381
11995W        W25409  14.830   9.660  10.622  0.0408 -0.2981 -0.0635
11996W        W25410  17.831   3.699  11.640  0.3623 -0.1864  0.3195
11997W        W25411  18.132   3.017   3.450  0.0394 -0.0474 -0.0697
11998W        W25412  10.837  18.182   3.718 -0.0581 -0.1733  0.0282
11999W        W25413   0.999   6.487   2.918  0.2355  0.0877 -0.2146
12000W        W25414   8.896  11.466  14.273  0.1630 -0.1649 -0.2685
12001W        W25415  12.843   4.752   5.229 -0.0217  0.1929  0.1731
12002W        W25416  15.853   7.385   2.395  0.1470 -0.1519  0.3816
12003W        W25417   4.317  13.849   0.195  0.0415  0.0455  0.1041
12004W        W25418  17.038  14.084   0.596 -0.2456  0.0896  0.1040
12005W        W25419  15.923   6.840  11.292  0.1127  0.1293  0.3912
12006W        W25420   9.599  17.543  12.724  0.1051  0.0090  0.2285
12007W        W25421   8.366   4.909  10.984  0.2899  0.0484 -0.0713
12008W        W25422  14.880   1.442  14.066 -0.2741 -0.1479  0.0379
12009W        W25423  13.442   6.034  10.749  0.1872  0.3496  0.2076
12010W        W25424   8.362   6.035  11.982 -0.0296 -0.0027 -0.1709
12011W        W25425  13.971  10.552   3.696  0.0883 -0.0984  0.1778
12012W        W25426  12.219  10.252   2.393 -0.1169 -0.0327 -0.0326
12013W        W25427  16.528  16.246  12.683  0.4368 -0.1054 -0.0602
12014W        W25428  14.211   0.159   2.199 -0.2068  0.0208  0.2757
12015W        W25429  14.657  18.431   5.939  0.0308 -0.2507  0.0257
12016W        W25430   7.240  13.257  10.181  0.5200  0.2225 -0.2427
12017W        W25431   3.417   1.397   4.531 -0.2076  0.0450 -0.1826
12018W        W25432  14.987  13.487  13.459  0.0315  0.0708 -0.1167
12019W        W25433  14.666   5.816   4.061  0.2063  0.0117  0.1308
12020W        W25434   0.302   7.091   4.961  0.0979 -0.0198 -0.0117
12021W        W25435   6.870  15.366   3.487 -0.1554  0.1525  0.1047
12022W        W25436  17.467   5.472  14.653 -0.2297  0.1303  0.2209
12023W        W25437   4.854   9.488  12.584  0.1925 -0.0298 -0.0985
12024W        W25438   2.384  15.617   4.403  0.0246  0.0205 -0.0338
12025W        W25439  17.631  13.872   5.379  0.0263 -0.1812  0.0060
12026W        W25440  17.649   2.918   6.071 -0.0189 -0.1351 -0.3449
12027W        W25441  16.416  11.253   2.394 -0.0473 -0.3310 -0.1739
12028W        W25442  10.791   7.786   5.500  0.3834  0.0812  0.1316
12029W        W25443   5.078   4.079  14.036 -0.0102 -0.2677 -0.0975
12030W        W25444  10.179   3.951  13.465 -0.0796 -0.1120 -0.0094
12031W        W25445  15.891   2.781  14.761  0.1447 -0.2621  0.1205
12032W        W25446  16.092   6.092  12.924  0.0456  0.1194  0.1687
12033W        W25447  11.258   1.288  16.231 -0.0421  0.1731 -0.0532
12034W        W25448  17.829   9.096   2.971 -0.0311 -0.2265 -0.1052
12035W        W25449  15.940   5.562  13.616  0.0167 -0.1405  0.1736
12036W        W25450   5.341   1.893  15.295 -0.0279  0.0342 -0.1597
12037W        W25451   0.693   4.493   4.937 -0.2559 -0.0677 -0.0635
12038W        W25452  17.966   3.177  15.276 -0.1029  0.1755  0.0820
12039W        W25453   1.597  10.438   0.862 -0.2994 -0.1737 -0.2001
12040W        W25454  17.998   1.700  13.111 -0.1500 -0.1024 -0.6225
12041W        W25455  11.845   8.569   4.705 -0.1066  0.0648 -0.1866
12042W        W25456   2.031  14.143   1.967  0.0106  0.0402  0.0896
12043W        W25457  10.075   7.877   0.474 -0.0757  0.0710  0.1316
12044W        W25458  10.657   3.210   1.704  0.0682  0.0210  0.0004
12045W        W25459  12.360   5.570   1.267 -0.1049 -0.0476  0.1306
12046W        W25460  16.591   2.422   2.169  0.1117 -0.0489  0.0629
12047W        W25461  13.222  11.652   0.408 -0.2731  0.1082  0.1301
12048W        W25462  16.260  10.806   2.640 -0.1528 -0.1925 -0.3427
12049W        W25463  12.019   3.685   0.046  0.2957  0.2453 -0.0349
12050W        W25464  15.990   7.868  15.190  0.1144 -0.1250 -0.1074
12051W        W25465   6.199   0.588  11.791  0.3255 -0.0827 -0.0024
12052W        W25466   2.317  10.320  11.032 -0.2853  0.1038 -0.3867
12053W        W25467  16.688   5.733   3.752  0.0257 -0.1010 -0.0954
12054W        W25468  16.554  16.800   1.094 -0.2850 -0.2556 -0.0999
12055W        W25469  12.413  15.553  14.494  0.1037 -0.2984 -0.0100
12056W        W25470   6.285  17.090  13.554  0.3600 -0.1761  0.0279
12057W        W25471  12.839   4.160   3.058 -0.3785 -0.1566 -0.2008
12058W        W25472   8.110  12.387  11.987  0.0597 -0.1119  0.1526
12059W        W25473   5.897  16.498  12.137 -0.0337  0.1513 -0.1428
12060W        W25474  12.698   5.474  11.379  0.0839 -0.0128 -0.1070
12061W        W25475  17.897   7.485  10.898 -0.1767  0.1170  0.1261
12062W        W25476   7.315  15.023  14.252 -0.1921  0.1509  0.0513
12063W        W25477   1.187   2.414   4.236 -0.1295  0.2568 -0.0363
12064W        W25478   5.430  10.333   2.535 -0.0049 -0.1819  0.2454
12065W        W25479   0.587   2.824   4.205 -0.2521  0.3414  0.1162
12066W        W25480  11.003  16.195  12.788 -0.1611  0.0599 -0.0005
12067W        W25481   5.436   6.704  11.080  0.0390 -0.0706 -0.0134
12068W        W25482  11.303   7.891   0.146  0.3279 -0.2466  0.0010
12069W        W25483   3.871   8.612  13.385  0.1383  0.1399  0.2821
12070W        W25484  13.961  10.085  13.203 -0.1763 -0.1044 -0.2358
12071W        W25485   9.124  17.372  13.971 -0.2519  0.0346 -0.0766
12072W        W25486   8.470  12.962  12.670  0.1341 -0.0207  0.1886
12073W        W25487  10.457   1.733   5.643 -0.0785 -0.1612  0.0126
12074W        W25488  16.274   0.242  14.097  0.2195 -0.1522  0.3488
12075W        W25489  17.995  10.228   0.234  0.0789  0.1467  0.2260
12076W        W25490   8.733  10.814   1.994  0.1542 -0.1224  0.1385
12077W        W25491   2.163   6.427  12.120  0.0531  0.3252  0.0041
12078W        W25492   8.382  17.555   2.691 -0.3997 -0.1338  0.1735
12079W        W25493   8.037   1.534   3.733  0.0762 -0.0212 -0.0690
12080W        W25494   8.787   7.275   0.022  0.0268 -0.3633 -0.0122
12081W        W25495  10.522   6.837   5.925  0.2612  0.2279 -0.3652
12082W        W25496  16.133   2.412  15.608 -0.0905  0.0058  0.1368
12083W        W25497   2.375  15.002  14.535 -0.1390  0.0107  0.3300
12084W        W25498  11.175   8.390  14.098 -0.1535  0.1704  0.4830
12085W        W25499  12.059  13.814  12.985 -0.2275  0.1656 -0.2354
12086W        W25500  11.648   2.603   4.252 -0.0771 -0.1768  0.1532
12087W        W25501   3.399  17.590   4.921 -0.2671  0.0643 -0.0203
12088W        W25502  15.052   4.100  10.265 -0.2438 -0.3349  0.2991
12089W        W25503   7.115  10.680  14.053 -0.4067  0.2969 -0.0132
12090W        W25504   1.048  12.400   5.415 -0.1150 -0.0891  0.2118
12091W        W25505   2.194   6.227   5.544  0.2712 -0.3363 -0.0991
12092W        W25506   5.831  11.803   1.232 -0.1652 -0.0615 -0.2832
12093W        W25507   8.311   1.921  12.145 -0.1775 -0.0093  0.3031
12094W        W25508   4.188  12.167   0.400 -0.0850  0.1753 -0.0610
12095W        W25509   7.991   8.922  13.058  0.5032 -0.2444  0.2878
12096W        W25510  13.708   6.789  10.476 -0.0731  0.2557  0.1153
12097W        W25511   7.946  17.623   2.099 -0.1466  0.2115  0.2155
12098W        W25512   6.549   3.425   2.435  0.3142 -0.1202 -0.2656
12099W        W25513  16.579   9.221  13.630 -0.0484 -0.2866  0.1357
12100W        W25514  13.774  15.053  10.812  0.1083 -0.1351  0.1623
12101W        W25515  16.124   6.006   6.486  0.3041  0.1664 -0.2318
12102W        W25516  16.297   3.861   0.202  0.3992 -0.0598 -0.3329
12103W        W25517  13.984   8.858   4.279  0.1525  0.0929 -0.1382
12104W        W25518   2.397  13.558   1.710 -0.0891 -0.1554 -0.2287
12105W        W25519  15.005   9.683  12.540 -0.0568  0.0991 -0.3973
12106W        W25520   1.994  12.509  11.298  0.0255  0.0110  0.2474
12107W        W25521   1.916   7.774  14.154  0.1958 -0.1502  0.0409
12108W        W25522   6.445  15.124   2.019 -0.0985 -0.1128 -0.0198
12109W        W25523  16.024  12.536   0.089 -0.1510  0.1671  0.2704
12110W        W25524  13.380  11.550  11.674  0.0155  0.0927 -0.0893
12111W        W25525  11.540   0.869  15.027 -0.2587 -0.0809  0.1902
12112W        W25526  16.811   9.032  11.627  0.2026 -0.0664  0.0553
12113W        W25527  13.564  10.160  15.114 -0.0768  0.0781  0.1776
12114W        W25528   7.774  17.088  11.186 -0.1898 -0.1295  0.2952
12115W        W25529  18.414  16.322  12.514 -0.1286 -0.2549 -0.0933
12116W        W25530  17.430   2.889   2.371 -0.2157 -0.2217  0.1199
12117W        W25531   7.974   1.860   4.901 -0.0684  0.1619  0.1803
12118W        W25532  11.409  13.776  13.633 -0.1997  0.1097 -0.0242
12119W        W25533   9.479   3.396  14.427 -0.0898  0.1767  0.1385
12120W        W25534  16.830   2.522  12.508 -0.0734  0.2069 -0.1621
12121W        W25535   1.098  16.947  11.432  0.3660  0.4846  0.2056
12122W        W25536   2.102  10.244  15.752 -0.0395 -0.0142 -0.1028
12123W        W25537  14.849  11.189  11.745 -0.0804  0.0250  0.3318
12124W        W25538  17.986  11.377  10.617 -0.1393  0.0965 -0.0876
12125W        W25539  14.380   7.471   4.323  0.0693  0.0428 -0.1466
12126W        W25540  10.144  14.904  13.341  0.1200 -0.2394  0.3012
12127W        W25541  11.809  11.688  10.971  0.0158  0.0566  0.2069
12128W        W25542  10.883  15.385  15.583 -0.1413 -0.0533  0.0481
12129W        W25543   3.226   8.948   1.720 -0.0994 -0.0842 -0.1504
12130W        W25544  14.047   2.199  13.325  0.1883 -0.0331  0.3187
12131W        W25545   4.551  11.770  15.546  0.2039  0.2362 -0.0750
12132W        W25546  13.933  14.555   1.684  0.3316 -0.2580 -0.1296
12133W        W25547  11.865  14.023  12.549 -0.4325 -0.1261 -0.0000
12134W        W25548   0.912  17.829   2.659  0.0030 -0.1771  0.0711
12135W        W25549  13.036  16.492  16.013  0.1101  0.2511  0.1473
12136W        W25550   9.502   2.489   6.280  0.2183 -0.0102  0.5264
12137W        W25551   8.915  13.293   0.067 -0.0527  0.1829 -0.4041
12138W        W25552   5.345  13.701   0.575 -0.0554  0.1460 -0.4006
12139W        W25553   4.820  15.592  15.958  0.1500 -0.1142 -0.4297
12140W        W25554   7.807   1.373  15.584  0.0317 -0.0196  0.0419
12141W        W25555   7.475   5.720  12.418 -0.0783 -0.1933 -0.1150
12142W        W25556   9.696  11.274  13.679  0.0354 -0.0089  0.1965
12143W        W25557   8.342  17.697  10.063  0.1826  0.1781  0.0550
12144W        W25558   0.142   1.856   0.413  0.1854  0.0154 -0.2024
12145W        W25559   7.213   3.754   1.281 -0.0845 -0.4947  0.0625
12146W        W25560   2.965   6.681   6.004 -0.0353  0.0928 -0.0729
12147W        W25561   8.034  10.748   2.344  0.0650  0.4969  0.0263
12148W        W25562  18.058  12.117   0.519 -0.0143 -0.2355 -0.0110
12149W        W25563  14.382   2.064  14.991 -0.1019  0.0722 -0.1507
12150W        W25564  16.471  13.712   6.019  0.0665 -0.0712  0.1340
12151W        W25565  14.782  13.051   2.937 -0.0070 -0.0281  0.0115
12152W        W25566  13.527  10.029   6.767  0.1599  0.2001 -0.0136
12153W        W25567   8.874  18.126  12.959  0.1558 -0.1496  0.0060
12154W        W25568   3.432   4.030   2.136 -0.0953  0.1502  0.0167
12155W        W25569   1.797   5.307  15.187 -0.1144 -0.3116 -0.0128
12156W        W25570  13.884   1.514   0.874  0.0722  0.1289  0.1216
12157W        W25571   9.288   4.966  13.770 -0.0086  0.1142 -0.0062
12158W        W25572   1.074   0.350  13.898  0.0416 -0.1819 -0.2420
12159W        W25573   0.563  15.847   3.654 -0.1071 -0.1363 -0.1246
12160W        W25574  14.574  18.162  15.087  0.0629 -0.1590  0.0559
12161W        W25575  10.341  14.151  15.781 -0.2991 -0.0044  0.0037
12162W        W25576  11.687   1.637   3.195 -0.0763  0.2031 -0.1787
12163W        W25577   2.190   7.683   6.639 -0.1474 -0.0407  0.1147
12164W        W25578  16.335  18.101  11.998 -0.0846  0.1514  0.0751
12165W        W25579  17.251  17.886   2.262 -0.1467  0.1828 -0.0962
12166W        W25580  14.327   7.634   3.233 -0.0334 -0.0038 -0.0516
12167W        W25581  12.756  12.381  15.587 -0.0868  0.3939 -0.2132
12168W        W25582  17.192   4.197  12.704  0.0302 -0.0736  0.0203
12169W        W25583   9.426   1.123  13.291  0.1564 -0.0506  0.1121
12170W        W25584   0.281  15.041   5.313 -0.2122  0.0630  0.0198
12171W        W25585   5.938   1.767   0.420 -0.2476 -0.1437  0.3805
12172W        W25586  16.979   0.450  11.324  0.0945  0.2898  0.0329
12173W        W25587  18.432   5.007   1.950 -0.0034 -0.4507 -0.0665
12174W        W25588   2.257   0.682   5.745 -0.2504  0.2328  0.0896
12175W        W25589  14.011  18.157  12.124 -0.1273  0.4445  0.0532
12176W        W25590  13.794   2.704   4.637 -0.0147  0.5155 -0.0384
12177W        W25591   3.359   0.947  15.206  0.1077 -0.4114 -0.4163
12178W        W25592   3.124   6.845  14.371 -0.3079  0.0802 -0.0936
12179W        W25593  11.699   9.658   4.984 -0.3178 -0.0533  0.5673
12180W        W25594  10.449  16.116   1.919 -0.0279  0.2374  0.0458
12181W        W25595   5.517  13.518  10.770 -0.3118 -0.6002  0.0492
12182W        W25596  14.787   0.975   0.005 -0.0387 -0.1808  0.0329
12183W        W25597  16.429   0.461   1.043 -0.2070 -0.3379  0.3139
12184W        W25598   1.644  10.670  13.060 -0.0237  0.0063 -0.1885
12185W        W25599  17.421  11.048  16.227  0.0978  0.0582  0.2283
12186W        W25600   3.102   5.259   3.767  0.1107  0.1863  0.2087
12187W        W25601  13.968   6.103  15.256  0.3387 -0.1787 -0.1999
12188W        W25602   0.952  16.422  11.643 -0.0777 -0.1413 -0.2404
12189W        W25603  16.888  12.848  13.524 -0.0390  0.0149 -0.1463
12190W        W25604  17.841   3.449  13.425  0.2108 -0.2339  0.1473
12191W        W25605  10.810   7.834  10.587  0.3031  0.1174 -0.1305
12192W        W25606  14.818  13.113  15.520 -0.2033 -0.0470 -0.1870
12193W        W25607   6.952  12.300   3.640  0.3014 -0.1276  0.2199
12194W        W25608  13.414   2.450   2.117  0.0824  0.0063 -0.0613
12195W        W25609   0.888  11.335   0.534  0.1645  0.0336 -0.2491
12196W        W25610  11.407  15.678  11.667  0.0479 -0.2054 -0.1827
12197W        W25611  14.082  12.009  11.911  0.1050  0.1877  0.1272
12198W        W25612  14.387   9.399   3.179  0.0725  0.2727  0.2130
12199W        W25613   4.267   2.873  11.488  0.2453  0.2230  0.0558
12200W        W25614   2.577  11.833  14.455  0.0664 -0.3539 -0.0667
12201W        W25615   1.410  10.392   3.030  0.3101  0.0777  0.0717
12202W        W25616  15.242  16.884   2.379 -0.2316 -0.0755 -0.0069
12203W        W25617  10.915  10.357  15.346 -0.0282  0.2287  0.0623
12204W        W25618  16.480   9.449  12.712  0.1018 -0.3397 -0.1665
12205W        W25619   4.282  11.472   4.285  0.1209 -0.0800  0.1436
12206W        W25620   0.451   0.464   0.524  0.3169 -0.2613 -0.3530
12207W        W25621   6.436  17.593  14.129 -0.2260  0.2378  0.0052
12208W        W25622   9.639  18.251   0.918 -0.3068  0.1248  0.0534
12209W        W25623  14.320  14.918   5.804  0.0652 -0.0734  0.0948
12210W        W25624   0.434   6.575  15.640  0.0096 -0.2306 -0.2312
12211W        W25625   4.299   4.714   3.784  0.1961 -0.2032 -0.0420
12212W        W25626  16.822   4.264   2.326 -0.2428  0.2171  0.0305
12213W        W25627  17.023  17.534  12.660  0.1250  0.2445  0.1259
12214W        W25628   0.980  14.021  11.711  0.0805  0.0145  0.2049
12215W        W25629   0.957  13.743   0.485  0.1595 -0.3357  0.2124
12216W        W25630   7.004   4.037  10.976 -0.1302 -0.1729  0.0498
12217W        W25631   2.634  10.468  13.873  0.1579  0.1034 -0.0417
12218W        W25632   1.869  14.082  12.969 -0.0420 -0.0845 -0.1819
12219W        W25633   6.490  10.954  10.909 -0.1648  0.2961  0.1470
12220W        W25634   6.518   5.093   3.450  0.1432  0.0315 -0.0886
12221W        W25635   6.484  17.232  16.048  0.0892 -0.0011  0.2236
12222W        W25636   8.453   0.821  13.082  0.1550  0.0592  0.1603
12223W        W25637  13.912  15.517  15.331 -0.0753  0.0195 -0.1428
12224W        W25638   0.342  17.920  14.464 -0.2424 -0.0850 -0.2827
12225W        W25639  14.093   7.809   9.921 -0.0043  0.2768  0.2058
12226W        W25640  16.873  14.613  11.723 -0.0174 -0.1359  0.1166
12227W        W25641  14.137   7.018   1.361 -0.4216 -0.0613  0.1577
12228W        W25642   9.843  15.158  12.991 -0.0296  0.1817  0.1385
12229W        W25643  13.074   5.723  15.108  0.1936 -0.0493  0.4799
12230W        W25644   1.923   3.441  12.839  0.2446 -0.0785  0.1154
12231W        W25645   0.774  14.250   0.917 -0.0686  0.2000  0.0771
12232W        W25646   9.458  13.130  13.178 -0.1373  0.0203 -0.0296
12233W        W25647  15.775  11.078  14.671  0.1688  0.0130  0.0837
12234W        W25648   9.682  13.178   1.999  0.0651  0.1030 -0.1919
12235W        W25649   2.561   4.728  10.969  0.1593 -0.1390  0.0550
12236W        W25650   1.653   5.942   1.757 -0.1610 -0.1308 -0.0239
12237W        W25651   0.874   0.035  11.229  0.0147 -0.2511 -0.2114
12238W        W25652  10.908  11.789  11.338 -0.3158 -0.2223 -0.2301
12239W        W25653   8.552   1.557  11.632 -0.5529  0.2099  0.0554
12240W        W25654   0.810   9.658  15.348  0.4237  0.0756  0.0774
12241W        W25655  15.313  13.881  15.591  0.0038 -0.2578  0.2085
12242W        W25656   2.962   6.252   0.798 -0.1069 -0.4118 -0.0155
12243W        W25657  16.737  16.934  13.314 -0.0199  0.2406  0.0870
12244W        W25658  14.961  12.780   6.118  0.2248  0.0825  0.1879
12245W        W25659  10.433   7.712   4.859  0.2036 -0.3850  0.0794
12246W        W25660  17.035   9.465  15.526  0.0805  0.0395  0.2474
12247W        W25661   9.769   5.712  13.856 -0.0556  0.1631  0.0255
12248W        W25662  13.003  17.744   0.604  0.2181 -0.2448 -0.0143
12249W        W25663  11.389   0.633  14.624  0.0403 -0.1336  0.1846
12250W        W25664   5.365   1.834  14.639 -0.0382 -0.0218  0.1988
12251W        W25665   0.255  11.032   5.037 -0.3813 -0.0448 -0.1079
12252W        W25666   4.153  16.499   4.571  0.0988  0.0121 -0.2420
12253W        W25667   3.470   7.716   4.233 -0.1614 -0.2245 -0.0031
12254W        W25668   0.083   3.999   0.056 -0.3265 -0.1845 -0.2740
12255W        W25669   3.900   7.533  14.431 -0.2677 -0.1720  0.1861
12256W        W25670   5.790   6.460  12.132 -0.2594 -0.3628  0.1776
12257W        W25671  12.410   3.059  11.833  0.1985  0.0158 -0.1941
12258W        W25672  12.288   0.970   0.625  0.0569  0.1593  0.3503
12259W        W25673  12.609   4.337  10.812  0.1435 -0.1606 -0.1628
12260W        W25674  11.608  14.332   4.642 -0.0682 -0.3495  0.0769
12261W        W25675  16.872   9.189  12.462  0.0908 -0.1621 -0.0604
12262W        W25676   2.848   1.281  12.942 -0.0857  0.0630  0.4422
12263W        W25677  11.958   6.985   3.621 -0.1645 -0.2806 -0.0843
12264W        W25678   1.206  16.608  15.470 -0.1263  0.0901  0.3064
12265W        W25679   8.472  11.952  15.826 -0.2271  0.2103  0.0499
12266W        W25680  14.615   1.242  14.433 -0.0301  0.0178  0.2652
12267W        W25681  12.713   6.862  11.814  0.0831  0.1142  0.0422
12268W        W25682  16.578  10.412   3.576 -0.2265  0.2959 -0.2438
12269W        W25683  15.370   5.108  15.887 -0.3163  0.0690 -0.2385
12270W        W25684   2.789   4.761  16.030 -0.1866 -0.1802 -0.2658
12271W        W25685   6.263   6.242  15.165  0.3096 -0.0396 -0.0101
12272W        W25686   2.872   0.357   0.435  0.1515 -0.1103  0.2090
12273W        W25687   4.957  16.694   2.329 -0.1328 -0.1302 -0.0092
12274W        W25688   8.887  11.914  16.130  0.3449 -0.1796  0.2839
12275W        W25689  14.294   4.729  15.940 -0.1160 -0.0178 -0.1262
12276W        W25690  18.136   2.576  11.133  0.1584 -0.1374  0.1467
12277W        W25691  14.409   1.094  14.943 -0.1345  0.0287  0.1356
12278W        W25692  13.814  16.180  11.704  0.0839 -0.3747  0.3188
12279W        W25693   4.144   7.039   4.188 -0.2676  0.1284 -0.1031
12280W        W25694   2.759  17.422   4.190 -0.0028  0.0101 -0.1590
12281W        W25695  13.453  12.215   1.678  0.1392 -0.1658 -0.0470
12282W        W25696   6.217  12.485   2.266 -0.0316 -0.1151  0.2278
12283W        W25697   4.125   0.877   4.176  0.4210 -0.1605 -0.0701
12284W        W25698  17.658   8.758  11.899 -0.1615  0.0481  0.1469
12285W        W25699   3.327  15.776  12.847  0.0917  0.2484 -0.0375
12286W        W25700  15.590   3.426  11.985  0.1285 -0.0400  0.2360
12287W        W25701  17.583   0.919   1.116 -0.0330  0.0231 -0.0260
12288W        W25702   3.437   8.494  13.051  0.0996  0.2438  0.1963
12289W        W25703  11.248   4.380  10.956 -0.3371 -0.3211  0.0449
12290W        W25704  14.288   9.309  13.617 -0.1390  0.1831 -0.2196
12291W        W25705  16.495   0.924   5.248  0.5276  0.0701 -0.5442
12292W        W25706  14.573   8.876  13.749 -0.2666  0.2132 -0.0305
12293W        W25707   5.362   1.684  14.063  0.2714 -0.0777  0.0407
12294W        W25708  12.889  16.698   1.983 -0.2906  0.2852 -0.1741
12295W        W25709  13.441  16.729   4.482  0.3338 -0.4111  0.1777
12296W        W25710   9.882   6.969   3.782  0.1985 -0.1183 -0.0066
12297W        W25711  15.424  12.108   4.198 -0.0722  0.1425 -0.0649
12298W        W25712  16.898   9.128   5.981  0.0750 -0.2874 -0.0020
12299W        W25713   4.733   3.424   1.818  0.2355 -0.1331 -0.0457
12300W        W25714   5.581   7.430  10.055  0.2438 -0.2493 -0.1858
12301W        W25715   0.894  17.450   0.209  0.1010 -0.0865 -0.2266
12302W        W25716  18.074  11.917   3.231 -0.0763 -0.1471 -0.0458
12303W        W25717   3.718   9.817   4.019  0.0325  0.0976  0.1019
12304W        W25718   3.387   0.983   1.816  0.0215  0.2719  0.0800
12305W        W25719  16.227   8.761   4.388 -0.0346  0.4157 -0.0588
12306W        W25720   8.770  16.334  13.642  0.0594 -0.1610  0.2715
12307W        W25721  10.580  14.822   0.056  0.0898  0.3093 -0.0121
12308W        W25722   3.112   7.521  11.583  0.0843 -0.0019 -0.1740
12309W        W25723  16.147  16.186   9.571 -0.0749 -0.0246  0.2384
12310W        W25724  15.485   2.897  10.939  0.0122  0.0594 -0.0533
12311W        W25725   8.689  11.247  10.895  0.0457 -0.2324 -0.2780
12312W        W25726  11.379   4.786  16.170  0.4125 -0.2045 -0.0949
12313W        W25727   3.621  16.440   2.412  0.0235 -0.0712 -0.1368
12314W        W25728  10.820   9.562   3.295 -0.2015 -0.0714 -0.0878
12315W        W25729   7.211   6.429  10.343 -0.0148 -0.1067  0.2939
12316W        W25730  15.595  14.966  10.659 -0.0782  0.1103  0.0232
12317W        W25731   5.234  17.606   2.469 -0.2668 -0.0706 -0.0963
12318W        W25732   3.381   8.648   0.150 -0.1194  0.1674 -0.0914
12319W        W25733  16.595   0.538   4.188 -0.2765  0.1680  0.1468
12320W        W25734  17.981   2.421   4.172 -0.0729 -0.0643 -0.0926
12321W        W25735  12.183  14.400   0.923  0.0411  0.0119 -0.4478
12322W        W25736  13.861   2.419   4.040 -0.0398 -0.2489  0.1707
12323W        W25737   7.054  12.820  10.147  0.0211 -0.1788 -0.2262
12324W        W25738   6.826  11.480  15.112  0.1327  0.2718 -0.2042
12325W        W25739  12.559  10.911  12.471 -0.0409  0.2011 -0.0071
12326W        W25740   3.713   8.657  16.056 -0.2386  0.2607  0.1437
12327W        W25741   5.691  17.076   9.785 -0.1885 -0.2384 -0.0190
12328W        W25742  11.882   0.638  14.667 -0.0080  0.0358 -0.3655
12329W        W25743  16.425   5.873   4.836  0.2273 -0.0570  0.0848
12330W        W25744  10.719   4.265  11.714 -0.1910  0.0153 -0.1290
12331W        W25745  17.996   8.546  14.869  0.0959  0.1614 -0.1082
12332W        W25746  16.704   8.445  15.406  0.0136 -0.0501 -0.0993
12333W        W25747   4.720   8.481  13.479  0.3438  0.2494 -0.0705
12334W        W25748   9.305   6.210  15.575  0.1928 -0.0981 -0.0964
12335W        W25749  12.348   1.806   4.554  0.3006  0.3526 -0.0409
12336W        W25750   9.176  14.472   2.057 -0.0886 -0.0292 -0.0915
12337W        W25751   9.855   3.480  14.884  0.1739 -0.4639  0.0595
12338W        W25752   3.171   0.772  13.605  0.1901  0.1700  0.0398
12339W        W25753  13.258  10.574   0.530 -0.2798  0.4113 -0.1925
12340W        W25754  14.160   8.472   1.162 -0.2692 -0.2700 -0.0136
12341W        W25755  17.470  11.874  13.945 -0.1338 -0.3171 -0.2846
12342W        W25756   4.190   9.583  13.317 -0.0991 -0.0994 -0.2112
12343W        W25757  11.470   4.844   4.708 -0.0118  0.1987 -0.0058
12344W        W25758   9.568   0.009  10.330 -0.0759  0.0392 -0.1666
12345W        W25759   5.221   6.896   5.527 -0.2487  0.0825  0.0010
12346W        W25760  12.946  10.448  16.039  0.0640 -0.2228 -0.0075
12347W        W25761  12.868   7.604  11.015 -0.0950 -0.1337 -0.0029
12348W        W25762  15.044  17.374   2.236 -0.0161  0.4053  0.1767
12349W        W25763  10.958  16.097   1.673 -0.1407  0.1434  0.0731
12350W        W25764  12.993   6.934   0.415 -0.0834 -0.1128  0.0209
12351W        W25765   0.254   4.693   5.121  0.0973  0.0221  0.1815
12352W        W25766  17.558  17.603   5.938  0.0119  0.0056 -0.1639
12353W        W25767   0.173   8.441   4.051  0.0885  0.1115 -0.0077
12354W        W25768  12.855  10.133   2.914  0.1343 -0.1514  0.3797
12355W        W25769   6.894   5.128   0.730 -0.2334  0.2502 -0.0700
12356W        W25770   9.517  16.850  14.755  0.0481  0.0541 -0.1527
12357W        W25771  10.298  11.944  11.786 -0.1086 -0.1033 -0.3320
12358W        W25772   2.039   6.624   0.665 -0.0269 -0.3126  0.1630
12359W        W25773   7.911  13.605  10.953 -0.1109  0.2372 -0.0513
12360W        W25774   7.547   5.767   2.592  0.0191  0.0535 -0.0733
12361W        W25775   7.973   9.745   4.021 -0.2321  0.2025  0.0675
12362W        W25776  12.859   2.415   2.049 -0.1059  0.1367 -0.1576
12363W        W25777  17.277   5.505   3.195 -0.2898  0.0332 -0.1172
12364W        W25778   1.203   6.491  10.953  0.1105  0.2444 -0.0855
12365W        W25779  12.515  10.184   0.528  0.1022  0.2330  0.0443
12366W        W25780   1.548   7.487  16.099  0.1661 -0.1819  0.1340
12367W        W25781  12.974  13.832   1.312  0.0580 -0.0287 -0.3179
12368W        W25782  12.053  12.446   4.581 -0.0803 -0.1693 -0.1805
12369W        W25783   0.070  15.137  11.735 -0.1256 -0.3562 -0.1412
12370W        W25784   1.987  13.914  11.307  0.0649 -0.1041  0.2759
12371W        W25785  14.206   4.166   2.656 -0.0809 -0.1514 -0.0243
12372W        W25786  15.319   7.546   0.848 -0.3600 -0.1923  0.2374
12373W        W25787  12.215   6.012  10.857  0.2636 -0.2079 -0.0252
12374W        W25788  17.313  12.541  15.093  0.1896  0.0504 -0.1304
12375W        W25789   2.057  11.228   0.792 -0.1721 -0.0398 -0.0976
12376W        W25790   4.941  17.580   0.529  0.0647 -0.3302 -0.0140
12377W        W25791  17.856  17.526   0.524 -0.0904 -0.3323  0.2674
12378W        W25792   9.815  17.953   0.450 -0.0484  0.0734 -0.1773
12379W        W25793  16.687   8.111  13.610 -0.0795  0.1459 -0.1160
12380W        W25794  16.354  10.481  12.579 -0.3579  0.0967 -0.3415
12381W        W25795   0.865  18.103   4.850 -0.2190  0.0917 -0.3015
12382W        W25796  15.267   1.898  13.181 -0.1528 -0.4579 -0.0737
12383W        W25797  13.728  14.168   4.620  0.0114 -0.3002  0.1764
12384W        W25798  11.588   8.809   5.857 -0.3013  0.0882  0.0096
12385W        W25799  16.783  12.305   2.919  0.1179  0.0220 -0.1104
12386W        W25800  16.220  14.510   3.929 -0.1238  0.0890 -0.0517
12387W        W25801   5.079   6.846   1.662 -0.1027 -0.0892 -0.1121
12388W        W25802   3.736  10.629   2.716  0.0758 -0.1246  0.3279
12389W        W25803   8.673   3.308  11.466  0.0578 -0.3691  0.2650
12390W        W25804   0.046   7.044   4.083  0.1407  0.0288 -0.0518
12391W        W25805  13.299  14.235   0.622  0.3004  0.0905 -0.1097
12392W        W25806   8.762   8.430  13.474  0.3026  0.0610 -0.0969
12393W        W25807  12.719  15.235   4.126  0.0958  0.0461  0.1884
12394W        W25808  18.127  16.145   1.108  0.2341 -0.0449  0.4031
12395W        W25809   9.243   5.471  13.516 -0.0030  0.2918  0.1059
12396W        W25810   2.291  10.388  12.644  0.2634  0.1658  0.1828
12397W        W25811   5.899  13.981   4.833  0.0471 -0.1098  0.0942
12398W        W25812   4.778  15.467  15.002  0.1121  0.0790  0.1055
12399W        W25813   4.650   1.052  14.075 -0.3130  0.0166  0.0477
12400W        W25814   8.396   2.680   0.164  0.0453  0.0894 -0.0709
12401W        W25815  17.932  11.267  13.638 -0.4083  0.0564  0.1178
12402W        W25816   1.771   0.427  15.911  0.1328  0.0286  0.3830
12403W        W25817  11.563   9.155   6.710 -0.0096  0.1168  0.2104
12404W        W25818  18.008   6.528   3.742  0.1458 -0.0769  0.3726
12405W        W25819   7.730  13.106  14.428 -0.0451 -0.0735 -0.1607
12406W        W25820  16.506  12.585   1.557 -0.0791  0.0836 -0.0918
12407W        W25821  11.320  18.097   3.589  0.1188 -0.0204 -0.2098
12408W        W25822   7.439  11.930  13.196 -0.0603 -0.0514 -0.0262
12409W        W25823   6.560  10.367  10.863  0.0144 -0.0823 -0.0606
12410W        W25824   1.657   0.389  10.804 -0.0457  0.1186  0.2173
12411W        W25825   8.783   5.105   2.882  0.0023  0.1029  0.0056
12412W        W25826   5.432  10.298  11.605  0.1688  0.0148  0.2887
12413W        W25827  15.093  13.193   5.038 -0.0728  0.2731 -0.1925
12414W        W25828  17.284   7.108  15.204 -0.1257 -0.0066 -0.0169
12415W        W25829   2.933   9.687   9.920  0.0599 -0.0288 -0.1968
12416W        W25830   5.284  15.580   1.482 -0.1766 -0.1604  0.1469
12417W        W25831   1.266  13.519  10.948  0.1336  0.3454  0.4509
12418W        W25832   1.605   2.193   2.938  0.0108  0.3926  0.0696
12419W        W25833  18.072  17.008   4.134  0.1884  0.1117  0.1114
12420W        W25834   9.428   8.796  13.001 -0.2794  0.3034  0.2082
12421W        W25835   7.560   0.238   2.099 -0.0057  0.2354 -0.3156
12422W        W25836   1.070  15.837  11.535 -0.1875 -0.1235  0.0662
12423W        W25837   0.806  13.070   1.993  0.1896  0.2166  0.1387
12424W        W25838   4.336   8.599   2.163  0.2452  0.0170 -0.0079
12425W        W25839  16.136  18.195  13.706  0.1246 -0.0955  0.2400
12426W        W25840   5.035   9.173  16.227  0.1323 -0.1288 -0.2372
12427W        W25841   4.677   3.810   4.404  0.2188  0.0689 -0.2456
12428W        W25842   8.335   7.788   2.992 -0.0712 -0.0055  0.1346
12429W        W25843  15.855   2.748   2.999 -0.1705 -0.1222  0.1240
12430W        W25844  14.504   5.264   1.176  0.1463 -0.4118  0.1930
12431W        W25845   8.713  14.150   4.898 -0.1311 -0.1651  0.4444
12432W        W25846   9.640  14.979   0.919  0.1792  0.0334  0.1908
12433W        W25847   5.873  13.285  14.185  0.2549  0.1845  0.0802
12434W        W25848   6.144   8.682  11.914  0.2288 -0.2937  0.0413
12435W        W25849   0.548  12.992  14.157  0.4518  0.0544  0.2399
12436W        W25850   6.190  16.364  14.814 -0.1673 -0.0566 -0.1492
12437W        W25851  11.037   6.715  13.655  0.1917  0.2843  0.0683
12438W        W25852   2.959  12.217   2.681  0.0719 -0.0113  0.0750
12439W        W25853  17.927   2.190   6.508  0.0327  0.0325 -0.0559
12440W        W25854  13.315   4.919   4.131  0.1685  0.0664  0.1239
12441W        W25855  10.851  13.909   2.200  0.0011  0.1421  0.2241
12442W        W25856  12.489  12.446   2.723 -0.1311 -0.0396 -0.0169
12443W        W25857   9.190  16.764  11.313 -0.0857 -0.0947  0.3927
12444W        W25858   1.724  18.001  12.110 -0.0835 -0.2441  0.2288
12445W        W25859   4.625   5.446   2.766 -0.1861 -0.1965  0.1474
12446W        W25860  16.271   9.449   0.370 -0.2277 -0.0075  0.0908
12447W        W25861   3.608  16.904  15.303 -0.5075  0.2210 -0.0754
12448W        W25862   6.493  14.214   5.764  0.0972  0.2700  0.2114
12449W        W25863   8.821   7.817   0.014 -0.2576 -0.3424 -0.2870
12450W        W25864  14.624   6.262  15.193  0.0378  0.0133  0.0945
12451W        W25865   3.902  11.703  12.753 -0.0872 -0.1395 -0.1481
12452W        W25866   7.374   7.764  14.453 -0.1923 -0.1380  0.2152
12453W        W25867   7.910  17.432   9.944  0.2984 -0.0629 -0.1187
12454W        W25868  17.418   3.239  14.223  0.2336  0.1607  0.2323
12455W        W25869  15.285  14.528  11.352  0.2995 -0.0779  0.1479
12456W        W25870   9.369  12.678   0.026  0.1833  0.1816 -0.0331
12457W        W25871   0.572  10.482  14.790 -0.0704  0.2333  0.1528
12458W        W25872  16.691  11.884   0.238  0.1713  0.0935  0.1208
12459W        W25873   8.838   1.453  13.045  0.0269  0.0184 -0.0372
12460W        W25874  11.310   9.289   4.641  0.0569 -0.2954  0.4192
12461W        W25875   5.031   3.258  12.278  0.0023 -0.1405  0.2763
12462W        W25876  15.445   7.996   4.824  0.1357  0.0351  0.1257
12463W        W25877  12.054   1.508  10.349 -0.0837 -0.3101 -0.1489
12464W        W25878   1.523  12.529   3.731 -0.0103 -0.3860  0.0488
12465W        W25879   7.824   0.556   4.791  0.1707 -0.4522 -0.2754
12466W        W25880  17.413  14.274  15.907 -0.1899  0.1362  0.3181
12467W        W25881   2.159   8.356  15.838 -0.0297  0.2264  0.0984
12468W        W25882  11.417   4.074  15.208  0.2823 -0.0330  0.1711
12469W        W25883  12.865   2.345  14.390 -0.1679  0.0940  0.2592
12470W        W25884   3.382  17.221  15.588 -0.3020 -0.0586 -0.1901
12471W        W25885  11.810   6.109  13.398  0.1666 -0.2547 -0.0128
12472W        W25886  14.169   6.379  13.002 -0.0077  0.1733  0.1253
12473W        W25887   5.568  13.555   2.665 -0.1293  0.2603  0.0095
12474W        W25888   7.147   3.435  12.849  0.0839  0.2415 -0.0559
12475W        W25889  11.098   1.086   3.362  0.0225  0.0138 -0.3192
12476W        W25890   0.242   0.441   6.185  0.1215  0.0379 -0.0163
12477W        W25891   8.578   7.343   4.603 -0.0351  0.1455 -0.3093
12478W        W25892  18.294  18.120   3.441  0.0367  0.0630  0.0536
12479W        W25893   7.574  12.444  10.681 -0.0935 -0.0227 -0.1302
12480W        W25894  15.439  15.501   0.604  0.2314 -0.2638  0.1906
12481W        W25895  10.993  16.136  11.176  0.0924 -0.1610  0.2641
12482W        W25896   7.670  10.072   3.675 -0.1427 -0.0258 -0.3669
12483W        W25897   6.691   9.114   0.237 -0.2006  0.2011  0.1494
12484W        W25898   5.705   1.523   2.798 -0.0954 -0.1092 -0.1462
12485W        W25899  17.968   9.275   5.677  0.0346  0.1428  0.0961
12486W        W25900  17.004   5.082   4.644  0.1356 -0.2478  0.1619
12487W        W25901   8.795  16.780   5.896  0.0716  0.2072 -0.0063
12488W        W25902  11.606   5.000   0.984 -0.2803 -0.0563  0.0744
12489W        W25903   4.311   6.171   2.139 -0.1162  0.0124  0.0459
12490W        W25904   5.347   6.380  14.218  0.1889 -0.0910 -0.0474
12491W        W25905   7.917   1.877   1.311 -0.1522 -0.0789  0.1399
12492W        W25906   8.853   6.226   5.323 -0.3176 -0.0734 -0.0240
12493W        W25907   0.811  13.297  12.256 -0.2183 -0.0358  0.2259
12494W        W25908  12.925   6.080  13.365 -0.1500  0.0285 -0.2094
12495W        W25909  17.573   2.102  11.728  0.2477 -0.0995  0.2752
12496W        W25910  13.491  18.376   4.543 -0.3534 -0.0924  0.0199
12497W        W25911   2.609  14.458  12.624 -0.5078  0.3465 -0.0790
12498W        W25912   7.968  16.618  10.266  0.0348  0.2873 -0.0294
12499W        W25913  11.264   4.109  13.530  0.1781 -0.0362  0.1712
12500W        W25914   2.839   5.105   0.269 -0.1031  0.0860  0.1527
12501W        W25915  10.766   2.426   4.103 -0.2927  0.1851  0.3406
12502W        W25916   6.122   3.889  11.091  0.0428  0.0753  0.1220
12503W        W25917   1.288   9.688  14.658  0.0095  0.1586  0.0330
12504W        W25918   7.760   7.797   2.970 -0.0582  0.1652 -0.1847
12505W        W25919  18.038  11.859   1.696 -0.3464  0.0497 -0.0319
12506W        W25920   4.680   0.572  13.786 -0.4004 -0.1573  0.0069
12507W        W25921  16.314   7.491   5.025 -0.2726 -0.0045 -0.2565
12508W        W25922   9.512  14.975  11.258  0.3034 -0.1558  0.1524
12509W        W25923  16.535   0.567  15.533  0.0713 -0.1498 -0.3085
12510W        W25924   8.874   4.210  11.378  0.2277  0.1961 -0.2905
12511W        W25925  15.062   3.652  10.964  0.1542  0.1447 -0.0157
12512W        W25926  11.118  14.174  11.980 -0.3169  0.0922 -0.0515
12513W        W25927  15.360   9.356   0.234  0.3367  0.2129  0.1381
12514W        W25928  14.157   1.970   2.665 -0.1339  0.0882 -0.0557
12515W        W25929   5.936   1.984  11.145 -0.1957  0.3322 -0.0025
12516W        W25930  11.881  15.215   1.050  0.0532  0.1704  0.0399
12517W        W25931   3.199   5.317  15.888 -0.1444  0.0911  0.1333
12518W        W25932  11.358   0.296   2.846 -0.2335 -0.0933  0.0178
12519W        W25933   0.081   0.554   4.149  0.2233  0.1813 -0.2571
12520W        W25934  17.346   4.996   3.610 -0.2471 -0.0706  0.0632
12521W        W25935  17.433  14.471  10.647  0.0721  0.2268 -0.1845
12522W        W25936  17.992   8.635   3.630  0.4724 -0.2991 -0.0010
12523W        W25937   2.847   5.513  13.595  0.1716 -0.1134 -0.0149
12524W        W25938  17.343  15.150   3.543 -0.0562 -0.0642  0.1724
12525W        W25939   3.423  12.647   5.262 -0.2056  0.1480  0.3149
12526W        W25940  12.098  14.204  11.235  0.0937 -0.1843  0.1595
12527W        W25941   7.302   5.952  10.373  0.1231 -0.0189  0.0274
12528W        W25942  12.804  17.103   5.789 -0.0019 -0.1755  0.4858
12529W        W25943   4.609  10.680  11.284  0.0956  0.0986  0.1658
12530W        W25944   2.807   2.137   2.924 -0.0280 -0.1254  0.0627
12531W        W25945   3.690   9.043  14.930 -0.1078 -0.0905  0.1685
12532W        W25946  10.979   2.945   4.918 -0.0374 -0.3007  0.0331
12533W        W25947   4.467  10.725   5.350 -0.0416  0.2164  0.0860
12534W        W25948   5.633  11.231  12.584  0.0782 -0.0407 -0.0294
12535W        W25949  12.975   3.327  11.279 -0.1951 -0.1051  0.1311
12536W        W25950  10.813  13.957  15.356 -0.1211  0.2810  0.3416
12537W        W25951   0.101  16.031   1.157  0.1768 -0.3105  0.3147
12538W        W25952  15.918  15.549  12.869  0.1476 -0.0063  0.1620
12539W        W25953   2.831  15.950  10.916  0.1236 -0.0491 -0.2263
12540W        W25954   6.536   4.626  10.430  0.1398 -0.2511 -0.0407
12541W        W25955  17.758   0.142   5.467  0.2395 -0.2225 -0.0298
12542W        W25956   9.924   8.250  14.233 -0.1273  0.2093 -0.2388
12543W        W25957  10.610   3.931  12.902 -0.0108 -0.1800  0.2676
12544W        W25958  15.098   8.053  10.748  0.0796 -0.0562  0.3574
12545W        W25959  14.898  17.944   2.503 -0.2348 -0.1838 -0.1241
12546W        W25960  12.490   9.191   6.411  0.2457 -0.1075  0.2135
12547W        W25961   5.185  14.455   5.017 -0.2020  0.1206 -0.2194
12548W        W25962  15.341   8.293  12.642 -0.0342 -0.0124  0.1690
12549W        W25963  17.089  11.896  12.654 -0.3289  0.4424 -0.2145
12550W        W25964   7.718   1.549   1.655 -0.0782 -0.0226 -0.1002
12551W        W25965  12.205  10.642   0.735 -0.0753  0.1416  0.0394
12552W        W25966  14.332   2.674   3.798 -0.0016  0.2007  0.1338
12553W        W25967  15.576  15.636   0.133  0.0388 -0.0588  0.0802
12554W        W25968  15.809   9.885   2.567  0.1630 -0.0539  0.2434
12555W        W25969  13.421   4.670   0.772 -0.3223 -0.3359  0.1763
12556W        W25970  16.040   8.325   2.686  0.2075  0.4148  0.1154
12557W        W25971  13.057   5.269  13.941  0.2560  0.1466  0.1042
12558W        W25972  15.992  10.342  11.736  0.2227 -0.0839  0.0198
12559W        W25973   3.362   2.836  16.073 -0.2348  0.1743 -0.1937
12560W        W25974   2.252  17.422  13.653 -0.0077 -0.3049 -0.2088
12561W        W25975  13.062   4.580  15.553 -0.2234 -0.0792 -0.2168
12562W        W25976   1.060  15.739  13.490 -0.0311 -0.1740  0.1850
12563W        W25977  17.877   3.337  11.233  0.0144  0.1956 -0.2197
12564W        W25978   6.266  16.767  11.063  0.3304 -0.2320 -0.1626
12565W        W25979   3.771  13.041  10.272 -0.0881 -0.1693 -0.0160
12566W        W25980   1.350  10.736   4.851 -0.0548  0.2376 -0.3475
12567W        W25981  17.753   3.154   3.077  0.2096  0.0723 -0.0972
12568W        W25982   8.092   9.775  12.888  0.2018  0.0179  0.0090
12569W        W25983   2.674   5.795  10.245 -0.1335  0.2088 -0.0111
12570W        W25984  10.938  17.009   5.175  0.1540 -0.5471 -0.0303
12571W        W25985  15.676   0.903  10.145  0.3298  0.0145  0.0652
12572W        W25986  14.402   7.132  15.507  0.1817  0.0075 -0.1555
12573W        W25987   9.224  13.302   0.992 -0.2046  0.2934 -0.1338
12574W        W25988   9.698   9.873   0.099  0.2798  0.0537 -0.1849
12575W        W25989  15.556  16.042   1.918  0.0608  0.0747 -0.2767
12576W        W25990   7.907   4.538   5.571 -0.2659  0.1080  0.1743
12577W        W25991  14.057   2.421   3.485 -0.3455 -0.2651 -0.0368
12578W        W25992  13.649   6.121   4.105  0.1067  0.2398 -0.2188
12579W        W25993   5.776  16.097  13.008 -0.2341 -0.1991  0.1979
12580W        W25994   5.259  14.345   1.808 -0.1802  0.0025  0.0551
12581W        W25995  16.930   4.541   4.613  0.0946 -0.0227 -0.4332
12582W        W25996   2.164   3.836  11.120 -0.1366  0.1497 -0.2493
12583W        W25997  12.338   8.830   6.070 -0.0850 -0.1733  0.0339
12584W        W25998   5.288   8.483   5.416 -0.2541  0.0727  0.0339
12585W        W25999   0.536   1.451  11.840 -0.3634  0.2691 -0.0250
12586W        W26000   7.826   6.220  15.133 -0.1919 -0.0069 -0.0178
12587W        W26001  14.857  12.224  14.593  0.1491  0.0048  0.2283
12588W        W26002   1.854   3.845   1.854 -0.1482  0.0661 -0.1387
12589W        W26003   3.334   7.065   5.860 -0.1992 -0.2712  0.0503
12590W        W26004   0.539  18.248  10.740  0.1299  0.1082 -0.1657
12591W        W26005   0.138   4.841  15.034 -0.1120 -0.0703 -0.1266
12592W        W26006  10.347   2.439   3.763 -0.2470 -0.0869 -0.0418
12593W        W26007  12.723   0.786   5.951  0.2451 -0.0069 -0.0191
12594W        W26008   4.030   7.424   3.864 -0.1302 -0.1718  0.0676
12595W        W26009   1.265   2.804  14.052  0.0620  0.0370 -0.0452
12596W        W26010   4.590  10.270   3.568 -0.1629 -0.0603 -0.0704
12597W        W26011   3.611   1.072   4.840 -0.0699  0.0008 -0.0078
12598W        W26012  17.391  12.476  11.567 -0.2464 -0.0809 -0.1695
12599W        W26013   9.665   2.178   3.738  0.2169 -0.1135 -0.0910
12600W        W26014   9.781   4.273  15.945  0.1516  0.0268 -0.0120
12601W        W26015   4.026  15.922  14.425  0.1059 -0.3269  0.3973
12602W        W26016   1.871   7.524   3.632 -0.0077  0.3946  0.2791
12603W        W26017   0.922   0.692  14.888 -0.0559  0.0683  0.0586
12604W        W26018   1.594  11.278   4.841 -0.0771  0.2266 -0.0117
12605W        W26019   4.611   8.112   5.547 -0.0432 -0.0303  0.0414
12606W        W26020   9.841  11.868  11.124  0.2920  0.0474  0.3054
12607W        W26021  10.387   5.894   5.070  0.3180  0.1282  0.1863
12608W        W26022  11.663   0.301  14.956 -0.2170  0.1223  0.0311
12609W        W26023   2.725   2.183   2.094 -0.2140  0.0861  0.0092
12610W        W26024  11.259   5.835   2.133 -0.0547  0.0257 -0.1862
12611W        W26025   9.005   8.274   5.151 -0.2768  0.2717 -0.1690
12612W        W26026  14.810  14.851   0.019  0.0900 -0.0142  0.2775
12613W        W26027   8.078  16.021  11.086 -0.1399 -0.0675  0.3319
12614W        W26028  11.870   2.438  13.244  0.4867  0.1411 -0.1298
12615W        W26029  17.956   1.921  11.107 -0.0819 -0.0331  0.3635
12616W        W26030   4.787   3.097   3.162 -0.0470  0.0942  0.0959
12617W        W26031  14.868  12.571  14.937  0.1623  0.2063  0.2107
12618W        W26032   8.607  15.908  15.252 -0.0753 -0.0202  0.0407
12619W        W26033   7.576   9.757   5.920  0.0841  0.1527 -0.2316
12620W        W26034   6.706  15.570  12.102  0.1077 -0.0387 -0.3009
12621W        W26035   1.540   1.342   2.818 -0.0911  0.0704 -0.0467
12622W        W26036  16.450  14.010   1.371 -0.1744  0.2453  0.0240
12623W        W26037   3.347   6.308   3.840  0.1407 -0.1590 -0.2907
12624W        W26038  13.328   7.381  11.864  0.3174  0.0316 -0.0968
12625W        W26039   9.031  10.052   2.665 -0.0484  0.2739  0.1105
12626W        W26040   9.374  11.700   0.301  0.0650 -0.0706  0.2219
12627W        W26041  18.078   4.817   2.239  0.0404  0.1671 -0.1873
12628W        W26042  11.885  15.554   2.664 -0.0145  0.0237  0.1317
12629W        W26043   8.692   5.894  11.081  0.0058  0.1335 -0.1337
12630W        W26044  13.752  12.583   4.756 -0.0354  0.2557 -0.1014
12631W        W26045   1.701   7.036   3.494 -0.0369  0.1045  0.2337
12632W        W26046   8.610   7.171   5.324  0.0287 -0.1649  0.3034
12633W        W26047   9.153   7.512  15.462  0.1248  0.0343 -0.2936
12634W        W26048  13.671  12.672   2.534 -0.2708  0.0671  0.1018
12635W        W26049   5.108  14.293  12.549 -0.0151  0.1186  0.1376
12636W        W26050  13.223   5.445   4.965 -0.1702  0.1439 -0.0009
12637W        W26051   1.202  13.405  14.097  0.1439  0.4216 -0.1065
12638W        W26052  12.322   4.572  15.117 -0.0358  0.2100 -0.0261
12639W        W26053   0.705   9.808   2.653 -0.2811  0.3255  0.0222
12640W        W26054   9.692   2.035   6.101 -0.1920  0.0513 -0.0983
12641W        W26055   7.377  14.325  13.079  0.0990  0.2586  0.1067
12642W        W26056  12.176   2.176  16.078  0.0492 -0.0813  0.0023
12643W        W26057  16.762  10.212  12.097 -0.0246 -0.2057 -0.1135
12644W        W26058   8.278  14.132   5.362 -0.2295  0.1874  0.0987
12645W        W26059   4.287   6.148  12.445  0.1255 -0.0747  0.0512
12646W        W26060   0.597  10.671   0.302  0.1684 -0.1267  0.2943
12647W        W26061   7.356   0.973  16.150 -0.4036  0.2438  0.1065
12648W        W26062   4.549  17.263   0.643 -0.0264 -0.1655 -0.0020
12649W        W26063   6.785  11.021  15.471  0.4210  0.2053 -0.1450
12650W        W26064  16.931  12.144   5.094  0.2131  0.3089  0.0295
12651W        W26065  12.776   1.623  11.494 -0.1352  0.1130 -0.4709
12652W        W26066  12.256  17.186   4.538  0.0498  0.2740  0.2749
12653W        W26067  10.063   7.520   0.859 -0.4368 -0.1824 -0.1248
12654W        W26068   1.493  15.590   2.787  0.2943  0.1136 -0.0012
12655W        W26069   1.891  10.884  10.946  0.1900  0.3511 -0.0146
12656W        W26070   0.963   4.186   0.570  0.1112  0.1583  0.1373
12657W        W26071   6.356  12.465   0.360  0.3665  0.0157 -0.1093
12658W        W26072   2.608   6.783   5.598 -0.0974 -0.0235 -0.2589
12659W        W26073  15.393   5.863   0.231  0.2388 -0.0062 -0.0065
12660W        W26074  12.892  11.299  11.847  0.2404 -0.0450 -0.0542
12661W        W26075   9.859   8.644  13.218  0.1073  0.2196 -0.1578
12662W        W26076   2.142  13.112  12.017 -0.1020  0.0071 -0.1420
12663W        W26077  16.014  14.056   2.309 -0.2234  0.1092  0.1577
12664W        W26078   7.534   3.079   3.303 -0.1989 -0.1311  0.0463
12665W        W26079  11.378  16.441   3.159  0.1469  0.1722 -0.1178
12666W        W26080   7.395   5.935   4.716 -0.0216 -0.0603 -0.1965
12667W        W26081   7.292  18.268   5.171 -0.4145 -0.0520 -0.0014
12668W        W26082   9.388   8.226   3.371  0.2349 -0.1371  0.2303
12669W        W26083  10.610   0.924   3.290 -0.0123  0.0895 -0.0328
12670W        W26084   1.077   6.572  12.029 -0.3345 -0.0387  0.0578
12671W        W26085   7.467   5.964  11.992 -0.0466  0.2772  0.0474
12672W        W26086  15.013   0.388   4.715 -0.0775  0.0331  0.0130
12673W        W26087  14.582  17.357  15.425  0.0834 -0.1340  0.0189
12674W        W26088  16.650  12.298   2.005  0.0154 -0.0245  0.2956
12675W        W26089  12.625   8.065   4.199  0.1010 -0.1031  0.0515
12676W        W26090  12.637  18.177   1.671 -0.2253  0.0844  0.3210
12677W        W26091   9.377  13.412   5.205  0.3116 -0.1035 -0.3721
12678W        W26092   0.103   5.112  11.131 -0.1601  0.1935  0.2971
12679W        W26093   0.421   1.380   4.663  0.0674 -0.3581  0.2183
12680W        W26094  13.336  14.350   3.222  0.0660  0.3562 -0.0516
12681W        W26095   1.564   8.688   2.389 -0.0944 -0.1828  0.1891
12682W        W26096   7.968   1.571  10.795 -0.2381  0.1281 -0.0249
12683W        W26097   7.952   0.783  12.931  0.0126  0.1401 -0.0369
12684W        W26098   2.468   9.349  15.010 -0.2159 -0.0613  0.1297
12685W        W26099   5.860  15.259  13.047  0.0543 -0.1002  0.0317
12686W        W26100  10.620  10.781   0.274  0.1200  0.2137  0.0948
12687W        W26101   8.314   9.619   0.473  0.0625 -0.0045  0.0138
12688W        W26102   1.367   0.515   6.330  0.0249 -0.2717 -0.1225
12689W        W26103  12.238   5.936  16.031 -0.1599  0.0654 -0.1107
12690W        W26104  18.449  10.802   4.737 -0.0740  0.1853 -0.2894
12691W        W26105   9.717   1.255  12.407 -0.3734 -0.0290  0.0797
12692W        W26106   2.277  16.712  12.986  0.1372 -0.0409  0.3567
12693W        W26107   4.464   3.461  11.529 -0.2082  0.3719 -0.0152
12694W        W26108  17.220  15.029   0.257 -0.1925  0.0536 -0.2461
12695W        W26109  15.785  14.595   3.153 -0.2758 -0.0217 -0.1767
12696W        W26110  16.803  17.693  11.290  0.1443  0.2844  0.1893
12697W        W26111  13.401   8.174   1.600  0.1173 -0.0428 -0.1905
12698W        W26112  11.187   9.135   1.758 -0.2015  0.0289 -0.0900
12699W        W26113   3.751   7.147  15.960  0.2134  0.1524 -0.0344
12700W        W26114   1.363  11.518   5.537  0.1471 -0.2258 -0.0703
12701W        W26115  13.470  10.843   2.549 -0.3602 -0.2811  0.1619
12702W        W26116   2.956   3.856   0.688 -0.0195  0.5855 -0.3316
12703W        W26117   0.282   0.464  15.534 -0.2102  0.0774 -0.0117
12704W        W26118   1.125   3.582  15.677  0.2427  0.1823  0.0039
12705W        W26119   7.695  14.107  12.202 -0.0572  0.2664 -0.1570
12706W        W26120   9.976  17.313   1.115 -0.0151 -0.0317  0.2445
12707W        W26121   5.384  13.999  10.653  0.1625  0.3313 -0.1920
12708W        W26122  11.232  12.650   5.111  0.0308 -0.2029  0.1503
12709W        W26123  12.650  17.469  14.322  0.0115 -0.0620 -0.1443
12710W        W26124   5.704  14.268  12.313  0.0355  0.0328  0.0537
12711W        W26125   9.678  14.750  15.865  0.2074 -0.1885 -0.2740
12712W        W26126   2.522   3.023  12.306  0.1291 -0.0740 -0.3642
12713W        W26127  12.955  12.645   2.445 -0.0428  0.0585 -0.0864
12714W        W26128   4.868  17.977  11.801  0.0922  0.2818  0.0295
12715W        W26129   5.932  10.325   5.004  0.5479  0.1204 -0.4033
12716W        W26130   4.239   0.792  14.125 -0.4275 -0.0115  0.0399
12717W        W26131  14.609   0.099  11.914 -0.1121 -0.2685 -0.1017
12718W        W26132   4.044   5.398  10.463 -0.0283  0.2608 -0.1657
12719W        W26133  17.676   9.670   5.815 -0.1348 -0.1095  0.0272
12720W        W26134   8.113   7.366   3.254  0.1536 -0.3338  0.0184
12721W        W26135   0.420   2.188   6.248 -0.4351  0.3188  0.1094
12722W        W26136   7.024  14.573  10.468 -0.1697 -0.3701  0.1796
12723W        W26137  18.076  17.069   1.654 -0.0513  0.4220  0.0441
12724W        W26138   0.723  15.347   3.779  0.1149  0.0814 -0.0051
12725W        W26139  10.129  10.437  13.662  0.1444 -0.2366 -0.1806
12726W        W26140   6.531   5.944   1.723 -0.2215 -0.4688  0.2867
12727W        W26141  11.582   6.135   0.390 -0.0685  0.0236 -0.1787
12728W        W26142  14.695  17.196  15.900  0.2381 -0.2021 -0.1406
12729W        W26143  16.858  14.535   1.437 -0.0270  0.2522 -0.1946
12730W        W26144  11.148   6.790  14.940 -0.2479 -0.0279  0.0599
12731W        W26145  18.277   1.447   1.167  0.0102 -0.1857  0.0515
12732W        W26146   0.051  14.811  15.443  0.1526 -0.1523  0.1270
12733W        W26147   1.515  11.581   3.812 -0.2442 -0.0568  0.1578
12734W        W26148  11.440   9.209   2.592 -0.1888  0.0513  0.1056
12735W        W26149   9.328   6.492   0.330 -0.0348 -0.1502  0.1074
12736W        W26150  15.963   3.852  13.557  0.1062  0.0254  0.3551
12737W        W26151  15.286   4.364   2.146  0.0766 -0.1488  0.2114
12738W        W26152  11.598  18.174  12.948 -0.2234 -0.2622  0.0717
12739W        W26153  17.200  13.775   5.172  0.1971 -0.1233 -0.0344
12740W        W26154  14.378  17.107  13.343  0.2423 -0.2739 -0.2132
12741W        W26155   6.029  13.828   2.509  0.0580 -0.0913  0.1837
12742W        W26156   8.562  14.925  13.378 -0.3832 -0.2225 -0.1856
12743W        W26157   4.938   3.018  13.863  0.2487 -0.2835 -0.2364
12744W        W26158  10.869   6.573  11.033 -0.4234 -0.1256  0.0733
12745W        W26159   8.677   7.532   1.529  0.0620  0.3239 -0.0722
12746W        W26160  16.300  17.147  14.064  0.0332  0.1925 -0.1809
12747W        W26161  10.803  11.765  11.848 -0.0302  0.0102 -0.0818
12748W        W26162  16.500  17.061   4.562 -0.1509 -0.0240 -0.2370
12749W        W26163   0.120  12.533   0.203 -0.2040 -0.1765  0.1947
12750W        W26164  15.815   6.164   1.673 -0.0735 -0.1969  0.0297
12751W        W26165   1.359  14.889   4.712  0.0940 -0.1777 -0.0970
12752W        W26166   1.592   3.653  14.413  0.1092 -0.1942  0.5753
12753W        W26167  18.186   6.736  11.280 -0.0785  0.2312 -0.0444
12754W        W26168  16.504  15.839  15.370  0.5136  0.0051 -0.1570
12755W        W26169  16.004  18.253   0.097  0.2109  0.0882 -0.0680
12756W        W26170  13.368   4.390   3.207 -0.0583 -0.0426  0.0666
12757W        W26171   3.378   0.438  11.680  0.1207 -0.0061  0.0438
12758W        W26172  13.231  13.099  11.645  0.1212 -0.1175 -0.0201
12759W        W26173   9.999   5.025  16.031 -0.0445 -0.1296  0.2011
12760W        W26174  12.570   8.284   0.468  0.1414  0.1265 -0.3299
12761W        W26175   0.885  13.699   5.319  0.1468  0.0072 -0.0738
12762W        W26176  13.042  16.158  14.791  0.3301 -0.1972 -0.0303
12763W        W26177  18.436   9.856   4.528 -0.0980 -0.0193 -0.3872
12764W        W26178  15.561   7.410  16.085  0.5455 -0.1372 -0.1034
12765W        W26179  15.725   0.513   0.631  0.0444  0.2686  0.1693
12766W        W26180  12.320   3.216  14.765  0.1320  0.2290 -0.1001
12767W        W26181   4.306  16.161   1.958 -0.2219 -0.1848  0.0661
12768W        W26182   5.791   1.828  15.564 -0.2660 -0.4617  0.0515
12769W        W26183  17.423  17.127  15.463 -0.0338  0.0166  0.2269
12770W        W26184   5.645  15.134   1.498  0.1002  0.1439 -0.3738
12771W        W26185  11.314   0.437  15.864 -0.2220 -0.0860 -0.0328
12772W        W26186  13.773  15.723   4.845  0.3761  0.1076 -0.1321
12773W        W26187  12.965   8.364   3.381  0.0135 -0.0480  0.3341
12774W        W26188  10.752  16.419  14.964 -0.1779  0.1234 -0.0839
12775W        W26189  15.238   4.040  12.456 -0.2067  0.0931  0.0017
12776W        W26190   2.857   9.730  14.082 -0.0224 -0.3601  0.2935
12777W        W26191  14.635   5.818   3.264  0.2211  0.4631 -0.1456
12778W        W26192   0.774   4.161   2.361  0.0562 -0.1320 -0.1662
12779W        W26193  14.045   4.037  10.044  0.2781  0.0855  0.0851
12780W        W26194   4.864  11.574  14.820 -0.1931 -0.3199 -0.3439
12781W        W26195  18.256  15.985  13.920  0.4009  0.0959 -0.1717
12782W        W26196  16.856   2.213   3.729 -0.0693 -0.2061 -0.3330
12783W        W26197  15.625   4.095   6.150 -0.0299 -0.3103 -0.0045
12784W        W26198   1.175   5.838   1.422 -0.2194 -0.0500  0.1080
12785W        W26199   6.948  16.811  16.220  0.0944  0.2651 -0.2341
12786W        W26200   7.732  14.247   4.591  0.3540  0.3714  0.0821
12787W        W26201  11.078   3.078   6.088  0.3774  0.0618  0.1479
12788W        W26202   3.763   9.410  14.629  0.2071  0.0657  0.1483
12789W        W26203  16.319  16.746  11.932  0.1131 -0.2329 -0.0614
12790W        W26204  16.842  13.095  16.175 -0.0141 -0.3268  0.1111
12791W        W26205   2.802   2.162   5.084 -0.0734  0.0528 -0.2037
12792W        W26206  14.279   0.062  15.896 -0.1939 -0.1491  0.2232
12793W        W26207   5.043   9.816  12.906  0.0110 -0.1523  0.2210
12794W        W26208   0.478  14.233  13.126  0.0304 -0.0094  0.1794
12795W        W26209  17.255  15.543  16.020  0.0473 -0.1472  0.0105
12796W        W26210  10.944   9.000  12.059 -0.3741  0.1477 -0.0777
12797W        W26211   3.338  11.757   2.644  0.2229 -0.1560 -0.0599
12798W        W26212   1.927   2.022   2.568  0.4708  0.1885  0.2495
12799W        W26213   7.716  17.837   3.792 -0.1289  0.1134  0.0840
12800W        W26214   1.961  16.220   0.653 -0.1695 -0.0441 -0.0556
12801W        W26215   4.402  17.154   1.760  0.1235  0.0356  0.1773
12802W        W26216   6.911   7.340  11.824 -0.2313  0.1046 -0.0589
12803W        W26217   0.386  11.865   1.680 -0.0672 -0.0852 -0.2398
12804W        W26218  12.126  13.843   0.227  0.0416  0.0782 -0.3606
12805W        W26219   3.358   4.068  12.337 -0.0375 -0.0006  0.1409
12806W        W26220   9.937   6.631  12.557  0.0052 -0.4625 -0.1388
12807W        W26221  14.400  16.937   4.146 -0.1650 -0.0788 -0.1607
12808W        W26222   0.007  14.738   4.534  0.3575  0.1056 -0.0752
12809W        W26223   5.645   2.621   0.720  0.3064 -0.2248 -0.0635
12810W        W26224  10.997  12.120  15.583  0.1688  0.0555 -0.2228
12811W        W26225   4.757   3.550   4.823  0.4100 -0.0963 -0.2307
12812W        W26226   5.569  18.427   3.526  0.2107  0.3285 -0.0975
12813W        W26227   4.285  18.398   0.184  0.0129 -0.1204  0.0840
12814W        W26228  15.381   9.358   4.553 -0.0192 -0.3534  0.3749
12815W        W26229  16.226  17.754  13.951 -0.2359 -0.1702 -0.0302
12816W        W26230  16.438  13.305   3.820 -0.0767  0.0214 -0.0995
12817W        W26231   4.794   8.538   5.424 -0.0912 -0.0350 -0.0049
12818W        W26232  11.284   3.876   5.814  0.1863 -0.2974  0.2400
12819W        W26233   7.286   5.094   0.113  0.2900  0.1503  0.1632
12820W        W26234   9.215  15.319  11.483  0.0133  0.0126  0.4483
12821W        W26235  16.754   7.883  11.799 -0.0631 -0.0098  0.2673
12822W        W26236  18.162  11.503   3.882 -0.2222  0.0476 -0.1082
12823W        W26237  10.092  17.368  10.267 -0.3018  0.0683  0.2778
12824W        W26238   2.062   4.211   3.122 -0.0815  0.1860 -0.1015
12825W        W26239  11.819  14.076   1.657 -0.0885 -0.0770  0.0433
12826W        W26240  13.888   5.006  16.170 -0.0223  0.0254 -0.0568
12827W        W26241   6.570   2.698  11.469  0.0609  0.1155  0.2743
12828W        W26242   7.600  13.632   4.928  0.1274  0.1306 -0.2735
12829W        W26243   8.722   2.734  12.175  0.1509 -0.2542  0.1331
12830W        W26244   8.411  11.254   4.620  0.1825  0.1650  0.2604
12831W        W26245  17.828  16.173   3.582  0.0605  0.3863 -0.1489
12832W        W26246  12.001   1.244  12.955 -0.1882  0.1106 -0.3228
12833W        W26247   0.451  18.347  14.870  0.2554  0.1463 -0.2073
12834W        W26248   7.013  16.604  13.591 -0.2634  0.0895 -0.0952
12835W        W26249   5.046  15.702   9.787 -0.3708  0.2392  0.0307
12836W        W26250  17.402  12.557   4.391 -0.0703 -0.1857 -0.2452
12837W        W26251  14.744   5.656  11.167 -0.2008 -0.0095  0.1681
12838W        W26252  14.575  17.136   5.690  0.1637 -0.1176 -0.3144
12839W        W26253   1.475  11.017   4.301 -0.1781  0.0004  0.0606
12840W        W26254   1.128   7.967   5.939  0.0021 -0.0843 -0.2532
12841W        W26255  10.674   8.219   3.521  0.3305  0.1799 -0.1216
12842W        W26256   0.568   0.702   5.275  0.1667  0.1120  0.4410
12843W        W26257   1.852  11.769   6.232 -0.3057  0.4656 -0.3423
12844W        W26258  10.477   2.074   5.996 -0.1207  0.0949 -0.0954
12845W        W26259  10.777   5.030   1.463 -0.0063  0.0356 -0.3151
12846W        W26260   5.175  11.230  10.560 -0.1484  0.0453 -0.0843
12847W        W26261  14.059  15.723  15.982 -0.1317  0.2350 -0.0057
12848W        W26262  14.446  15.415  12.705 -0.1515 -0.1392 -0.1474
12849W        W26263  17.039  18.222  13.565  0.0442 -0.3079 -0.2372
12850W        W26264   3.388  12.704  13.307  0.3986 -0.2049  0.0122
12851W        W26265  12.973  15.250   3.105 -0.5136 -0.1973 -0.0027
12852W        W26266  14.861   8.451  13.911  0.0678 -0.0158 -0.1859
12853W        W26267  15.603  12.888  14.960  0.1736  0.1587 -0.0549
12854W        W26268  14.905  11.185   0.438  0.3238 -0.1013  0.1693
12855W        W26269   2.935   0.863   0.685  0.1278  0.2131 -0.0274
12856W        W26270  10.466  10.036   2.955 -0.0972 -0.3403  0.2200
12857W        W26271  14.052   0.756   1.136 -0.4785  0.0102  0.0005
12858W        W26272   0.241   1.120  13.073  0.1872  0.0720 -0.0593
12859W        W26273  13.246   0.575  12.801  0.1914 -0.1623  0.0748
12860W        W26274  16.991  17.138  12.934  0.1890  0.0735 -0.1472
12861W        W26275  14.286   0.604   3.819 -0.3566  0.1031  0.2669
12862W        W26276  11.077   7.937   2.102  0.1025 -0.1129 -0.1269
12863W        W26277   2.030   7.806   5.304  0.1069  0.1542 -0.2161
12864W        W26278  16.893   5.748   2.994 -0.1931  0.1508  0.3060
12865W        W26279  14.092   5.891  12.780 -0.1074  0.3839  0.0956
12866W        W26280  17.247   6.236   3.240  0.1783 -0.0201  0.2316
12867W        W26281  13.649  11.490  14.375  0.1077  0.3072 -0.1327
12868W        W26282   4.068  15.220  15.670  0.2059  0.0505  0.0603
12869W        W26283  17.684   7.357  14.478 -0.2024  0.2573 -0.1727
12870W        W26284   2.219   7.211  13.447 -0.0975 -0.0477  0.0811
12871W        W26285  16.632  12.463   5.944 -0.1285  0.0082  0.1993
12872W        W26286  10.193   0.720  11.639  0.0028  0.1975 -0.1243
12873W        W26287  18.333  15.302  12.371 -0.0422 -0.0938  0.2751
12874W        W26288  10.425   7.178  15.073  0.3924 -0.1732  0.0798
12875W        W26289  15.311  16.702  13.636 -0.1928 -0.2957  0.1959
12876W        W26290  15.150   9.447  10.934 -0.0078 -0.2214 -0.0601
12877W        W26291   6.636  18.273  13.272 -0.1780  0.2559  0.1378
12878W        W26292   6.849   6.187  10.641  0.0059 -0.1067  0.0849
12879W        W26293  11.049  15.174   2.445 -0.3907  0.1425  0.0279
12880W        W26294  12.366  17.539   5.630 -0.4993  0.0186  0.0920
12881W        W26295   4.153  17.138   3.817 -0.0182  0.1637 -0.2807
12882W        W26296   5.911   2.884  10.416 -0.1773 -0.1614  0.1070
12883W        W26297  10.202   3.623  15.653 -0.2524 -0.1574  0.1385
12884W        W26298  11.520  12.455  11.139 -0.1163 -0.0691 -0.2145
12885W        W26299  14.108   1.398   5.188 -0.2940 -0.0813 -0.1290
12886W        W26300   4.073   1.882   5.953 -0.2102  0.1516  0.0934
12887W        W26301   9.200   7.271   1.556  0.0683 -0.4608  0.1178
12888W        W26302  11.320   5.636  11.676  0.1031  0.1309  0.0339
12889W        W26303   2.440  15.282   2.737 -0.1540  0.0866  0.1821
12890W        W26304   4.953   8.643   1.641 -0.2796 -0.2982  0.0193
12891W        W26305  12.537  13.118  15.070  0.0532  0.0254 -0.0554
12892W        W26306   5.394  15.964  10.750  0.0325 -0.1599  0.4214
12893W        W26307   7.427   3.501  11.884  0.0594 -0.2316 -0.0222
12894W        W26308   1.316  10.559   5.378  0.4367 -0.1187 -0.1631
12895W        W26309  15.989  17.921   5.228  0.1418 -0.2510 -0.0654
12896W        W26310   1.230   3.907   6.323 -0.0165  0.0566 -0.2990
12897W        W26311  17.411   3.436   2.550 -0.1302  0.1127  0.1650
12898W        W26312   5.225   5.884   2.148 -0.0590 -0.2388  0.0906
12899W        W26313  16.879  12.858  14.868 -0.0603 -0.2709 -0.1221
12900W        W26314  15.432  15.744   2.339 -0.1678 -0.1171  0.0112
12901W        W26315  13.538   1.176  15.736  0.0463 -0.2136 -0.3177
12902W        W26316   4.520  12.407   4.147 -0.1283 -0.1577  0.0614
12903W        W26317   6.191  11.088   5.408  0.1430  0.0014 -0.0049
12904W        W26318  18.490   2.388  14.194  0.0180  0.1548 -0.0448
12905W        W26319   6.283   3.295  10.388 -0.1283 -0.0984 -0.1718
12906W        W26320  11.383  13.641   3.590  0.0652 -0.1230  0.5305
12907W        W26321   9.857  14.734  15.379  0.1701  0.0094 -0.1103
12908W        W26322   8.786   9.999  13.364  0.3236  0.2743  0.1671
12909W        W26323   3.378   0.472   1.921 -0.1611 -0.3759  0.0451
12910W        W26324  13.732  11.033  14.086 -0.1438  0.1288 -0.2859
12911W        W26325   8.119  12.305  11.451 -0.0959 -0.1204 -0.0755
12912W        W26326  14.631  15.508  16.234 -0.1025  0.3555 -0.1624
12913W        W26327   5.019  13.040   3.562  0.0280  0.3095  0.0084
12914W        W26328  11.162   8.822   2.524  0.4414  0.0701  0.5939
12915W        W26329  15.299  18.410   1.253  0.1008  0.1712 -0.0626
12916W        W26330   0.067   7.585  13.362  0.1608  0.0732  0.2636
12917W        W26331   5.747  11.710  15.959  0.1425 -0.2697  0.1705
12918W        W26332   4.065   3.482   2.574 -0.2048 -0.1100  0.1206
12919W        W26333  16.913   5.814   4.965 -0.1425 -0.1155  0.2350
12920W        W26334   4.459   2.993   1.775  0.0404  0.1834 -0.0184
12921W        W26335   6.307   2.394   2.462  0.1470  0.3423 -0.1377
12922W        W26336   8.723  12.710   5.969  0.0768 -0.0688 -0.0524
12923W        W26337  10.974   0.492  13.018 -0.0858  0.2976  0.4609
12924W        W26338  11.960   7.151  12.158 -0.2584 -0.0950  0.1113
12925W        W26339   2.732   2.665  14.221 -0.3714 -0.3360  0.0926
12926W        W26340   2.353   5.936  12.053  0.0952  0.0238  0.2169
12927W        W26341  15.659  10.699   2.378 -0.1371  0.1880  0.3386
12928W        W26342   2.584  14.313   1.122 -0.0676  0.0423  0.0934
12929W        W26343  10.371   5.518   0.406 -0.2190  0.1992 -0.2171
12930W        W26344  16.216   6.120   6.059  0.0530  0.1185 -0.1782
12931W        W26345   7.640   5.627   0.684  0.2942 -0.3255 -0.2946
12932W        W26346  13.199   8.402  12.352  0.2860  0.1516  0.0144
12933W        W26347  15.910  12.925   4.479  0.1675 -0.0654 -0.1223
12934W        W26348   4.640  18.260   4.606 -0.1247  0.2799 -0.0572
12935W        W26349   1.699  14.704  11.807  0.2888 -0.2449  0.2616
12936W        W26350  15.947   4.128   4.657 -0.0140  0.2599  0.3542
12937W        W26351  13.886  14.519  11.841  0.0028 -0.0250 -0.0682
12938W        W26352  14.637  10.060  14.876  0.0091  0.1576 -0.0227
12939W        W26353   5.702  11.071  14.418 -0.1614  0.1934 -0.0066
12940W        W26354  12.411   9.756   2.464 -0.0734 -0.6006 -0.2284
12941W        W26355  17.311   4.551  15.788  0.2323 -0.0871 -0.0186
12942W        W26356   5.976   9.509  16.090  0.2591  0.2107 -0.1658
12943W        W26357   5.068  18.392  16.048  0.0411 -0.0859  0.1883
12944W        W26358  12.834  15.207   3.598 -0.1116 -0.1810 -0.0009
12945W        W26359   2.561  13.771  12.044 -0.1120  0.4357 -0.1197
12946W        W26360   0.834  16.709   2.787 -0.1350  0.1055 -0.0621
12947W        W26361   5.438  11.078   4.295  0.3193 -0.0426  0.1108
12948W        W26362   4.436   8.890   0.292  0.3415 -0.1534  0.0416
12949W        W26363  10.191   2.476  13.319  0.0155  0.2206 -0.1922
12950W        W26364  13.437   9.482  11.607 -0.2764  0.0020 -0.0082
12951W        W26365  16.751   8.075   0.199  0.0760  0.0246  0.0530
12952W        W26366  11.180  16.021  13.288 -0.1942  0.1327  0.0975
12953W        W26367   6.291   7.379  13.941  0.3280 -0.0687 -0.0881
12954W        W26368   2.298   2.568   0.391  0.1179 -0.1494 -0.0486
12955W        W26369   0.322   7.850  15.984  0.0455  0.0420  0.2747
12956W        W26370   5.207  10.321  12.785  0.2032  0.1379  0.0283
12957W        W26371   7.233  12.163  16.237 -0.4033 -0.3264 -0.0717
12958W        W26372   1.350   3.799   0.406 -0.2058 -0.0655  0.1659
12959W        W26373   7.082  14.700   5.213  0.2453  0.3130 -0.2600
12960W        W26374  18.109   0.517   0.269  0.2836  0.0513 -0.1307
12961W        W26375   3.863   6.527   5.710 -0.1990 -0.0328 -0.1687
12962W        W26376   2.582  11.452  12.981  0.4763  0.1876 -0.0592
12963W        W26377  11.439  13.787   1.785  0.0538  0.0161  0.0045
12964W        W26378   8.598  11.424  16.059 -0.0646 -0.3712 -0.1472
12965W        W26379  16.400  16.406  11.479 -0.0197  0.2107  0.0125
12966W        W26380   2.268  12.300  11.691  0.0866 -0.2542  0.3006
12967W        W26381  12.319   5.558   3.022  0.0036 -0.1802 -0.0337
12968W        W26382  13.875   6.560   4.372 -0.2606 -0.1106  0.0404
12969W        W26383  15.961   4.399  15.883 -0.1697 -0.2257 -0.2152
12970W        W26384   1.480  12.537   5.717  0.0096  0.2449  0.0941
12971W        W26385  12.396  13.496   5.208 -0.0342 -0.0085 -0.2596
12972W        W26386   8.827  10.188  11.690  0.1304  0.0392  0.0323
12973W        W26387   6.138   0.781  10.790  0.2418 -0.0025  0.1345
12974W        W26388   7.690   9.150   0.101 -0.4452  0.1294 -0.1117
12975W        W26389   0.810   9.270   5.412 -0.1533  0.3733  0.0771
12976W        W26390   2.820  15.427   1.327 -0.0208  0.0718 -0.1030
12977W        W26391   7.050  17.189   3.839  0.3762  0.2765  0.0431
12978W        W26392  11.426  13.287   1.546 -0.1613  0.4961  0.0923
12979W        W26393   1.945   3.123  12.428 -0.0555  0.2501 -0.3263
12980W        W26394   7.452  16.657   2.893  0.0960 -0.1265 -0.2515
12981W        W26395   6.600   7.877   3.175  0.0476  0.1678 -0.0942
12982W        W26396   3.177  12.656  15.834 -0.3604  0.1528 -0.0472
12983W        W26397   5.961  16.140   3.672 -0.0955  0.2287 -0.1990
12984W        W26398  13.541  15.621   1.922  0.0159  0.1768 -0.1676
12985W        W26399  17.759   2.305   5.333  0.1999  0.2483  0.3267
12986W        W26400   3.479  11.947  11.746 -0.0129 -0.0460  0.1862
12987W        W26401  11.800   0.174   0.756 -0.3738 -0.0636 -0.0912
12988W        W26402  15.113  13.376  11.819 -0.1171  0.0246  0.1792
12989W        W26403  12.514   3.160   4.286  0.4245 -0.3368  0.2210
12990W        W26404   8.070   4.075   3.587  0.0494 -0.0338  0.1095
12991W        W26405   7.575   7.263   4.352 -0.3461 -0.4823 -0.3627
12992W        W26406   6.250  12.659   3.168 -0.0561 -0.0832 -0.0282
12993W        W26407   4.827   3.944   5.923  0.0529 -0.1716  0.1172
12994W        W26408  10.895   8.914   5.100  0.0253 -0.1593  0.1899
12995W        W26409  14.689  12.313   1.747 -0.1495 -0.0274 -0.1253
12996W        W26410  11.939  15.180   4.962 -0.1402  0.0802  0.0104
12997W        W26411   2.215   8.016  13.134  0.0383 -0.2371 -0.1062
12998W        W26412  17.745  16.199   2.020 -0.0114 -0.6415 -0.0970
12999W        W26413   4.738  10.396   1.431 -0.1343  0.1251 -0.1255
13000W        W26414   9.116  12.509  11.258  0.2122  0.1623  0.1225
13001W        W26415  14.629   9.485   4.063  0.3593 -0.0908 -0.0893
13002W        W26416   9.511  14.152   4.599  0.0097  0.4809  0.1148
13003W        W26417   8.457  10.090  12.958 -0.0993 -0.1619 -0.0080
13004W        W26418   6.567   2.976   4.530 -0.1483  0.0223  0.0637
13005W        W26419   0.634   8.418  15.913  0.1998 -0.1449  0.0163
13006W        W26420  10.288  15.520  14.190  0.0755  0.1512 -0.4213
13007W        W26421  15.504   5.306  11.199  0.0039 -0.0775 -0.0922
13008W        W26422  11.539  10.214   2.897 -0.1993 -0.1833 -0.1274
13009W        W26423  12.446   1.238  13.353 -0.1541  0.2775 -0.0100
13010W        W26424  14.990   5.799  15.798 -0.1747  0.1181  0.1269
13011W        W26425  18.303   9.295  12.711  0.2649  0.0348  0.1152
13012W        W26426  12.611  14.604  15.680 -0.3499 -0.0262  0.3921
13013W        W26427   2.404   5.302  10.293 -0.1775 -0.0154 -0.0554
13014W        W26428  11.408   3.463   6.110  0.0222 -0.0703 -0.0069
13015W        W26429   7.375  12.054   5.008  0.3840  0.1320  0.3697
13016W        W26430   6.729   4.667   4.789 -0.0514 -0.1724 -0.2438
13017W        W26431   0.456   3.883  13.808 -0.1159 -0.0453 -0.0373
13018W        W26432   1.399   6.095   3.571  0.0227  0.1528 -0.0568
13019W        W26433  17.084  10.355   1.201  0.2744  0.2946 -0.1158
13020W        W26434   7.466   0.553   4.330  0.1352 -0.3174 -0.1968
13021W        W26435   5.044  13.702   4.409 -0.1136 -0.1063  0.0889
13022W        W26436   5.992   3.331   0.732 -0.0337 -0.2379 -0.1650
13023W        W26437   1.069   3.163   5.298 -0.1867 -0.4089  0.2493
13024W        W26438   9.328   6.451  15.120 -0.4719  0.1540 -0.1160
13025W        W26439   3.848   3.870  14.492 -0.0214  0.0684  0.0698
13026W        W26440   5.982  14.441  12.763 -0.2815  0.0969 -0.0450
13027W        W26441   2.673  15.768   2.759  0.0502  0.0562  0.2092
13028W        W26442   0.478  15.208  14.624 -0.3156 -0.3282 -0.0342
13029W        W26443   1.069   6.801   5.904 -0.0160  0.2207 -0.0532
13030W        W26444   9.017  12.447   1.819 -0.2339 -0.0343 -0.1190
13031W        W26445   5.387  14.625  10.541  0.1763  0.1841 -0.0649
13032W        W26446   5.169  14.760  10.122  0.0745 -0.1870  0.1317
13033W        W26447  14.104   7.404  15.222 -0.2108 -0.0570 -0.1516
13034W        W26448   1.514   8.727  16.150  0.3082 -0.2247  0.0592
13035W        W26449   7.412   2.326   5.048 -0.1367  0.0860  0.0434
13036W        W26450  14.616  14.831   2.056 -0.2808  0.0137 -0.1727
13037W        W26451  15.736   1.810  16.261 -0.0847 -0.0123 -0.2219
13038W        W26452   2.174   7.555   1.775 -0.2908  0.1484  0.0978
13039W        W26453  10.607  15.580   1.295 -0.0515 -0.5180  0.0920
13040W        W26454   7.872  12.269   4.183  0.0980 -0.1779  0.1865
13041W        W26455   5.358   3.049   3.287 -0.1122 -0.0183  0.2530
13042W        W26456   4.867   6.390  13.913 -0.3165 -0.1968 -0.1337
13043W        W26457  12.204   1.649  13.578  0.1437 -0.1533  0.1219
13044W        W26458   9.935  10.014  15.849 -0.1465 -0.0362  0.0537
13045W        W26459   0.345  11.965   2.694 -0.1970 -0.2378  0.2498
13046W        W26460   6.680   1.828  15.284 -0.0167 -0.0213  0.0989
13047W        W26461   7.259   1.571  11.150 -0.5003 -0.0499 -0.2233
13048W        W26462   8.563  18.420   0.199  0.0304 -0.0575  0.1673
13049W        W26463  15.804   1.194  13.574  0.0993 -0.1223  0.3861
13050W        W26464   3.551  10.114   0.834 -0.5167  0.2632 -0.2080
13051W        W26465   1.306   7.461   0.557  0.3727 -0.0706  0.4704
13052W        W26466   5.563  17.963   1.600 -0.0522  0.1947 -0.0585
13053W        W26467  18.273  11.672   5.167 -0.2192  0.0406  0.1535
13054W        W26468   1.934  10.945  13.642  0.0118 -0.0373 -0.0142
13055W        W26469  14.367  13.502   5.967  0.0048 -0.3045 -0.1226
13056W        W26470   0.101   1.761   2.324  0.1668 -0.0282 -0.1224
13057W        W26471  13.010   6.152  14.518 -0.3405 -0.0341 -0.0731
13058W        W26472  15.273   0.136   2.571 -0.0148 -0.4705  0.0920
13059W        W26473  14.833  16.625   2.505 -0.2480 -0.0741 -0.1259
13060W        W26474   4.891  11.429   0.677 -0.0171  0.0611 -0.1828
13061W        W26475   6.336   9.342  13.031 -0.0096  0.0438 -0.1506
13062W        W26476  16.946  17.083  10.814  0.2178 -0.2863 -0.0797
13063W        W26477  12.797   8.727   5.751  0.2424  0.1473 -0.0256
13064W        W26478   2.839   8.997   0.333 -0.0757 -0.0471  0.1177
13065W        W26479  17.517  14.025  13.367  0.0485 -0.1243  0.1846
13066W        W26480   4.171   8.315  12.812  0.2216 -0.0545 -0.1235
13067W        W26481   6.933  13.672   0.607  0.1760 -0.0250 -0.3404
13068W        W26482  11.927   7.859   0.196 -0.6318 -0.2907  0.2498
13069W        W26483   2.617  15.950   4.719 -0.0471  0.2581  0.3192
13070W        W26484  14.091  11.010  11.265 -0.0326  0.1230 -0.0139
13071W        W26485   7.007   9.204  13.786  0.2051  0.1057  0.1081
13072W        W26486   5.058  13.439  15.850  0.0471  0.2319 -0.1264
13073W        W26487  13.583   2.338  13.578  0.1483  0.2400  0.0583
13074W        W26488   8.764  14.455  11.793  0.0149 -0.2450 -0.1224
13075W        W26489   3.327   8.077   0.114  0.0459  0.2147  0.0629
13076W        W26490   6.891  13.569  14.843  0.1034  0.0290  0.3180
13077W        W26491  13.077   9.714   5.071  0.2416 -0.0514 -0.0327
13078W        W26492   5.919  14.521   3.110  0.1964 -0.0875 -0.1353
13079W        W26493   0.699  12.925   4.105 -0.0012  0.0560 -0.1232
13080W        W26494   2.994   7.993  12.461  0.0229 -0.3282 -0.1416
13081W        W26495   8.207  15.398   1.552 -0.0414  0.1817 -0.0185
13082W        W26496   2.928   1.802  13.227  0.0983 -0.2782  0.1709
13083W        W26497  14.300  10.293  13.825  0.2621 -0.2126  0.3734
13084W        W26498   1.882   3.246  11.755  0.0436 -0.1200 -0.0260
13085W        W26499   4.578   3.820   2.209  0.0081  0.0757 -0.0704
13086W        W26500   2.072   8.110  12.686  0.0859 -0.2388  0.1210
13087W        W26501   1.258   4.015   2.173  0.0774  0.0522 -0.1826
13088W        W26502   5.088  18.300  10.911  0.1843  0.1156 -0.0472
13089W        W26503   5.180   1.471  13.584  0.1105 -0.3424  0.0251
13090W        W26504   7.028   9.837  15.109 -0.1004 -0.1496 -0.1645
13091W        W26505  10.941   1.896   4.208 -0.1977 -0.1749 -0.0045
13092W        W26506  16.857   4.827  14.417  0.0931 -0.0144 -0.2776
13093W        W26507  13.462   0.978  10.600  0.1914  0.0008  0.2031
13094W        W26508   3.306   9.660  10.535 -0.1980  0.1981 -0.0184
13095W        W26509   6.053   3.422  11.329 -0.0440  0.0346  0.1212
13096W        W26510   2.519  14.906  13.441 -0.0416 -0.0611  0.1997
13097W        W26511   9.028   5.866   1.796  0.1136 -0.0527 -0.2592
13098W        W26512   0.904   7.976  15.991 -0.0030  0.1271  0.0106
13099W        W26513  10.365   9.674   3.406 -0.3475 -0.1388  0.3847
13100W        W26514   6.039   6.496  14.342  0.5183  0.0547 -0.4984
13101W        W26515   4.895   4.536  11.136  0.0829  0.0606  0.3243
13102W        W26516   0.701  13.485   2.265 -0.0735  0.1836  0.1101
13103W        W26517  11.776   6.943   2.114  0.2568 -0.1967 -0.2418
13104W        W26518  17.462   0.414  15.276  0.1347  0.0538 -0.1194
13105W        W26519   3.711  16.840   2.047  0.0981 -0.1826 -0.1242
13106W        W26520   5.068  12.090   3.451 -0.1304 -0.1248 -0.1802
13107W        W26521  10.266  15.177  14.916 -0.0097  0.0854  0.0298
13108W        W26522   9.164  13.974  13.191  0.4194  0.3375 -0.1767
13109W        W26523  13.577   2.013  12.659  0.1416 -0.1323  0.0676
13110W        W26524   4.067  11.780  15.827 -0.1898 -0.2083 -0.0784
13111W        W26525   9.866   1.702  12.007 -0.1175 -0.0194 -0.2202
13112W        W26526   7.479  17.840   2.825  0.1734 -0.0047 -0.0444
13113W        W26527  11.222   0.753   5.680 -0.1605  0.2334 -0.0756
13114W        W26528   0.761  13.512   2.798 -0.1412 -0.0219 -0.0071
13115W        W26529   0.318  16.841   5.319 -0.1104 -0.0436  0.0782
13116W        W26530  14.916  13.893   2.798 -0.0943 -0.3394 -0.2399
13117W        W26531   6.393  13.037  13.344  0.1891 -0.1063  0.5972
13118W        W26532   1.906   2.737   0.709 -0.3012 -0.0444 -0.0350
13119W        W26533   9.395  18.388   3.741  0.0131  0.3485 -0.2603
13120W        W26534  14.716   6.938   3.507  0.2773  0.0417  0.0395
13121W        W26535   3.625   3.114   4.136 -0.1349  0.1557 -0.2399
13122W        W26536   3.740   5.455  11.447 -0.0323 -0.0617 -0.1120
13123W        W26537   3.339  15.381  14.010  0.1866  0.0861 -0.2393
13124W        W26538   9.313   3.391  13.459 -0.1217  0.1003 -0.3344
13125W        W26539   5.967  16.223  13.889  0.0066  0.2377  0.4204
13126W        W26540  12.323  16.826  15.003  0.0024  0.0742 -0.1222
13127W        W26541   7.229  10.089   3.450 -0.0495  0.1814 -0.0946
13128W        W26542  10.694  12.856   1.214  0.0738 -0.0416 -0.3746
13129W        W26543   5.657  12.968   2.386 -0.3761 -0.1308  0.1175
13130W        W26544   8.236  10.137   1.421 -0.3058  0.0277  0.1116
13131W        W26545  15.941  11.236  11.310 -0.0727 -0.2937 -0.0509
13132W        W26546   4.347  12.897  12.487  0.4085  0.2004 -0.4948
13133W        W26547   3.013   3.836  16.120 -0.3961  0.1615  0.4187
13134W        W26548  12.952   8.875   6.206 -0.2371 -0.0447 -0.2412
13135W        W26549   5.242   1.940   0.748  0.2949  0.1419  0.0516
13136W        W26550   0.197   0.084  14.517  0.2051  0.2316  0.2343
13137W        W26551  13.115  15.896   2.064 -0.1980 -0.1257 -0.4324
13138W        W26552   2.706  16.713   5.175  0.1669 -0.0331 -0.0229
13139W        W26553  12.386  18.015  11.630  0.1595 -0.3693 -0.0183
13140W        W26554  14.045   3.520  13.185  0.2222 -0.1339 -0.0700
13141W        W26555   8.155  13.733  12.058 -0.3992 -0.1369 -0.3350
13142W        W26556  13.101  16.907   3.683  0.4154 -0.2641 -0.1991
13143W        W26557  17.222   2.070  14.569  0.0181  0.1446 -0.0656
13144W        W26558  12.323   5.090   3.292 -0.0278 -0.1549 -0.1343
13145W        W26559  12.184   4.436   5.227 -0.3175 -0.2040 -0.1325
13146W        W26560  17.221   7.212  13.696  0.0905  0.0101 -0.2865
13147W        W26561   2.081   0.305  12.293 -0.0205  0.2359  0.0339
13148W        W26562  18.126   2.011   3.206 -0.0999  0.1621 -0.0084
13149W        W26563   7.308   8.309  15.980  0.2819  0.5884  0.0022
13150W        W26564   8.553   0.333   5.264  0.1293  0.2847  0.0019
13151W        W26565   5.134  14.587  12.985 -0.0954  0.2223 -0.1093
13152W        W26566   3.961   3.288   3.362  0.1324 -0.1664  0.1780
13153W        W26567   3.241  15.475   2.766 -0.1342 -0.3130 -0.0094
13154W        W26568  11.836  16.352  14.364 -0.1079 -0.0038  0.1246
13155W        W26569   4.963  12.202   5.819 -0.0740 -0.1710 -0.2598
13156W        W26570  16.317   2.651   0.265  0.0374 -0.0409  0.0424
13157W        W26571   2.473   6.809  11.094  0.0601 -0.1161  0.0161
13158W        W26572   5.297  11.291  12.177 -0.3635  0.0163  0.0005
13159W        W26573   0.637   0.856   6.032 -0.0482  0.0290  0.2305
13160W        W26574   2.124  10.999   2.144 -0.0355  0.0274  0.3042
13161W        W26575  10.487  14.544  10.574  0.0739  0.2720 -0.0619
13162W        W26576   5.363   5.433  11.897 -0.2868  0.1620 -0.0891
13163W        W26577  16.437   8.479  16.235 -0.0418  0.2999  0.0771
13164W        W26578  10.316   2.643  12.729  0.2435 -0.2533  0.0418
13165W        W26579  15.612  10.644  15.943  0.2374 -0.2483 -0.1206
13166W        W26580  16.487  13.200   5.928  0.0320  0.0134  0.3115
13167W        W26581  16.136   2.373  14.494  0.0180 -0.1281 -0.0088
13168W        W26582  17.242  11.348  12.546  0.2563  0.0120  0.0297
13169W        W26583   9.390   0.170   2.323  0.1133  0.4061 -0.0096
13170W        W26584   1.396   9.439  10.969 -0.0711 -0.2633  0.2803
13171W        W26585  10.888  13.879   4.454  0.0531 -0.0729  0.0122
13172W        W26586  10.036   7.760   4.606  0.2486  0.2107  0.1314
13173W        W26587  10.593   4.478  16.090  0.0017 -0.2576  0.1364
13174W        W26588  14.042  11.490  10.173  0.0594  0.4358 -0.0696
13175W        W26589   2.022  12.522  13.264  0.0778  0.2363  0.0288
13176W        W26590  13.489  18.261  13.404  0.1813  0.0622 -0.0074
13177W        W26591  12.900  14.200  15.516 -0.1262  0.3069  0.1934
13178W        W26592   9.996  17.504  14.075  0.0441  0.1677 -0.0943
13179W        W26593   2.314   0.221   4.474 -0.0758 -0.3781 -0.1457
13180W        W26594   1.723  12.263  12.971 -0.3307  0.0182 -0.1641
13181W        W26595   9.512  12.960  10.575  0.4068  0.1648 -0.0566
13182W        W26596  17.485   3.406   3.422  0.1071  0.2159 -0.4949
13183W        W26597   4.085   0.977   2.382  0.2617 -0.0274  0.1872
13184W        W26598   3.828   3.455   0.188 -0.2931  0.2694 -0.3526
13185W        W26599  15.904  15.970  13.183  0.0791 -0.2358  0.1165
13186W        W26600  12.683  13.978   3.537 -0.0323 -0.0294  0.0538
13187W        W26601   6.337  16.653   3.542 -0.1950  0.1340  0.0620
13188W        W26602  16.045   2.640   4.581  0.2766 -0.2716 -0.3681
13189W        W26603   3.045  12.713   0.692 -0.2616  0.0380 -0.0204
13190W        W26604   6.194  15.159   4.954  0.0171 -0.1263  0.2095
13191W        W26605   6.906  13.024  11.825 -0.1163 -0.0090  0.0944
13192W        W26606   7.846   0.154  11.937 -0.0049 -0.2670  0.3170
13193W        W26607  12.117  15.801  13.451 -0.0620  0.1335 -0.3944
13194W        W26608  10.609   9.519  16.246 -0.0062 -0.2239 -0.0459
13195W        W26609   5.111  17.736   6.117 -0.0488  0.2868  0.4517
13196W        W26610  15.886  17.278   4.483 -0.0238  0.1048  0.0288
13197W        W26611   7.340  15.981   4.840 -0.5637 -0.0386 -0.0901
13198W        W26612  16.186   4.317   5.578 -0.1202 -0.1934 -0.2375
13199W        W26613  13.769  17.713  12.826 -0.1747  0.1263  0.2969
13200W        W26614   3.377   2.936   2.042 -0.1125 -0.1363  0.2990
13201W        W26615  13.120   5.319   0.292 -0.2615 -0.1000  0.0609
13202W        W26616   3.982  14.240   4.580  0.0943 -0.1176  0.0834
13203W        W26617  10.024  12.143  12.199  0.1110  0.2098 -0.0330
13204W        W26618  13.933  17.708  10.840  0.0714 -0.1499 -0.2604
13205W        W26619   2.841  11.020   5.476  0.0062  0.0076 -0.0974
13206W        W26620   0.460   8.243   1.680  0.3177  0.1208  0.4490
13207W        W26621   7.106   9.883  15.624 -0.0739  0.2924 -0.1172
13208W        W26622  14.680  13.166   1.111 -0.3294  0.0713 -0.2085
13209W        W26623   3.109   4.563   5.749  0.0005  0.3207 -0.1505
13210W        W26624   6.715  10.498   4.144 -0.2115  0.3122  0.1444
13211W        W26625  11.756   7.961   2.763 -0.0152  0.1898  0.0746
13212W        W26626  17.486   1.892  15.667 -0.0421 -0.0233 -0.1155
13213W        W26627   9.171   5.686  11.876  0.0421 -0.0965  0.1136
13214W        W26628  17.770  17.918   4.577  0.0062 -0.0311 -0.0912
13215W        W26629  10.045   0.056   9.953  0.0296 -0.0181 -0.0002
13216W        W26630   5.432  11.526   5.295  0.1169  0.3916 -0.3394
13217W        W26631  17.141   1.887  13.691  0.0591 -0.1030 -0.1418
13218W        W26632  10.128  10.477  14.151  0.0097  0.2618 -0.2832
13219W        W26633  17.667   7.991   6.369 -0.1738 -0.0835  0.2517
13220W        W26634  14.047  14.917   2.741  0.2153  0.2964 -0.0751
13221W        W26635   0.866   9.703  14.375 -0.3293  0.1337 -0.4125
13222W        W26636   1.774  12.919   2.307  0.2243 -0.0014 -0.0925
13223W        W26637   1.487   6.991  11.760  0.2789  0.2260  0.1134
13224W        W26638   9.584  12.237   1.062  0.1428 -0.0377 -0.0934
13225W        W26639  13.895  10.733   5.376  0.1822 -0.4724 -0.0718
13226W        W26640  13.697  12.796   3.684  0.2077 -0.2328  0.3807
13227W        W26641  17.861  15.338   5.435 -0.1520  0.3935  0.0691
13228W        W26642   5.814   9.293   5.094 -0.1153 -0.2044 -0.0484
13229W        W26643  15.464   4.262   4.763 -0.2488  0.0676  0.3074
13230W        W26644  14.113   5.233   0.320  0.1488 -0.1413  0.0277
13231W        W26645  11.715  16.487   3.580 -0.1103 -0.0539  0.0546
13232W        W26646  12.698   4.534   0.747  0.0086 -0.0879 -0.2330
13233W        W26647  13.451   9.983   5.649  0.4589 -0.0551 -0.1732
13234W        W26648   5.390   7.547  12.710 -0.0249  0.2144  0.1423
13235W        W26649   7.372  10.332   5.087 -0.0979 -0.2556 -0.1073
13236W        W26650  17.356   7.433  16.120  0.0170  0.1309 -0.3080
13237W        W26651  14.501  17.348   4.514 -0.0144  0.1166 -0.2200
13238W        W26652   7.306   7.275   3.823  0.1377 -0.1420 -0.1220
13239W        W26653  12.248   2.552   3.543  0.4064 -0.1776 -0.6080
13240W        W26654   0.764   1.614   3.223 -0.0792  0.1265 -0.1315
13241W        W26655   0.023  16.052  15.774  0.0519  0.0600  0.0265
13242W        W26656  13.664   7.230  15.081 -0.0856  0.0133 -0.0570
13243W        W26657  14.338  11.273  14.855 -0.0479 -0.3137 -0.1288
13244W        W26658   3.647  15.475  11.203 -0.0805 -0.0804 -0.1486
13245W        W26659   3.296  14.754   9.644  0.0593 -0.1641 -0.1150
13246W        W26660  11.723   3.599  13.687 -0.1085  0.1886 -0.0189
13247W        W26661  14.680   5.393  14.312  0.1678 -0.2129 -0.3217
13248W        W26662  12.785   0.475  12.545  0.2286  0.2308  0.0562
13249W        W26663   7.085  17.688   3.645 -0.0425 -0.0258  0.0787
13250W        W26664   5.058  11.616   5.031  0.3899 -0.0071 -0.2283
13251W        W26665  11.178   1.424  11.701  0.1590 -0.0046 -0.1595
13252W        W26666  12.281   0.865  13.763 -0.1075 -0.1930  0.0868
13253W        W26667   0.740   5.229  15.665 -0.0344 -0.4715  0.2187
13254W        W26668  17.100   4.759  12.928  0.2741 -0.0464  0.1615
13255W        W26669  17.461  16.522   3.642 -0.4618 -0.0374  0.2047
13256W        W26670   8.428   5.781   3.685 -0.3143 -0.0844  0.0297
13257W        W26671  15.229   9.353  13.377  0.1964 -0.0820  0.3427
13258W        W26672  11.201  14.269  15.254 -0.0714 -0.3280 -0.0513
13259W        W26673  13.944   2.523   2.268  0.1066 -0.0049 -0.3009
13260W        W26674   9.743  10.168   0.440 -0.1844  0.1001 -0.1093
13261W        W26675   8.894   8.730   4.762  0.0943 -0.1036  0.1395
13262W        W26676   0.600   8.682  12.296 -0.0536 -0.2630  0.1806
13263W        W26677   0.387   8.827  13.277  0.1113  0.5751  0.2827
13264W        W26678  14.759  15.256  14.504  0.1797 -0.0389  0.1178
13265W        W26679  17.404   0.650   3.195  0.2997 -0.1786 -0.0315
13266W        W26680   8.641   0.861  15.948  0.1658 -0.0027 -0.0891
13267W        W26681  17.997  13.418  12.745  0.0379 -0.0178  0.0144
13268W        W26682  16.705   0.865   1.192 -0.0543  0.3608  0.1866
13269W        W26683   3.298  14.844  15.231 -0.2279  0.2145 -0.1303
13270W        W26684   5.158  12.718  15.272 -0.1812 -0.1029  0.0229
13271W        W26685  18.196   0.002   6.245 -0.1645  0.4049  0.0260
13272W        W26686   5.010  18.502   1.113 -0.0345 -0.0148 -0.0149
13273W        W26687   9.360  18.092  15.466 -0.1534 -0.1567 -0.1117
13274W        W26688  17.553   1.393   5.357 -0.0965  0.0348  0.0788
13275W        W26689   5.895   6.231   0.108  0.0639 -0.2668 -0.1126
13276W        W26690   0.802   4.267  12.532 -0.0260  0.0032  0.3599
13277W        W26691  13.447   8.587  14.270 -0.1842  0.2446 -0.1073
13278W        W26692   0.412  15.436   0.193 -0.2705 -0.0723  0.1782
13279W        W26693   6.179  15.856  14.730  0.0455  0.3249  0.1409
13280W        W26694   8.041  16.682  15.008 -0.1736 -0.1124 -0.2110
13281W        W26695  11.630   4.838  12.766  0.0746  0.0389 -0.0929
13282W        W26696  10.150  17.130  14.340  0.1094  0.0240 -0.0113
13283W        W26697   7.963   9.212   4.613 -0.0265 -0.0153 -0.2036
13284W        W26698  15.261   9.906  11.528  0.2196 -0.0175  0.0707
13285W        W26699   0.601   4.772  10.556  0.1169 -0.3071 -0.3675
13286W        W26700  11.710   2.453   3.292 -0.2918 -0.0822 -0.1285
13287W        W26701   6.027   5.945   3.346  0.0949 -0.0144 -0.2049
13288W        W26702  17.601  13.456   4.982 -0.2930  0.0945  0.1639
13289W        W26703  14.529  18.156  15.950 -0.1525  0.1181  0.5052
13290W        W26704   7.871   5.242   0.856 -0.2948 -0.0013  0.1094
13291W        W26705   0.371   3.772   4.327  0.0733 -0.2833 -0.2154
13292W        W26706  12.620  18.126  13.917  0.0156  0.3209  0.0448
13293W        W26707   5.812   7.213   1.644  0.0887  0.2347  0.1421
13294W        W26708   9.944   9.171  13.960  0.0500  0.1485 -0.1288
13295W        W26709  13.033  18.351   0.065 -0.1200  0.4136 -0.2615
13296W        W26710   8.310  16.496   2.671 -0.0732 -0.1627 -0.3054
13297W        W26711  13.894  13.259   4.173  0.1896  0.0288 -0.1349
13298W        W26712  14.538  13.892   4.249  0.3939 -0.1793  0.0443
13299W        W26713  18.362   1.799  13.494 -0.5137  0.0443 -0.4044
13300W        W26714   2.679   4.947   4.665 -0.2963  0.2809  0.0978
13301W        W26715   7.260  14.932   5.723  0.0862  0.0644 -0.1479
13302W        W26716   9.899   1.748   1.849  0.0402 -0.0551  0.2252
13303W        W26717  11.606  18.392  12.468  0.0129  0.1451  0.1541
13304W        W26718   0.959   3.691   1.581  0.3101 -0.2285 -0.0548
13305W        W26719   6.596   8.876  16.029 -0.0582 -0.3079 -0.0366
13306W        W26720   4.886   8.482   9.958  0.0463 -0.0493 -0.1190
13307W        W26721   8.496   5.238  10.233 -0.0502 -0.2651  0.0251
13308W        W26722  16.262   2.414  13.965  0.2212 -0.4059  0.1541
13309W        W26723   2.711  12.332  13.729 -0.0392  0.2764  0.0223
13310W        W26724   3.839  10.183  10.127 -0.1014  0.0039 -0.2103
13311W        W26725  15.347  11.436  10.958 -0.2383 -0.0040  0.0609
13312W        W26726  17.418  10.142   0.047  0.2850 -0.0322 -0.2787
13313W        W26727  12.803   6.952  15.053 -0.2994  0.0132 -0.0255
13314W        W26728  14.382  16.703  11.397 -0.1492 -0.2767  0.1681
13315W        W26729  15.069  15.854   6.060 -0.1330 -0.2496 -0.0551
13316W        W26730  15.394   0.794  11.050 -0.1329 -0.0335 -0.5385
13317W        W26731   0.540   6.191  13.361  0.2922 -0.1824 -0.0817
13318W        W26732  18.471   6.259  12.714 -0.1098  0.2992  0.1092
13319W        W26733  10.438   7.529   1.822  0.0141  0.0120  0.0252
13320W        W26734  11.185  16.612   4.673  0.2490  0.1064 -0.0005
13321W        W26735   7.634   3.030   4.240  0.0735 -0.0128 -0.1387
13322W        W26736   9.733   4.957   0.935  0.2190  0.5069 -0.0146
13323W        W26737  11.094   6.194   5.739 -0.2842 -0.1516  0.0145
13324W        W26738  17.195  15.242   3.090  0.3162 -0.3353 -0.0331
13325W        W26739   5.154   5.076  13.577 -0.1073 -0.0201  0.0041
13326W        W26740   5.426   6.669   2.346 -0.1888 -0.1208  0.1649
13327W        W26741   4.982   6.922  14.789 -0.0257 -0.2591 -0.0659
13328W        W26742   4.758   5.736  13.581 -0.0382 -0.1071 -0.0803
13329W        W26743   0.193   4.254  15.895  0.1898  0.0503 -0.2602
13330W        W26744  14.333  11.231   6.122  0.1352  0.0385  0.1227
13331W        W26745  11.515   9.807  14.204  0.0146 -0.1413  0.0751
13332W        W26746  12.506   1.590  11.899  0.0035 -0.0328  0.0872
13333W        W26747  11.298  16.437   5.189  0.3335 -0.1840 -0.0299
13334W        W26748  14.557   5.439  11.756 -0.1745 -0.4128 -0.0542
13335W        W26749  16.579  15.960  11.316 -0.2912  0.0023 -0.0091
13336W        W26750  17.266   2.604  12.792 -0.1373 -0.0549 -0.1275
13337W        W26751   8.424  18.106  12.442 -0.2218  0.0256 -0.2481
13338W        W26752  13.640  10.011   4.705 -0.0549 -0.0559 -0.1329
13339W        W26753  14.624  11.796  12.654 -0.1326  0.0260 -0.1031
13340W        W26754  12.213   1.144  15.296  0.0434  0.0709  0.2454
13341W        W26755  13.172   6.176  14.989  0.2673 -0.0493  0.2887
13342W        W26756   3.735  13.899   4.858 -0.1233 -0.1561 -0.4892
13343W        W26757  16.920  13.023   3.588 -0.2164  0.1616  0.0011
13344W        W26758  15.463   9.738   0.526 -0.0059 -0.0669 -0.2150
13345W        W26759  16.059   9.248  16.112 -0.0172 -0.0047 -0.1045
13346W        W26760  15.374   3.881   0.113  0.0587  0.3373  0.0014
13347W        W26761   6.154   3.824  15.059  0.1591 -0.0803 -0.0315
13348W        W26762  16.871   4.823  14.935  0.1054  0.1509  0.1969
13349W        W26763   4.180   5.062   1.497  0.0985 -0.2465  0.0918
13350W        W26764  11.615  14.721   5.032  0.2954 -0.1605 -0.1271
13351W        W26765   4.715   0.404   5.526 -0.3065 -0.0077  0.1681
13352W        W26766   3.031  10.000  11.811 -0.1597  0.0881 -0.1528
13353W        W26767   0.468   2.050   2.552  0.0794 -0.3032 -0.0848
13354W        W26768   4.179   6.131   5.963  0.5895  0.4052 -0.2169
13355W        W26769   4.143  17.964   1.309 -0.1295 -0.1081 -0.1035
13356W        W26770   3.770   4.369  10.085  0.0700  0.0173 -0.1639
13357W        W26771  13.759  18.445   0.793  0.1525  0.0935  0.1190
13358W        W26772  16.344   4.784   3.527 -0.1361 -0.2042 -0.0355
13359W        W26773  11.340   2.369   2.307  0.3454  0.0647  0.0868
13360W        W26774   0.003   0.205   0.484 -0.2500 -0.1431  0.2519
13361W        W26775  15.746  18.129   1.438 -0.2551 -0.1550  0.1261
13362W        W26776   8.995  16.991   2.645  0.0528 -0.3382  0.1711
13363W        W26777   2.358  12.428  14.706 -0.4272  0.1577  0.1065
13364W        W26778  17.468  10.839  12.585  0.0918 -0.0713 -0.0873
13365W        W26779  10.871  16.584  13.962 -0.2842 -0.0377  0.0997
13366W        W26780  17.673   0.874  10.166  0.1199 -0.2056 -0.0993
13367W        W26781  17.163   5.802   4.012  0.0910  0.3218  0.0046
13368W        W26782  17.882  10.203   6.252  0.0809  0.1197  0.0332
13369W        W26783   0.286   0.776   2.123  0.1269 -0.0005 -0.1325
13370W        W26784   5.206   5.395  14.797  0.1075  0.0477 -0.0233
13371W        W26785   9.161   9.253   2.231  0.0527  0.2320  0.1069
13372W        W26786  12.860  13.415  11.771  0.2377 -0.1360 -0.0302
13373W        W26787  11.387   9.725   1.353 -0.1116 -0.1697  0.0483
13374W        W26788  15.743   6.135   3.764  0.0369  0.0768  0.1536
13375W        W26789  10.707   5.928   4.206 -0.1097 -0.0927  0.2070
13376W        W26790  15.660   8.209  15.012  0.0764  0.1464 -0.1235
13377W        W26791  11.940  12.766   5.154  0.1970 -0.2859 -0.0936
13378W        W26792   1.392  10.997  12.028 -0.2661 -0.1933  0.0461
13379W        W26793  17.783   4.564   9.866 -0.0254 -0.0466 -0.1059
13380W        W26794   0.464   4.507   0.305 -0.0346 -0.2742 -0.1720
13381W        W26795   5.187   2.589  13.763  0.1856  0.2478  0.0900
13382W        W26796  11.522   5.701   4.241  0.1894  0.0399 -0.1658
13383W        W26797   0.110   5.354   6.520 -0.2565  0.0400 -0.3940
13384W        W26798   7.079   0.467   5.910 -0.1997  0.0048 -0.3414
13385W        W26799   5.738  16.484  11.169 -0.1114  0.0645  0.4142
13386W        W26800   8.684  17.340   5.859 -0.1155  0.1364  0.0384
13387W        W26801  15.530  11.137  15.833 -0.3777 -0.1642 -0.0121
13388W        W26802  18.104   7.087  12.704  0.2800  0.3869 -0.1943
13389W        W26803   4.725  16.141   4.033 -0.3457  0.0180  0.0246
13390W        W26804  14.380   6.228   5.324  0.3766 -0.3476 -0.3376
13391W        W26805   1.421  11.419  12.345  0.0059  0.3350 -0.1913
13392W        W26806   5.563  17.868   3.713 -0.5052 -0.0365  0.2097
13393W        W26807  11.342   0.522   3.507 -0.1161 -0.1090 -0.1778
13394W        W26808  17.270  14.465   1.888 -0.2794 -0.1461  0.1041
13395W        W26809   5.247   7.230  10.754  0.0609 -0.1203  0.2638
13396W        W26810   2.770   0.824   0.223  0.1485  0.0554 -0.2261
13397W        W26811   3.210  17.856  14.299 -0.1858 -0.2556  0.0312
13398W        W26812   9.057   7.493  11.376  0.3944  0.0401  0.2393
13399W        W26813   9.843  17.931   2.213  0.1374 -0.1154  0.1461
13400W        W26814   5.004  17.856   1.813  0.1266  0.0725 -0.0972
13401W        W26815   8.809   8.405  12.005 -0.0273 -0.0750 -0.2916
13402W        W26816   1.304   1.012   1.866  0.0233 -0.0112  0.0170
13403W        W26817   9.642   1.409  11.081  0.1876  0.2375  0.1259
13404W        W26818   9.691   3.220   2.252  0.0333  0.2776  0.0659
13405W        W26819   9.979  12.852  12.844 -0.1520  0.4370  0.4549
13406W        W26820  17.384   5.542  14.141 -0.5310 -0.1471 -0.0048
13407W        W26821  12.936   6.391  12.049 -0.0091 -0.0664 -0.0248
13408W        W26822   9.247   9.181   0.245  0.0706 -0.3193  0.2848
13409W        W26823  14.441  10.932  13.166  0.2145 -0.2335  0.2028
13410W        W26824   2.585  18.368   0.342 -0.0690 -0.1462 -0.1449
13411W        W26825  17.146   6.720   4.907 -0.0227  0.0046  0.2554
13412W        W26826   9.812  14.682   5.558  0.0337 -0.3020  0.2662
13413W        W26827   6.537   2.230  14.686  0.1724 -0.2089 -0.2408
13414W        W26828  13.302   0.053  15.955 -0.4031 -0.1299  0.0820
13415W        W26829  11.965   3.490   5.236 -0.1783  0.1074  0.2902
13416W        W26830  11.080   8.553   1.689  0.2818 -0.1251 -0.0527
13417W        W26831  15.371   0.572  14.657 -0.1544  0.0724 -0.1570
13418W        W26832   2.940   3.743   3.952  0.2144 -0.1208 -0.0671
13419W        W26833  10.162   2.567   2.911 -0.0047  0.2459 -0.1367
13420W        W26834   1.138   0.284   1.359  0.2280  0.1682  0.0113
13421W        W26835  10.940   1.804  14.757 -0.2021 -0.0321  0.2478
13422W        W26836   1.480   4.976  15.169  0.1369 -0.2581  0.0377
13423W        W26837   8.104   3.490  14.456 -0.1408 -0.1118  0.3292
13424W        W26838   9.829  11.366   5.936  0.3383 -0.5101 -0.3294
13425W        W26839  13.705  10.972  16.089 -0.1662  0.0585 -0.0853
13426W        W26840  10.075  10.975   0.207 -0.2019  0.0318  0.4082
13427W        W26841  11.350   0.438   4.891  0.1361 -0.0598  0.0944
13428W        W26842   5.110  10.995  11.459  0.1982 -0.0901 -0.2235
13429W        W26843   0.731  11.033  11.136 -0.0658  0.0294  0.1356
13430W        W26844   4.669   2.158  10.725 -0.2146  0.0005 -0.0142
13431W        W26845  15.808   8.782   4.117  0.1211 -0.2786  0.2788
13432W        W26846   5.752  15.439   0.510 -0.0139  0.1308 -0.0773
13433W        W26847  17.886  17.101  10.767  0.2763 -0.0569 -0.2435
13434W        W26848  18.504  11.851  15.833 -0.2761 -0.0945  0.2884
13435W        W26849  16.764   9.584   2.639  0.2510 -0.0567 -0.0775
13436W        W26850   4.951   1.485   3.345 -0.1245 -0.0984 -0.3079
13437W        W26851   0.222  17.229  13.411  0.1090  0.0314 -0.2811
13438W        W26852   4.781  15.782   2.841  0.2316 -0.2016 -0.0664
13439W        W26853  13.284  13.097  13.936 -0.1422 -0.1041 -0.1239
13440W        W26854   2.783   3.945   3.458 -0.3267 -0.1260 -0.0977
13441W        W26855  10.689   9.184   4.707  0.0789 -0.0141 -0.0702
13442W        W26856  18.057   3.180  10.446 -0.1576  0.0037  0.1441
13443W        W26857   2.985   7.572   0.606 -0.0361  0.1735  0.1322
13444W        W26858  18.423   4.872   5.451 -0.1368 -0.0043  0.0252
13445W        W26859  11.499  13.342   1.056 -0.0020  0.1581  0.1856
13446W        W26860   9.119   6.476   0.848  0.1000 -0.0947  0.0171
13447W        W26861  16.734  17.159  12.471 -0.2297 -0.3777 -0.0259
13448W        W26862  17.877  16.265  13.233 -0.0451  0.1760 -0.0934
13449W        W26863   5.347  13.866   4.079 -0.1831 -0.1099 -0.1662
13450W        W26864  17.070   0.990   1.828 -0.1363 -0.2641 -0.2557
13451W        W26865  17.774   8.171   0.414  0.0652 -0.2269  0.0975
13452W        W26866   0.350  12.953   0.006  0.2402  0.2372  0.2796
13453W        W26867  17.971  12.823   6.468  0.0171  0.1944  0.4811
13454W        W26868   8.390  13.580   1.509 -0.0283  0.1171 -0.1521
13455W        W26869  14.914  13.781  11.603 -0.1875  0.0868  0.1848
13456W        W26870  15.470  18.109   0.218 -0.2334 -0.0123  0.0528
13457W        W26871  17.102   3.997  10.126 -0.0761 -0.0117  0.0022
13458W        W26872  16.597   8.936  10.967  0.0519 -0.0603  0.0080
13459W        W26873   4.319   1.925   3.927 -0.1747  0.0844  0.0757
13460W        W26874  14.702   6.797  15.752  0.0414  0.0100 -0.1277
13461W        W26875  14.208   2.832  14.502 -0.1076  0.1811  0.1497
13462W        W26876  17.152  18.156  10.687 -0.2010  0.0083  0.3378
13463W        W26877  17.524   4.167  13.818 -0.3872  0.0890  0.3283
13464W        W26878   7.903   3.166  15.401 -0.1150 -0.1019  0.0324
13465W        W26879   4.252   5.670  12.642  0.0488 -0.0088  0.0047
13466W        W26880   8.611   9.122   0.385  0.3068  0.3000 -0.1444
13467W        W26881   0.439  13.458  15.116  0.1709 -0.0259 -0.2440
13468W        W26882   7.406   6.033  15.878  0.1334  0.0010 -0.0066
13469W        W26883  12.958   6.124  12.459  0.0705 -0.2993 -0.1302
13470W        W26884   4.372   8.060   4.578 -0.0509  0.3672  0.3380
13471W        W26885   7.000   7.287   5.672 -0.0136 -0.1006 -0.0050
13472W        W26886  16.771  15.068   3.277 -0.2731 -0.2283 -0.2634
13473W        W26887  17.239   9.383   5.051  0.2559 -0.1184  0.0747
13474W        W26888   1.916   5.876  13.900 -0.0395  0.0469  0.2132
13475W        W26889  17.942  15.678   1.188  0.4548 -0.3300  0.3394
13476W        W26890   0.232   8.039   5.853  0.0641  0.1773  0.1571
13477W        W26891   3.836  13.870  11.844  0.1910 -0.2967 -0.0992
13478W        W26892  12.328  11.225   2.224  0.1640  0.0100  0.0368
13479W        W26893  10.016   8.884   1.840 -0.0034  0.2174 -0.0081
13480W        W26894  10.357  15.595  14.720  0.2502  0.2911  0.4106
13481W        W26895   7.968  12.738  11.176 -0.0601  0.0319  0.0334
13482W        W26896  11.261   4.750   5.151 -0.0995 -0.1114  0.1140
13483W        W26897   0.370   1.101  12.585 -0.3131  0.1938 -0.0697
13484W        W26898   0.344   4.230   1.977 -0.0416  0.0221 -0.4590
13485W        W26899   4.642   1.670  15.954 -0.1798  0.2722 -0.1113
13486W        W26900  13.554  15.070  11.332 -0.4237 -0.0278 -0.2776
13487W        W26901   2.087  15.731   3.959  0.1457  0.3464  0.2134
13488W        W26902   7.014   3.558  11.100  0.1856 -0.1413  0.0460
13489W        W26903   3.921   9.694   3.289  0.1743  0.2603  0.0381
13490W        W26904   6.083  13.329   3.773 -0.1459  0.0646 -0.2573
13491W        W26905   6.157   8.661   3.507  0.0201 -0.1485 -0.0641
13492W        W26906  11.154   2.009   5.164 -0.1217 -0.1205  0.3282
13493W        W26907  11.962   4.132   1.107  0.2953  0.0372  0.1239
13494W        W26908  17.683   5.465  13.237 -0.1847  0.3415 -0.0952
13495W        W26909  12.746  14.470  13.541 -0.4982  0.1103  0.2107
13496W        W26910  10.680  14.465  12.091 -0.3398 -0.3653 -0.0917
13497W        W26911   4.963  15.709  15.445  0.2971  0.0701 -0.3374
13498W        W26912   1.333   1.785  13.878 -0.4073  0.1831 -0.1756
13499W        W26913   8.637  16.548   3.078 -0.1623  0.2004  0.2707
13500W        W26914   6.842   6.061  10.102  0.2270 -0.2223 -0.2666
13501W        W26915   0.841  12.908   0.864  0.1748  0.1340  0.0991
13502W        W26916  17.152  14.831  10.507 -0.2971  0.0064  0.0161
13503W        W26917  12.215  10.052   6.052 -0.2788 -0.3767 -0.0009
13504W        W26918   5.080   3.737  10.455  0.3669  0.0958 -0.0336
13505W        W26919  14.241   8.774   5.050  0.0127 -0.0422 -0.1940
13506W        W26920  15.874   6.913   3.220  0.1802  0.1454 -0.1884
13507W        W26921   0.851   6.549   2.303  0.2531 -0.2074 -0.1341
13508W        W26922  14.094   6.436  11.203 -0.2752 -0.1269 -0.1155
13509W        W26923  17.771  18.347   4.787 -0.1955 -0.0481  0.0393
13510W        W26924  18.301  13.421  11.381 -0.0311  0.1459  0.0728
13511W        W26925   8.077  17.280  11.970  0.0304  0.1344  0.0837
13512W        W26926  18.441  16.046  12.963  0.0942 -0.4175  0.0799
13513W        W26927   3.435  18.478   1.796  0.1220 -0.0174 -0.0994
13514W        W26928   1.091   0.823  11.843 -0.0684  0.1356 -0.2240
13515W        W26929  15.544   6.113  15.684 -0.1026  0.3110 -0.1073
13516W        W26930   3.735   5.402   1.977 -0.1133  0.5620 -0.1221
13517W        W26931   0.277  12.322   3.748 -0.0515 -0.1363  0.1186
13518W        W26932   5.118   2.471   3.952  0.4278 -0.0168  0.3820
13519W        W26933   5.869  16.117  10.785 -0.2174 -0.2001 -0.2932
13520W        W26934   6.471   1.067  11.460 -0.0496 -0.1730 -0.1491
13521W        W26935   0.256   7.516   2.276 -0.2639 -0.1547 -0.1543
13522W        W26936  12.043   5.736  10.350 -0.3476  0.0211 -0.1902
13523W        W26937  16.052   6.889   1.115  0.1200  0.3095 -0.0701
13524W        W26938  11.475   6.449  13.876 -0.0387  0.0097 -0.4041
13525W        W26939  13.486  15.741   0.707  0.3326  0.0180  0.0757
13526W        W26940   5.223  15.744  12.843 -0.0719 -0.1287  0.0660
13527W        W26941   9.986   9.130  12.254 -0.2140 -0.0032  0.3685
13528W        W26942  17.301  14.933   4.692  0.0387  0.1043 -0.3158
13529W        W26943   4.777  16.873   1.385  0.1493  0.0405  0.0109
13530W        W26944   7.165  18.345  15.428  0.1639  0.1049  0.3073
13531W        W26945  13.660   0.860   2.468  0.2786  0.1912 -0.1242
13532W        W26946   1.462  14.301  12.695 -0.1220 -0.1342 -0.1800
13533W        W26947   6.143   4.818   4.231 -0.0082 -0.0420 -0.0781
13534W        W26948  11.686  13.566  15.732 -0.0711  0.6250 -0.0624
13535W        W26949  18.319   3.034   0.040 -0.2308  0.0081 -0.3437
13536W        W26950   9.180  17.614   6.441 -0.0902 -0.2709  0.1120
13537W        W26951  13.802  10.593  13.827 -0.0243  0.3340  0.0923
13538W        W26952   7.994  12.620   0.826 -0.0822  0.0973 -0.1997
13539W        W26953  12.818   9.035   2.915 -0.2255 -0.4132 -0.0464
13540W        W26954   1.560  11.202  15.303  0.0873  0.1521  0.0883
13541W        W26955   8.643  16.061   0.927 -0.4296  0.0973 -0.0342
13542W        W26956  16.327  16.680  14.217 -0.3464  0.1667  0.2869
13543W        W26957  12.726   8.450   6.217  0.0748 -0.0656  0.0339
13544W        W26958  13.338  15.152   3.400  0.1290 -0.2324  0.0373
13545W        W26959   4.014  16.238   0.647 -0.1409 -0.0752  0.3122
13546W        W26960  11.266  16.352   1.972  0.0335  0.0596  0.0333
13547W        W26961  11.039  11.112  14.369  0.3628 -0.0398  0.1143
13548W        W26962   9.446   9.396  12.498 -0.0316 -0.0330 -0.0608
13549W        W26963  16.803  11.218  11.508 -0.2301 -0.0311 -0.0182
13550W        W26964   0.279   0.232   5.376 -0.0378  0.0841 -0.0670
13551W        W26965  10.864   4.222   2.557 -0.1640 -0.0435 -0.4293
13552W        W26966   2.016   6.202  14.614  0.0670  0.0286 -0.1211
13553W        W26967   3.220   7.070  15.279  0.0903  0.4056  0.1342
13554W        W26968  16.792  15.574   3.002  0.4630  0.1479  0.2971
13555W        W26969   2.030   3.220   0.628 -0.0308  0.4571 -0.0089
13556W        W26970  17.351  10.943  14.065 -0.0321 -0.2721 -0.1629
13557W        W26971   7.888   6.123  13.308  0.1607 -0.0188  0.1723
13558W        W26972  15.434   2.994  12.210 -0.0574 -0.0350 -0.0433
13559W        W26973  16.032  14.167  12.233  0.2067 -0.1335  0.1357
13560W        W26974   2.208  10.315   4.631 -0.0962 -0.0220  0.0110
13561W        W26975  14.354  17.538  10.073  0.4578  0.0435 -0.0411
13562W        W26976   7.670  10.917   0.603 -0.1042 -0.2430 -0.1623
13563W        W26977  15.728   3.244  11.544 -0.1244  0.2314 -0.1919
13564W        W26978   0.615   7.976  14.592  0.1198  0.1806 -0.0543
13565W        W26979  11.609   4.353   2.560  0.0003  0.0582  0.0325
13566W        W26980  18.203  17.981  15.207 -0.0642  0.0070 -0.0802
13567W        W26981  10.068  10.358   1.536 -0.1104  0.0187  0.2861
13568W        W26982  13.156  14.393  15.091 -0.2462 -0.4092 -0.2644
13569W        W26983   6.278   7.907  13.799 -0.0892  0.1020 -0.0451
13570W        W26984  13.512  15.981  12.928 -0.2234  0.1769  0.0207
13571W        W26985  11.241   7.877  12.325 -0.2401 -0.1438 -0.0287
13572W        W26986  14.982  13.884  12.089 -0.2506 -0.1952 -0.3320
13573W        W26987   6.499   0.864   5.412  0.0574  0.0803 -0.1223
13574W        W26988   2.836  14.478  13.440  0.1760  0.1561  0.1847
13575W        W26989   4.456  16.042  14.038 -0.0365 -0.2013  0.0923
13576W        W26990   0.176   3.862  15.142  0.0007 -0.0561 -0.2127
13577W        W26991   7.332   6.209   5.649  0.0737 -0.0249 -0.0536
13578W        W26992   9.626   9.433   3.914  0.2418 -0.1150  0.0823
13579W        W26993  12.349  11.447  10.777 -0.1873  0.1197  0.3971
13580W        W26994   7.586   3.175   1.476 -0.1941  0.3789 -0.1663
13581W        W26995   4.650  11.351  15.330 -0.1457  0.1811  0.0618
13582W        W26996  11.958   8.898   1.310 -0.4213  0.0283  0.0608
13583W        W26997  11.721  16.177  15.247  0.0736 -0.1287  0.0916
13584W        W26998  10.649  12.904   2.337  0.1078  0.1106  0.0965
13585W        W26999  13.387  13.150   5.397  0.0145 -0.0695  0.3489
13586W        W27000   6.223  12.408   0.844  0.1127  0.0932  0.0284
13587W        W27001  16.485  15.850  10.871  0.1627  0.0028 -0.1631
13588W        W27002  13.728  12.124  11.040 -0.3209  0.3385 -0.0736
13589W        W27003   0.362  16.114  13.091 -0.0570 -0.2621  0.0089
13590W        W27004  12.673   2.664   2.992 -0.5156 -0.1515  0.0837
13591W        W27005  14.798   2.818  11.505  0.1089 -0.4343 -0.0551
13592W        W27006  10.758  13.706  10.796 -0.0573 -0.1980 -0.1208
13593W        W27007   5.485   1.672  11.651 -0.3967 -0.3337 -0.0107
13594W        W27008   2.134   4.588  11.663 -0.2133 -0.1337  0.0452
13595W        W27009  14.281  17.006  12.256  0.0555 -0.0151  0.1292
13596W        W27010  17.826  17.177  15.840 -0.1328  0.0600  0.1117
13597W        W27011   8.555   5.471   0.337  0.1396  0.0820 -0.0316
13598W        W27012   7.446  17.376  13.780  0.3913 -0.0286  0.0779
13599W        W27013  11.821  15.543   5.591  0.0836  0.3033  0.2090
13600W        W27014   2.120   7.284   0.611 -0.0965 -0.2411  0.0082
13601W        W27015   3.201  15.373  16.126 -0.3607 -0.1201 -0.0250
13602W        W27016   1.880  15.436   2.521  0.1518 -0.1107 -0.1467
13603W        W27017  17.026   5.848  15.952 -0.2131  0.0251 -0.0070
13604W        W27018   3.970   8.511  12.406  0.2394 -0.1776  0.2190
13605W        W27019   9.028   5.142  11.807  0.0994  0.1013  0.0959
13606W        W27020  18.419  14.233   0.982  0.4355 -0.0239 -0.1160
13607W        W27021   0.355  16.927   2.696  0.0878 -0.1150 -0.2044
13608W        W27022  13.882   7.549   4.125  0.0117  0.2470  0.1801
13609W        W27023  11.517  12.300  16.227  0.0450  0.1632 -0.1749
13610W        W27024  17.898   5.000   1.787 -0.1469  0.3216  0.0901
13611W        W27025  10.945   9.401   4.335 -0.0780  0.0811  0.1528
13612W        W27026   8.071  17.160   2.822 -0.2067 -0.3955  0.2594
13613W        W27027   9.400   9.978  15.892  0.0203  0.1735 -0.2417
13614W        W27028  13.514   4.198   5.342  0.0406  0.0211 -0.1007
13615W        W27029  13.601  15.307  14.419  0.3443 -0.1040 -0.0160
13616W        W27030   2.789  13.887  11.259 -0.2600 -0.0892 -0.1486
13617W        W27031  16.185  18.129   0.863  0.0799 -0.3584 -0.1319
13618W        W27032  18.275   1.810   5.768 -0.0570 -0.2806  0.0450
13619W        W27033  18.091   9.460  13.136  0.0153  0.0517  0.0413
13620W        W27034   1.444  12.055   4.356  0.0453 -0.0284  0.3291
13621W        W27035   3.820   8.077  13.214 -0.2069 -0.0255  0.2741
13622W        W27036  14.857  15.319   2.175 -0.3013 -0.1524 -0.1982
13623W        W27037  11.044   8.716   3.471  0.1442  0.1638  0.1376
13624W        W27038   1.751   8.554  13.800 -0.1190 -0.1332 -0.1850
13625W        W27039  16.525   5.833   5.744  0.1039 -0.3764 -0.2163
13626W        W27040   8.670   9.554   2.101  0.3003  0.3143 -0.2181
13627W        W27041   0.662   2.860   5.588  0.1632 -0.3676 -0.3368
13628W        W27042   9.476  12.842  11.604 -0.1765 -0.1791  0.0237
13629W        W27043  17.520   1.895   0.981 -0.1784  0.1725  0.1436
13630W        W27044  12.235  10.467   0.200 -0.1770  0.1912 -0.1778
13631W        W27045   0.575   1.243   1.094  0.0217  0.1508  0.2387
13632W        W27046  11.920  12.997  12.761 -0.0585 -0.0027 -0.1202
13633W        W27047   0.336   0.950   5.583  0.4032 -0.2224  0.0969
13634W        W27048  10.330   1.976  13.466 -0.3458 -0.0119  0.0121
13635W        W27049  12.938  14.822  10.239 -0.0331  0.0067 -0.3890
13636W        W27050  11.087   9.350  14.646  0.0062 -0.1696 -0.2121
13637W        W27051   4.618   6.991   1.660  0.0252 -0.3820 -0.3385
13638W        W27052  11.447  11.254   3.640 -0.2534 -0.3045 -0.0386
13639W        W27053   2.856  11.036  10.489  0.0551 -0.0495  0.0427
13640W        W27054  17.705  14.788  14.146 -0.1565 -0.2633 -0.2848
13641W        W27055  13.231  11.219  14.336 -0.2513 -0.0229 -0.3940
13642W        W27056   8.829  12.844   3.509  0.2863  0.0120 -0.1188
13643W        W27057   6.590   0.028  15.939  0.0469 -0.0406  0.2897
13644W        W27058  17.218   1.421   2.895 -0.1272 -0.1073  0.0026
13645W        W27059   2.863  15.409   2.383  0.3431  0.1658 -0.0212
13646W        W27060  14.415  10.813   5.373  0.0647  0.4486 -0.0006
13647W        W27061   4.407   4.315   2.115  0.1585 -0.0186 -0.0004
13648W        W27062   0.927  12.224   1.061 -0.0752 -0.1827  0.2077
13649W        W27063  11.200  16.140  10.040  0.1816  0.0831 -0.0279
13650W        W27064  18.007  17.249   2.699  0.0461  0.1994 -0.2687
13651W        W27065   3.958   6.936   2.528  0.3595 -0.2085  0.1010
13652W        W27066  14.422  13.372   0.534  0.2278 -0.1537 -0.0194
13653W        W27067   7.513   9.770   0.961 -0.1218  0.0972 -0.0529
13654W        W27068  11.774  14.881  12.018  0.0317 -0.2447  0.2812
13655W        W27069  17.930  13.837   1.673 -0.2258  0.2811 -0.2032
13656W        W27070  12.971  10.580   3.160 -0.1181  0.1002 -0.2704
13657W        W27071   6.076  18.308  13.160 -0.1176  0.0848  0.0594
13658W        W27072  17.072   6.140  12.565  0.3326  0.0785 -0.1085
13659W        W27073   5.863   8.548   6.433  0.2429 -0.1093  0.0883
13660W        W27074  11.706  13.822   4.934 -0.0448 -0.1814 -0.0960
13661W        W27075   5.472   3.917   5.865 -0.0486  0.2573 -0.1058
13662W        W27076   8.111   0.174  10.828  0.0789 -0.0725  0.0928
13663W        W27077  17.598  11.740  13.464 -0.2223  0.1216  0.0315
13664W        W27078   1.861   4.602   6.852  0.0481  0.0406 -0.2246
13665W        W27079  18.128   4.130   4.815  0.0049  0.0385 -0.4172
13666W        W27080   9.074  10.311   1.390  0.1795 -0.2103  0.0743
13667W        W27081   5.713   0.756   4.604 -0.0905 -0.0322  0.1064
13668W        W27082  12.497  17.223  10.598 -0.3538  0.2146 -0.1941
13669W        W27083   0.919   6.383   0.762  0.3148  0.1898  0.3183
13670W        W27084  17.120  11.871  15.967 -0.1931  0.0928  0.0031
13671W        W27085   5.094  13.412   0.220 -0.6425  0.0208 -0.1705
13672W        W27086   3.725   6.430  14.932  0.0524  0.0649 -0.1119
13673W        W27087  15.819   7.295  13.451 -0.3543  0.1051 -0.2336
13674W        W27088  17.084  12.599   2.587 -0.1143  0.1937 -0.0556
13675W        W27089   4.906  12.541   3.816 -0.1552  0.0893  0.0891
13676W        W27090  18.245   1.528   3.348  0.2700  0.2166  0.1549
13677W        W27091  10.832  14.494   0.342 -0.0827  0.1594 -0.3416
13678W        W27092  11.326  12.052  15.086  0.1099  0.1575  0.1715
13679W        W27093   5.648   3.769  11.792  0.2953 -0.1174 -0.2648
13680W        W27094   4.464   3.857   0.974 -0.1784 -0.1930 -0.3749
13681W        W27095  15.152   7.004  11.836  0.1060 -0.0314  0.0858
13682W        W27096  10.736   9.317   0.899  0.0020  0.0402 -0.1498
13683W        W27097  14.739   7.178  14.084  0.2144 -0.0112 -0.2268
13684W        W27098   4.842  15.219  11.145 -0.1685 -0.0306  0.1199
13685W        W27099   8.510   2.715  15.913 -0.3020  0.1629 -0.1699
13686W        W27100   7.767  11.187   3.126 -0.0830 -0.1825  0.0176
13687W        W27101   8.146  10.984   4.260 -0.2918 -0.1319 -0.1026
13688W        W27102   3.524  14.969  11.065  0.0761  0.3892  0.2410
13689W        W27103  14.440  18.256  14.183  0.0213 -0.0066  0.0956
13690W        W27104   5.313  14.762  15.074  0.0561  0.1166 -0.0408
13691W        W27105  15.816  18.335   3.554 -0.0485 -0.0055 -0.3187
13692W        W27106   7.772  14.498   1.377 -0.1480 -0.2181  0.1247
13693W        W27107  13.412  15.509  12.795  0.0011  0.1849 -0.1193
13694W        W27108  14.087  17.769  15.900  0.0354 -0.1954  0.0575
13695W        W27109  16.340   3.619  13.334  0.0916  0.0215 -0.0029
13696W        W27110  18.512   8.611  14.372 -0.2858 -0.1529 -0.0800
13697W        W27111  16.260   1.553   3.144  0.0881 -0.3038  0.4114
13698W        W27112   4.248   7.925   4.061 -0.1326 -0.0469  0.0008
13699W        W27113   5.748   9.140  14.025 -0.0145 -0.2300 -0.0860
13700W        W27114   4.759  13.822   3.904  0.2969 -0.0424 -0.0313
13701W        W27115   9.123  14.840  13.592 -0.2113  0.0573  0.0386
13702W        W27116  13.970   0.266   1.208  0.1220 -0.0188  0.0781
13703W        W27117   5.858   1.714   4.178 -0.0672 -0.1480 -0.0193
13704W        W27118   4.893   4.226  15.406  0.2149  0.1457 -0.1570
13705W        W27119   4.341  13.307  11.408  0.0531 -0.0067  0.0660
13706W        W27120   5.195   9.570   1.516 -0.1290  0.3075  0.0116
13707W        W27121   1.365   7.029  13.852  0.1716  0.2162  0.2352
13708W        W27122  11.734   7.947  13.870  0.1586 -0.3784  0.0137
13709W        W27123   7.316  10.319   2.614  0.0994 -0.2021 -0.1546
13710W        W27124   6.157   0.559  14.457 -0.0145 -0.0254  0.0441
13711W        W27125   5.257   3.768  10.900 -0.2114 -0.0651  0.0633
13712W        W27126   7.182   4.483   3.606  0.1734  0.1901  0.0408
13713W        W27127  17.952  10.373  16.017 -0.3367  0.0858  0.4019
13714W        W27128   6.125   1.342  14.831 -0.1117 -0.3005  0.2751
13715W        W27129  17.898   6.760   1.567  0.0668  0.1011  0.1184
13716W        W27130   2.036   1.687  11.105 -0.2199 -0.0485  0.1173
13717W        W27131  18.147  13.928  10.179 -0.2771  0.0582 -0.0512
13718W        W27132  12.883  12.344   4.012 -0.1891  0.2316 -0.1404
13719W        W27133   7.189   0.969   2.609  0.0645 -0.0069  0.4387
13720W        W27134   3.245   2.084  14.833  0.0864 -0.0522  0.0233
13721W        W27135   6.278  17.862   4.100  0.3262 -0.1367  0.4094
13722W        W27136   4.626  12.585   0.664  0.0957  0.2761  0.2380
13723W        W27137   4.369   5.936  11.152 -0.0126  0.1676  0.2583
13724W        W27138  13.483   8.008  11.887 -0.0057  0.0941 -0.0711
13725W        W27139  11.284  15.280  11.991  0.3229  0.0385  0.2889
13726W        W27140   6.088   3.242   4.525 -0.1068 -0.0010 -0.0835
13727W        W27141  16.713   5.762  13.015 -0.1828 -0.3499  0.0499
13728W        W27142   4.941  16.802  16.191  0.1385  0.3045  0.1022
13729W        W27143   9.370  17.627   2.299  0.0759 -0.2977  0.2990
13730W        W27144  11.281   1.224   1.424  0.0408  0.2609 -0.1321
13731W        W27145  10.177   7.182  15.990  0.3051 -0.0815 -0.1784
13732W        W27146  16.891  16.295   0.304 -0.1490  0.2983  0.2124
13733W        W27147  18.102  14.610  15.506  0.2611 -0.1038  0.0759
13734W        W27148   7.270   8.609   5.340  0.1828 -0.1542  0.0985
13735W        W27149   8.487  11.130   2.264  0.0527  0.1783 -0.0907
13736W        W27150   0.904   1.105   1.411 -0.2023  0.4253 -0.1592
13737W        W27151   5.763   9.341   5.995  0.2636  0.0773 -0.3254
13738W        W27152  14.534  10.223   4.357  0.1826  0.0801  0.0247
13739W        W27153   4.263   6.915   4.905 -0.1468 -0.3413  0.2026
13740W        W27154   6.505  12.538  12.688  0.0028  0.0823  0.3450
13741W        W27155   4.851  16.372  14.599 -0.0232 -0.2123  0.1794
13742W        W27156   6.447  13.462  15.823 -0.2098  0.2381 -0.2022
13743W        W27157   9.468  16.150  10.487  0.0695 -0.2106 -0.2844
13744W        W27158  11.538   8.484  11.930  0.5554  0.1104  0.2228
13745W        W27159  14.635  13.927  13.032 -0.0669  0.0535  0.1119
13746W        W27160   8.278   3.139  12.574 -0.1253 -0.0850 -0.1986
13747W        W27161   1.663  16.045   2.561 -0.0838  0.0080 -0.4636
13748W        W27162   2.202  12.487  15.217 -0.1168  0.2143  0.3396
13749W        W27163   1.212  10.194   1.717  0.1411 -0.0507 -0.0700
13750W        W27164   7.549   8.414   3.847 -0.2294 -0.0219  0.2586
13751W        W27165  17.443  12.145  10.728  0.2090  0.2075  0.2570
13752W        W27166   2.634   3.301  11.799 -0.5220 -0.3358  0.0593
13753W        W27167   5.683  10.923  10.972 -0.1008  0.0305 -0.3412
13754W        W27168   4.968  12.266   5.288 -0.0459 -0.0210 -0.2672
13755W        W27169   4.470   0.647  11.012 -0.0026  0.0317 -0.0503
13756W        W27170   4.679  12.038   0.553  0.0859 -0.4521  0.0107
13757W        W27171   8.150  12.365   1.316 -0.2362  0.1099 -0.2958
13758W        W27172   0.043  12.504   1.226 -0.2970  0.1081  0.0574
13759W        W27173   6.274  13.852   0.011 -0.0277  0.0859 -0.0918
13760W        W27174  10.006   5.710  12.834 -0.2483  0.0217  0.1233
13761W        W27175  10.149   2.649   0.318 -0.0529  0.1217  0.1085
13762W        W27176   3.403  14.905   1.524 -0.0909  0.1619 -0.2806
13763W        W27177  16.656   7.187  14.463 -0.0238 -0.2491 -0.1591
13764W        W27178  17.938   2.201   5.891 -0.3674 -0.0697 -0.1046
13765W        W27179   7.403   2.668  12.936  0.0475  0.3614 -0.3897
13766W        W27180  12.325  16.505  15.384  0.2382 -0.0328 -0.1463
13767W        W27181   6.087  13.203  13.711  0.3335  0.5345  0.1270
13768W        W27182  10.135   2.196  11.978 -0.0117  0.1575 -0.2419
13769W        W27183  14.469  11.358   0.532  0.2904 -0.1662 -0.0684
13770W        W27184   8.065  14.521  10.847  0.0114 -0.1019 -0.2256
13771W        W27185   6.357  18.118   4.788 -0.2132 -0.0718  0.2026
13772W        W27186   2.495  13.246  12.926 -0.0619  0.0613  0.2947
13773W        W27187   5.549  15.199   5.792 -0.3817 -0.0773 -0.0404
13774W        W27188   5.296  13.673   3.548  0.1629  0.4183 -0.0207
13775W        W27189  11.529   1.272  15.419 -0.3246  0.2609 -0.2567
13776W        W27190  13.406  11.324   0.075  0.2957  0.0872 -0.3744
13777W        W27191   5.561  14.261   3.292  0.1685 -0.1585  0.0265
13778W        W27192   4.476  11.043  13.775  0.1128 -0.3319 -0.2546
13779W        W27193  11.465   1.579   4.879 -0.0275  0.0255 -0.3838
13780W        W27194  14.983   4.127   4.045  0.1556  0.1974  0.1819
13781W        W27195   5.672  14.229  10.335  0.2525 -0.2659 -0.2763
13782W        W27196  14.838   0.536   1.609  0.0619  0.0588 -0.3050
13783W        W27197  11.201  18.009   5.332  0.3065 -0.1836  0.0459
13784W        W27198   3.307   8.407  15.983 -0.0061 -0.0221  0.1105
13785W        W27199   8.777   4.015   5.327 -0.1971 -0.0867 -0.3483
13786W        W27200   8.538  12.358   0.966 -0.0621 -0.1065 -0.2539
13787W        W27201   4.766   3.669  13.897  0.2453  0.3515 -0.3831
13788W        W27202  12.067  13.758   2.925 -0.0328  0.3416  0.1052
13789W        W27203  17.273   1.464   2.368 -0.0923  0.0711 -0.1414
13790W        W27204   3.490   7.955  13.584 -0.0415 -0.0784 -0.0772
13791W        W27205  10.098   9.518   4.157  0.1037 -0.3266 -0.1296
13792W        W27206  11.670  17.680  13.407 -0.1467 -0.0743  0.2092
13793W        W27207  15.940   4.960   4.339  0.0563  0.1858  0.0524
13794W        W27208   7.097  10.338  15.274 -0.0067 -0.2588  0.0155
13795W        W27209  15.056  17.153  13.667 -0.1322  0.1484 -0.2392
13796W        W27210   9.676  13.828  12.425 -0.2248 -0.0886  0.0710
13797W        W27211   7.058   3.786   4.205  0.3413 -0.3091 -0.0778
13798W        W27212   9.735  14.567  10.408 -0.1503 -0.1377  0.4879
13799W        W27213   6.779   7.865  11.835 -0.0835 -0.1560  0.0499
13800W        W27214  14.054   5.997  14.271 -0.1505  0.1714  0.1840
13801W        W27215   4.678  14.507  12.775  0.0418 -0.0207  0.1399
13802W        W27216   3.557   5.587  11.936 -0.1280  0.1006  0.0264
13803W        W27217  10.829  13.292  13.006 -0.0573 -0.1602 -0.0133
13804W        W27218  14.703   3.037  12.867 -0.0765  0.0360  0.0944
13805W        W27219  17.536   0.036  16.004  0.1218 -0.0626  0.1809
13806W        W27220  15.247  18.236   3.609  0.0173  0.0542 -0.0901
13807W        W27221   0.591   4.956  15.243  0.1272  0.0043  0.0705
13808W        W27222  10.979  16.943  13.595  0.1457  0.0783  0.2611
13809W        W27223  10.072   2.257   5.843 -0.0454  0.0012 -0.0007
13810W        W27224   2.741   8.967   6.578 -0.0270  0.2631  0.1473
13811W        W27225   7.673   2.697   3.830  0.0206  0.1676 -0.0074
13812W        W27226   7.541   2.890  10.589 -0.2949 -0.2478 -0.0103
13813W        W27227   4.501  13.317   1.696 -0.1121 -0.0584  0.0203
13814W        W27228   2.488  15.875   3.704 -0.0422  0.0088  0.3173
13815W        W27229  18.140  10.650  12.194  0.2678  0.1218  0.0864
13816W        W27230   8.163  12.683  14.451 -0.0447  0.3123 -0.0523
13817W        W27231  10.115  13.364   1.883 -0.6122 -0.0145 -0.0072
13818W        W27232  11.823   3.281  12.587 -0.2090  0.0198 -0.1790
13819W        W27233   9.071  12.368   0.908  0.2799 -0.1337  0.0796
13820W        W27234   5.809   0.806  11.320  0.0221  0.3296  0.0454
13821W        W27235   2.965   1.473  13.693 -0.0186  0.0436 -0.1315
13822W        W27236  15.484  12.886   5.206 -0.1645  0.0261  0.1815
13823W        W27237  16.176   3.052   5.332 -0.0133  0.3635 -0.0173
13824W        W27238  18.259  11.174  15.584 -0.0270  0.0843  0.0107
13825W        W27239   5.842  15.401   4.562  0.2221 -0.1916 -0.1293
13826W        W27240  12.827   1.983  12.550  0.2590 -0.1546  0.1347
13827W        W27241  13.891  18.481  15.255  0.0054  0.3177 -0.4390
13828W        W27242   3.901  17.505  13.028  0.2899 -0.1532 -0.0929
13829W        W27243   2.139  13.412  15.304  0.1247 -0.0880 -0.0168
13830W        W27244   7.453   3.976  13.595 -0.3187 -0.2248  0.1573
13831W        W27245   4.254   9.233   3.400  0.1620  0.0327 -0.0613
13832W        W27246   8.177  16.288  13.416 -0.0466 -0.2334  0.2640
13833W        W27247   8.571   7.793  12.569 -0.0578 -0.2690  0.1435
13834W        W27248   6.011  12.742   4.506  0.2353  0.1153 -0.1737
13835W        W27249  10.722  13.423   3.137 -0.2253 -0.0257 -0.2621
13836W        W27250   9.900  10.907  13.914  0.3737 -0.0264 -0.0043
13837W        W27251   4.631   2.579   2.308  0.2180 -0.1318  0.3256
13838W        W27252   1.849  18.485   5.512  0.0950  0.0948 -0.1137
13839W        W27253   5.183  13.801  11.590 -0.2446  0.1981  0.1230
13840W        W27254   3.673   9.889  16.100  0.1139 -0.0413 -0.1287
13841W        W27255   2.195   9.994  15.313 -0.3839  0.4106  0.2448
13842W        W27256  12.779  16.535  15.018  0.2641 -0.2777 -0.1135
13843W        W27257  15.579   2.386  14.573  0.1542 -0.2577 -0.2303
13844W        W27258  15.583  12.110  12.673  0.0324 -0.0187 -0.0979
13845W        W27259   8.388   5.841   2.320  0.0122  0.0357  0.0554
13846W        W27260  11.411  17.259   2.543  0.0991  0.1269 -0.0059
13847W        W27261   8.822   1.311   3.445 -0.1599 -0.2040 -0.0118
13848W        W27262  10.680   3.018  12.945 -0.0895  0.2576 -0.1244
13849W        W27263   0.854  15.550  15.504 -0.2184 -0.2386  0.1400
13850W        W27264  18.276  17.514  15.616  0.1559  0.0398 -0.2384
13851W        W27265  18.076   5.754  15.778 -0.1485  0.1692  0.2369
13852W        W27266  17.549  12.051   5.029 -0.3325  0.3213 -0.0280
13853W        W27267  11.506   0.978   1.053  0.0162 -0.0666 -0.0476
13854W        W27268  12.298  17.655   4.393 -0.0092  0.0880 -0.1390
13855W        W27269   6.072   5.329   1.655 -0.0198 -0.1801  0.2342
13856W        W27270  17.794   7.225  11.903 -0.1817 -0.2090  0.0740
13857W        W27271   3.302   9.742   2.534  0.2399 -0.0167  0.0148
13858W        W27272  15.679   4.937   0.319 -0.0636  0.0219 -0.2550
13859W        W27273   0.124  14.434  11.893 -0.0136  0.1510  0.0918
13860W        W27274   9.402   2.539  16.076 -0.0136  0.3703 -0.1546
13861W        W27275  15.545  11.311   3.678 -0.1072  0.0473  0.1445
13862W        W27276   5.828  11.470  13.944 -0.3471  0.0506  0.1340
13863W        W27277  17.738  11.921   2.340 -0.1005  0.4727  0.0437
13864W        W27278  11.160  13.902   5.012  0.0304 -0.1946  0.0545
13865W        W27279   1.673  13.388   2.969  0.0253 -0.0014 -0.0484
13866W        W27280  12.568  11.428  11.220 -0.4677  0.2097  0.0099
13867W        W27281  17.723   3.514   0.216  0.2522  0.1556  0.1331
13868W        W27282  15.855  10.818  15.101  0.0918  0.1363  0.1207
13869W        W27283  11.670   8.144  12.903 -0.1982  0.1687 -0.1693
13870W        W27284   8.665  12.976  15.986  0.1264 -0.1868 -0.2293
13871W        W27285   0.767  12.264  13.423 -0.1107  0.0943 -0.0043
13872W        W27286  17.166   3.523  10.843  0.2043 -0.2269  0.3293
13873W        W27287  18.092  17.805   4.220 -0.1444 -0.0874 -0.0929
13874W        W27288   1.669  16.325  10.106 -0.0348  0.0688  0.1554
13875W        W27289  18.247  14.072  11.735 -0.1542  0.1186  0.0271
13876W        W27290   6.977   6.228  12.752  0.3323  0.2214  0.1319
13877W        W27291  16.079  11.992  12.801 -0.0477  0.1646 -0.1174
13878W        W27292   4.867  17.649  13.275  0.2807 -0.0912  0.1619
13879W        W27293  15.330   2.222  12.027  0.2047 -0.0105 -0.0593
13880W        W27294   6.458  13.440   1.932 -0.0482 -0.0423 -0.3502
13881W        W27295  11.866   7.512   5.858 -0.1612  0.0110 -0.0993
13882W        W27296  14.478   2.166  14.131 -0.0863 -0.2230 -0.5438
13883W        W27297   4.018  16.000   2.847 -0.2785  0.0114 -0.2380
13884W        W27298   4.009   2.176   6.372  0.0957  0.0753  0.0229
13885W        W27299  15.475  18.422   4.053  0.0741 -0.0702  0.1345
13886W        W27300   2.536  12.661   0.581 -0.0016  0.1820 -0.0701
13887W        W27301   7.223   7.272   4.818  0.1034 -0.0995 -0.2115
13888W        W27302   8.742   7.001   3.161 -0.1323  0.1390  0.2134
13889W        W27303  12.460  16.225   5.566 -0.0358  0.3234 -0.1770
13890W        W27304  15.808  11.379  12.674  0.2529 -0.2477 -0.2275
13891W        W27305   4.914  18.054   2.452 -0.3029 -0.0223  0.5302
13892W        W27306   2.080   0.292   2.038 -0.0587  0.1944  0.0555
13893W        W27307   9.391  17.371   3.525  0.3487 -0.1639  0.1970
13894W        W27308   8.675   7.815  13.925  0.0746  0.0853 -0.1348
13895W        W27309   0.432  11.869   3.861 -0.2605  0.0029 -0.1850
13896W        W27310  14.410   5.894  11.473 -0.1643  0.0208  0.1084
13897W        W27311   5.105  12.490  10.228 -0.2472  0.1269  0.0188
13898W        W27312  13.538   3.665  12.164 -0.1073  0.0732 -0.0291
13899W        W27313  11.023   9.056   6.523  0.2207 -0.3717 -0.0748
13900W        W27314   8.299   9.195  15.552 -0.0801  0.1549 -0.1159
13901W        W27315   9.560   8.604   2.653  0.0305  0.0730 -0.1786
13902W        W27316   7.703   7.905  16.269 -0.0902 -0.0545 -0.0621
13903W        W27317  13.214   2.053  13.950 -0.1823 -0.0150 -0.2079
13904W        W27318  12.716   1.376   3.763  0.1065  0.0804 -0.3173
13905W        W27319  11.818  18.378  14.112 -0.1905  0.1854  0.3070
13906W        W27320   8.407   0.875  13.814 -0.1863 -0.1279  0.0599
13907W        W27321   5.481   7.893   3.908  0.3447  0.1381  0.0699
13908W        W27322   9.519   0.962  13.723  0.0218  0.1767  0.1098
13909W        W27323   4.035   4.465  14.867 -0.3334 -0.1942  0.0424
13910W        W27324  15.183  14.596   3.260 -0.1012 -0.0862 -0.0058
13911W        W27325  11.470   2.588   3.694 -0.1131  0.2352  0.0718
13912W        W27326   7.892  14.127   0.988  0.1400 -0.0355 -0.1063
13913W        W27327   0.391  12.895  13.048  0.2821  0.0023 -0.0375
13914W        W27328  17.330  15.634  13.272  0.0987  0.0441  0.2078
13915W        W27329  16.688   6.425  11.786  0.3757  0.0148 -0.1801
13916W        W27330   9.296   8.643  13.732 -0.0604  0.1990 -0.3539
13917W        W27331   1.996   5.689  13.414 -0.0484 -0.3391 -0.2559
13918W        W27332   5.752  14.934   2.715 -0.0989  0.0253  0.1816
13919W        W27333   3.630  11.824  15.588  0.4894 -0.2370  0.1518
13920W        W27334  17.735   5.905   1.545 -0.1389 -0.0649 -0.1564
13921W        W27335  17.034  11.146  12.112 -0.1713 -0.0219  0.1804
13922W        W27336  14.241   0.339   4.339 -0.3025 -0.2123 -0.1987
13923W        W27337   6.457   9.349   4.789  0.1367 -0.0665 -0.0241
13924W        W27338  17.430   3.256  15.202 -0.0623  0.1590 -0.0725
13925W        W27339   2.863  12.187   0.721 -0.1594 -0.1006  0.3673
13926W        W27340   1.597  18.433   0.790  0.0027  0.4546 -0.1443
13927W        W27341   8.361  10.755   0.821 -0.0492 -0.1158  0.0087
13928W        W27342   1.589  15.291  12.867  0.0897 -0.1390  0.0954
13929W        W27343   2.408   2.086  13.274  0.0675  0.0550  0.0129
13930W        W27344  11.812   6.147  11.163 -0.0270  0.1080 -0.1865
13931W        W27345   9.259  14.562  10.203  0.0748  0.0091 -0.1383
13932W        W27346  11.161   7.733  10.910 -0.3190 -0.2306 -0.0256
13933W        W27347  18.365   9.888   0.041 -0.0918 -0.0238  0.0599
13934W        W27348  14.177  15.800   2.741  0.1404  0.1490 -0.4372
13935W        W27349  16.536   4.394   3.246  0.1557 -0.2179  0.2709
13936W        W27350   4.880   5.427  11.530 -0.0052 -0.0354 -0.0852
13937W        W27351  18.418   2.200   4.556 -0.0427 -0.0273  0.2863
13938W        W27352   1.415  17.729   4.909  0.0324 -0.2078  0.0516
13939W        W27353  15.741   1.062  15.400 -0.0934 -0.2820 -0.2403
13940W        W27354  15.313   3.476  12.452 -0.1112  0.1300  0.0600
13941W        W27355  17.595   2.759   3.401  0.1549 -0.2879  0.6008
13942W        W27356  10.693   4.514  14.891 -0.0988  0.2556 -0.0422
13943W        W27357  13.822  11.534  16.002 -0.0119 -0.1441 -0.3441
13944W        W27358  11.490  11.889   9.971  0.1807  0.0486  0.1345
13945W        W27359  15.024  17.615   4.410  0.1325 -0.0157  0.4097
13946W        W27360   4.878   3.033   6.474 -0.0022 -0.0085 -0.1465
13947W        W27361  10.531  16.126   3.603 -0.0301 -0.2836 -0.1433
13948W        W27362  16.281  12.726   6.150  0.1681 -0.0079 -0.5024
13949W        W27363  13.062   2.035   3.903 -0.1615 -0.0588  0.3123
13950W        W27364   1.147   5.785   0.901  0.0723 -0.3180 -0.0677
13951W        W27365  12.744   3.580   3.088 -0.1178 -0.2138 -0.1166
13952W        W27366   4.831   5.142  15.038 -0.2499  0.1897 -0.2846
13953W        W27367   1.211   3.664   5.532  0.0879  0.1932 -0.0802
13954W        W27368  15.729   1.001   6.478  0.1349  0.4267  0.1903
13955W        W27369  10.609   2.311  12.952 -0.0994  0.0816  0.0736
13956W        W27370   7.689  13.369  13.297  0.0730 -0.0599 -0.1023
13957W        W27371  15.322   1.794   2.735 -0.0900 -0.0066  0.0585
13958W        W27372   5.188  14.862  10.918  0.0896  0.0626 -0.0243
13959W        W27373   7.251   8.036  12.335  0.0827 -0.0430  0.1574
13960W        W27374   4.064   3.207  13.588  0.0017 -0.4902  0.1593
13961W        W27375  15.961   0.376   4.870 -0.0604 -0.2532 -0.1896
13962W        W27376  10.633   4.042  14.838  0.0210 -0.0274 -0.4030
13963W        W27377   3.343   9.186  12.269  0.1776  0.0552  0.1867
13964W        W27378  17.188   1.084   3.261 -0.0240  0.2987  0.0006
13965W        W27379  10.624  10.804   2.718  0.2521  0.0104 -0.2079
13966W        W27380   3.623   0.471  13.294  0.4152 -0.1025  0.1904
13967W        W27381   0.521  13.766   3.142 -0.0189 -0.1222  0.2251
13968W        W27382  10.047  13.308   0.175  0.1731  0.2539  0.0070
13969W        W27383   1.537  13.991   4.973  0.2868  0.0699 -0.0928
13970W        W27384  11.122  11.837   0.815 -0.3160  0.1276  0.1490
13971W        W27385  18.364   8.229   1.802  0.0722 -0.4514  0.0438
13972W        W27386  16.265  10.450   4.150  0.4754  0.0058 -0.0989
13973W        W27387   1.696   4.148  16.246  0.0838  0.0759  0.0601
13974W        W27388   1.370   0.746  15.773  0.1414 -0.1048 -0.0916
13975W        W27389  15.737   9.404   2.271  0.1750 -0.2780 -0.0760
13976W        W27390  15.940   0.161   3.171  0.0931 -0.3625 -0.1725
13977W        W27391   8.970   3.568   2.763  0.3758  0.0022  0.1873
13978W        W27392  14.297  10.484   2.651 -0.2518  0.4371 -0.0476
13979W        W27393   8.837   1.844  14.958 -0.1115  0.0715 -0.1096
13980W        W27394   7.725  17.490   0.764 -0.0966  0.3311  0.1326
13981W        W27395   3.808   8.529   9.831  0.0411  0.2632  0.2329
13982W        W27396  15.112  10.768  15.882  0.1199 -0.4984  0.0867
13983W        W27397   9.388  15.543  14.363 -0.2437 -0.0294  0.2514
13984W        W27398   2.422   7.885  13.989  0.1011  0.1613 -0.0418
13985W        W27399  17.669   3.529  12.065 -0.1220  0.0370 -0.1799
13986W        W27400   9.271  15.753  13.400  0.1719 -0.2379 -0.0642
13987W        W27401  10.182  10.649   1.971  0.1627 -0.0779 -0.3599
13988W        W27402  12.264   5.615  11.235  0.3332  0.2277 -0.2087
13989W        W27403  17.243   0.285  14.328  0.1033  0.1528  0.0973
13990W        W27404   2.166  10.513  13.121  0.3771  0.3625 -0.2824
13991W        W27405   7.286  14.845   4.289  0.0325 -0.0835 -0.1379
13992W        W27406  16.747   3.081   1.695  0.0717  0.3355  0.1985
13993W        W27407  15.559   5.015   5.590 -0.3278 -0.3763  0.0911
13994W        W27408   3.813  17.355   5.772 -0.1252 -0.2796  0.2578
13995W        W27409   6.782  11.535  14.519 -0.0556  0.2586 -0.2243
13996W        W27410  11.551   4.961   5.587 -0.1420 -0.0882  0.2235
13997W        W27411   8.848   8.892  11.291 -0.2378 -0.0980  0.1131
13998W        W27412   0.155   5.444  10.728 -0.2988 -0.1637  0.1698
13999W        W27413   0.901  14.868  13.158  0.1556  0.4935 -0.0201
14000W        W27414  15.166   9.771   4.672 -0.1464  0.2100  0.0623
14001W        W27415   8.125  17.366   0.562 -0.2847  0.1427  0.1592
14002W        W27416   6.426   1.021   0.742 -0.1976  0.1654 -0.0473
14003W        W27417   1.526  18.474  12.026 -0.0518  0.0199 -0.0047
14004W        W27418  16.686   3.781  15.840 -0.0156 -0.2536  0.0852
14005W        W27419  15.307   8.673  13.668  0.0556  0.2028 -0.0611
14006W        W27420  12.416   5.268   4.995 -0.2448 -0.2002 -0.0888
14007W        W27421   0.443  15.894   3.155 -0.1116 -0.2859  0.0729
14008W        W27422   0.304  11.255  13.336 -0.2424  0.1701  0.0816
14009W        W27423  17.675  11.650  10.919 -0.0111  0.3335  0.0917
14010W        W27424  11.770   0.801   3.281  0.0053 -0.2645  0.0736
14011W        W27425  10.580  17.756   3.463 -0.1485 -0.0642  0.4770
14012W        W27426  11.656  14.715   5.743  0.2953 -0.2896  0.1237
14013W        W27427  13.986   8.827  14.431 -0.0463  0.0740 -0.3060
14014W        W27428  12.821   1.819  11.045 -0.0259  0.1428  0.2070
14015W        W27429  17.532   4.268  14.566  0.5027  0.1704 -0.1145
14016W        W27430   4.591   4.799   6.157 -0.0090 -0.0211  0.0492
14017W        W27431   3.156  18.434   4.783 -0.2411  0.0709  0.2727
14018W        W27432  10.608   7.851   0.325  0.1980 -0.0271 -0.1820
14019W        W27433  12.069  16.788  15.708 -0.2367 -0.0472 -0.1627
14020W        W27434  15.257  15.921   1.422  0.0646 -0.0236 -0.4926
14021W        W27435   4.690   4.409  13.680  0.2163  0.0700 -0.1695
14022W        W27436  18.258  11.360  12.394  0.1795  0.4330 -0.2786
14023W        W27437  14.404  13.016  12.852  0.3091  0.1954  0.1191
14024W        W27438  18.076   0.184   0.633  0.0701  0.0279  0.1714
14025W        W27439   4.288   7.522  11.962  0.0645 -0.0372 -0.1275
14026W        W27440   4.837  15.385  12.909  0.0590 -0.0388 -0.0353
14027W        W27441  14.596  11.219   5.657  0.3056 -0.2208 -0.1362
14028W        W27442  13.506  13.228   0.654  0.0607 -0.3794  0.0641
14029W        W27443  15.597  14.822   1.375  0.0767 -0.1007 -0.2268
14030W        W27444   2.689   6.277  14.004 -0.4142 -0.0050 -0.1659
14031W        W27445  13.941  15.721   0.999 -0.0007 -0.1079  0.1475
14032W        W27446   2.190   9.815  11.354 -0.0103 -0.3598 -0.0200
14033W        W27447   4.670  13.714   3.000  0.2087 -0.0689  0.0533
14034W        W27448   7.642  12.725   5.541  0.1162 -0.0587 -0.0472
14035W        W27449   3.460   5.447  12.461  0.0078  0.1207  0.4070
14036W        W27450  17.212  13.495   4.646 -0.0166 -0.2507 -0.1966
14037W        W27451   7.772  16.909   2.456  0.1531 -0.0654  0.2368
14038W        W27452   2.447  10.191  11.532  0.0466  0.1726 -0.3328
14039W        W27453   4.913  16.754  11.205 -0.0220  0.1405  0.0227
14040W        W27454   7.146   8.625   4.268  0.0905 -0.0450  0.2259
14041W        W27455   4.578   9.463   1.977  0.0881 -0.1960  0.3088
14042W        W27456  12.233   2.845   3.154 -0.0496  0.1033  0.0215
14043W        W27457  15.030  15.604  11.724 -0.2048  0.3769  0.0548
14044W        W27458  18.345   9.759   2.545  0.0428  0.1021  0.1377
14045W        W27459   3.029   2.833  15.289  0.0648  0.0869  0.4575
14046W        W27460   0.407  12.088  14.695  0.3825 -0.1478 -0.1443
14047W        W27461  12.440   8.211   2.066  0.1157  0.0837 -0.1231
14048W        W27462  11.167  10.144   0.508  0.0679 -0.2818  0.0164
14049W        W27463   5.535   7.940   1.094 -0.6779  0.1426 -0.4464
14050W        W27464   5.608  10.350  10.468 -0.2845 -0.2535 -0.0710
14051W        W27465  15.848   9.481   0.678  0.2065  0.3530  0.0896
14052W        W27466   7.038  11.647   4.987 -0.0139  0.0384 -0.1912
14053W        W27467  17.862   5.722   0.823  0.1571 -0.0285 -0.0109
14054W        W27468   8.850  11.772  11.572 -0.2534 -0.0611 -0.1796
14055W        W27469   9.254   3.037  11.535 -0.2412  0.1356 -0.1509
14056W        W27470   3.054  10.709  10.887  0.2342  0.0929  0.1972
14057W        W27471   5.378  10.578   0.452 -0.1963  0.1253  0.1202
14058W        W27472  12.355   7.314   3.589 -0.1233  0.0732  0.1411
14059W        W27473  13.654   5.387   4.133  0.2617  0.4657  0.2106
14060W        W27474   3.292  12.346  13.703  0.2492  0.1156 -0.0436
14061W        W27475   6.248   8.971   5.176  0.0570 -0.3611 -0.0916
14062W        W27476   3.146  13.056   4.577 -0.3235  0.1652  0.1521
14063W        W27477  17.637  17.428   3.027  0.0816 -0.1371  0.2535
14064W        W27478  18.005   1.858   4.209  0.5039 -0.2472 -0.1487
14065W        W27479   4.244   3.530   1.242 -0.0644  0.0586  0.2430
14066W        W27480  17.099   3.133  13.839  0.3187 -0.1007 -0.1433
14067W        W27481   4.344  11.363   4.747  0.0450 -0.0009  0.0031
14068W        W27482   5.200  10.145  13.330 -0.0931 -0.0727 -0.2607
14069W        W27483  18.328  13.699   6.086 -0.3195 -0.0263  0.2463
14070W        W27484  17.776   9.554  11.348  0.1773 -0.1297  0.3873
14071W        W27485  14.911   9.280  12.969  0.1406 -0.0102  0.4288
14072W        W27486   2.302   8.334   3.072  0.0060 -0.0479 -0.0171
14073W        W27487  10.900   9.364   0.340 -0.0016  0.5021 -0.1630
14074W        W27488  11.228   1.242   5.241 -0.1385  0.2265  0.0744
14075W        W27489   3.343   0.339   2.550  0.2115  0.0361  0.1307
14076W        W27490   5.131  18.387   3.133 -0.5237  0.0142  0.1195
14077W        W27491   8.264   1.016  10.198 -0.1164  0.1323 -0.1565
14078W        W27492   2.898   3.031   4.541 -0.3532  0.1341  0.1963
14079W        W27493  11.604  12.529   5.514  0.3112  0.0262 -0.0930
14080W        W27494  11.530  15.222   2.620  0.0035  0.1767 -0.2078
14081W        W27495   0.093  10.365  13.288 -0.2698 -0.1578 -0.3585
14082W        W27496   9.038   8.255   3.856 -0.2467  0.0649  0.0293
14083W        W27497  18.135   2.912   2.969 -0.1819  0.1266 -0.3565
14084W        W27498   5.573   2.471   1.243  0.1213 -0.1766 -0.2715
14085W        W27499   0.939  17.287   6.455  0.0058  0.0634  0.2798
14086W        W27500  17.338   2.119   3.893  0.1693 -0.0472  0.0674
14087W        W27501   4.443  13.354  15.031  0.3525  0.0687 -0.0904
14088W        W27502   6.341  11.832  12.655  0.2209 -0.1320  0.0008
14089W        W27503  10.091   4.949  13.306  0.0180 -0.2236  0.3730
14090W        W27504   2.186   7.091   3.753 -0.1171  0.0941  0.3481
14091W        W27505  17.634  14.008   2.050  0.3206  0.0970  0.2046
14092W        W27506   1.859  16.383  15.023 -0.0700  0.0388  0.1706
14093W        W27507  10.507  11.121  10.806 -0.2211 -0.2229  0.3610
14094W        W27508  14.834  16.728   5.818 -0.0210  0.1006  0.0750
14095W        W27509  16.064   1.105  10.494  0.2885 -0.0558  0.0068
14096W        W27510  18.290   4.070  10.225 -0.0856  0.1439 -0.1211
14097W        W27511  17.084  16.885  12.309 -0.0326 -0.4061 -0.1452
14098W        W27512   4.395  11.385  14.912 -0.2356  0.0063 -0.0948
14099W        W27513   3.554   0.393   3.210  0.1914 -0.4189  0.4456
14100W        W27514  17.477   2.691   4.386 -0.1255  0.0662 -0.2441
14101W        W27515   1.732  16.385  11.028 -0.0493  0.1838 -0.1573
14102W        W27516  12.361  11.596  14.845 -0.0613  0.1563 -0.0654
14103W        W27517   4.664  16.978   3.534 -0.0542 -0.1788 -0.1161
14104W        W27518   5.543  13.921  11.178  0.2365 -0.1064  0.0228
14105W        W27519  10.481  18.159  15.496 -0.2403  0.1861  0.1718
14106W        W27520  10.539  11.474   2.399 -0.1183 -0.2190 -0.1729
14107W        W27521   5.671   1.378  15.306  0.1749 -0.0703 -0.0096
14108W        W27522  15.320   7.212  13.292 -0.1630  0.2779  0.0063
14109W        W27523  16.568  14.784   0.959 -0.0523  0.2421  0.1731
14110W        W27524   7.967   6.220   5.190 -0.0063 -0.1181  0.0030
14111W        W27525  14.247   6.928  11.045 -0.3960 -0.2260 -0.4114
14112W        W27526  16.700   7.044   5.064  0.0477 -0.0124  0.0041
14113W        W27527   0.158   0.753   0.208  0.2015 -0.0211  0.0885
14114W        W27528   1.713   4.029   1.383  0.1274 -0.1417 -0.0341
14115W        W27529   5.242   1.432   4.788  0.0354  0.0569  0.1570
14116W        W27530   9.946  15.444   2.837 -0.4147 -0.1455  0.2749
14117W        W27531   8.345   6.775   1.024  0.1600 -0.0923 -0.0520
14118W        W27532  10.073   6.068   0.690  0.0128 -0.1245 -0.0185
14119W        W27533   3.018  15.714   1.867 -0.1827  0.1714 -0.0819
14120W        W27534  16.644   3.401   0.452 -0.1138 -0.0963 -0.0788
14121W        W27535   4.545   4.727  15.578 -0.0781 -0.2375  0.2654
14122W        W27536  13.533  10.969   5.119  0.3082 -0.1546 -0.2500
14123W        W27537  12.940  17.415  11.880 -0.1492 -0.1462  0.2020
14124W        W27538  14.260  17.022  15.779  0.1478  0.1308 -0.0589
14125W        W27539   4.000  18.130   3.081 -0.2580 -0.1590 -0.1218
14126W        W27540   8.152   3.702  14.034 -0.2363  0.3252 -0.3908
14127W        W27541  10.800  13.894  14.818 -0.0221  0.1128  0.4204
14128W        W27542  12.971  12.703  14.317 -0.3126 -0.0089  0.1560
14129W        W27543   1.923  16.133   1.763 -0.0754  0.2819 -0.1318
14130W        W27544   2.067  11.530   4.030  0.0103  0.1601  0.2928
14131W        W27545   5.306  17.915  13.380  0.1681 -0.0773 -0.1314
14132W        W27546  13.492  17.380  10.223 -0.1959  0.1046 -0.0506
14133W        W27547   7.928  10.014   1.845 -0.0838 -0.0680 -0.0768
14134W        W27548   0.100   7.154   0.213 -0.0126  0.0888 -0.3117
14135W        W27549  12.889  17.867   3.483 -0.1292 -0.0289  0.0771
14136W        W27550   6.653  12.923   0.351 -0.0458  0.0197  0.2197
14137W        W27551   0.029   4.374  11.252 -0.1621 -0.0812  0.2016
14138W        W27552   3.623   1.539   4.960 -0.0793 -0.1658  0.2143
14139W        W27553  11.897  14.560  14.036  0.0693  0.2908  0.1793
14140W        W27554   8.061  14.568  13.114 -0.1644 -0.1468 -0.2324
14141W        W27555   3.802   9.250  11.652 -0.0149 -0.2079 -0.0132
14142W        W27556   3.067   3.271   3.704  0.3000  0.0192  0.1397
14143W        W27557  14.632  11.247   1.598  0.0699  0.0817  0.0355
14144W        W27558  16.403   5.630  13.939  0.0834  0.0442  0.0079
14145W        W27559   9.235  12.784   1.134  0.2042 -0.0588  0.1885
14146W        W27560  16.941  16.360   5.109 -0.0237 -0.0906  0.0402
14147W        W27561   8.634   7.306  12.585  0.0155  0.1661  0.0827
14148W        W27562  10.758   7.538  11.044  0.1417 -0.0830  0.0940
14149W        W27563   2.162  12.226   0.353 -0.2901 -0.4641  0.2599
14150W        W27564   4.217   3.967  14.906 -0.0394 -0.1671  0.4132
14151W        W27565   4.128  15.134  15.137 -0.1935 -0.1907 -0.2844
14152W        W27566   4.490  14.381   4.515 -0.1028 -0.1237  0.2347
14153W        W27567   4.163   1.750   6.708 -0.0567 -0.3146  0.0287
14154W        W27568   1.902   4.789  14.412 -0.0645 -0.0708  0.1743
14155W        W27569  11.537  15.467   1.461  0.1160  0.3841  0.0632
14156W        W27570   5.886  17.090  14.583  0.0512  0.0680  0.3449
14157W        W27571  16.700   6.870   4.405  0.0261  0.0777  0.0508
14158W        W27572  15.427   8.459   1.821 -0.1436 -0.3684 -0.1695
14159W        W27573  11.644  18.461  11.520  0.0437 -0.1552 -0.0221
14160W        W27574   9.898   6.031   5.134 -0.0077 -0.3061 -0.1402
14161W        W27575   9.093   0.091  12.893  0.0801 -0.2639  0.2438
14162W        W27576   4.388   4.986  14.135 -0.0144 -0.0240 -0.1905
14163W        W27577  15.454  11.279   0.453 -0.3257 -0.1885 -0.0120
14164W        W27578   7.779   4.766   0.616 -0.2320  0.1642 -0.1469
14165W        W27579   7.981  10.697   1.103 -0.1165 -0.0609  0.0214
14166W        W27580   4.235  18.037   3.779  0.0626 -0.1365  0.1639
14167W        W27581   4.469   6.933  11.294 -0.1928  0.2042  0.2882
14168W        W27582  12.500  14.585   1.840  0.0797  0.0126  0.2822
14169W        W27583   7.083   8.437   3.809  0.1048  0.0731 -0.1694
14170W        W27584  17.011   4.899   4.087  0.2883  0.1321 -0.0398
14171W        W27585   7.189   9.632  10.043  0.2245 -0.2092  0.2086
14172W        W27586   2.962   6.615  16.074 -0.4931  0.2011  0.1436
14173W        W27587   1.573  16.320   3.529 -0.3400 -0.1123 -0.0408
14174W        W27588  14.770   9.696  14.256 -0.0049  0.2539 -0.0631
14175W        W27589   9.574   5.676  13.103  0.2389  0.3362 -0.0627
14176W        W27590   4.899   5.493   3.200  0.1187 -0.1042 -0.3267
14177W        W27591  13.149   2.846  12.873 -0.1100  0.3554  0.3505
14178W        W27592  14.318   3.429  13.591  0.1698 -0.0281 -0.1850
14179W        W27593   7.069  16.986   2.954 -0.0836  0.0414  0.0540
14180W        W27594   8.264  11.389  15.099 -0.2225 -0.0823  0.2409
14181W        W27595   1.517  12.804  10.338 -0.0185 -0.0607 -0.1111
14182W        W27596  17.209  16.322   2.250  0.0797  0.0302  0.0799
14183W        W27597  15.397   3.620   2.709 -0.1002 -0.1139  0.0756
14184W        W27598   4.544   4.320  14.873  0.0091  0.2204  0.1913
14185W        W27599   3.604   4.151   3.221 -0.1252 -0.0854  0.0560
14186W        W27600  16.240   1.182  13.834  0.0881  0.1498  0.3207
14187W        W27601  10.432   8.890   1.589  0.0191  0.1422  0.2185
14188W        W27602  10.536   1.721   0.338  0.0233 -0.0339 -0.2901
14189W        W27603   8.072   3.333  11.388 -0.0171 -0.0481 -0.4781
14190W        W27604  13.122  10.597  13.325 -0.1317 -0.1479  0.2910
14191W        W27605   4.354  16.606   5.654 -0.2050 -0.1545  0.1972
14192W        W27606  16.978  18.207   3.111  0.1716  0.0619 -0.1495
14193W        W27607   9.722  17.356   4.928 -0.1572 -0.0568  0.2636
14194W        W27608  12.291   4.669  11.035 -0.0930  0.0587  0.2730
14195W        W27609   4.587   3.360   3.548 -0.1419  0.3131  0.1195
14196W        W27610   1.213  16.222   4.573 -0.1450 -0.2836  0.1422
14197W        W27611  10.520  11.647   1.832 -0.3500  0.1021 -0.0514
14198W        W27612   4.139   5.578  15.657 -0.1540  0.1520 -0.1776
14199W        W27613   6.053   5.664  12.690  0.3254 -0.0143 -0.3195
14200W        W27614   3.861  17.441   4.658 -0.0369 -0.0230  0.1802
14201W        W27615  11.693  12.461   1.002  0.0302 -0.0179  0.3404
14202W        W27616  15.937  13.926   1.507  0.0680  0.1695  0.1401
14203W        W27617  16.977   5.155   9.867 -0.0149 -0.1248 -0.0038
14204W        W27618   5.256  11.721   1.026  0.3398  0.1394 -0.2873
14205W        W27619   3.019  11.746  10.006 -0.0158 -0.0542  0.0841
14206W        W27620   9.009   9.418  10.462  0.1229 -0.1227 -0.2387
14207W        W27621  11.388   3.850  14.429 -0.0028 -0.1756 -0.1409
14208W        W27622   4.451   0.197   2.519 -0.2494 -0.0842  0.2230
14209W        W27623   5.054  16.591   4.139  0.0759  0.1513  0.1916
14210W        W27624  17.214   4.337   9.795 -0.0536  0.1078 -0.1550
14211W        W27625  11.545  10.171   0.943 -0.1537  0.0963  0.2508
14212W        W27626  14.058  14.356  10.233 -0.0394 -0.1849  0.1049
14213W        W27627   6.420   9.872  12.409  0.3302 -0.0114 -0.1204
14214W        W27628  13.553  14.417  14.184 -0.3506  0.0546  0.4215
14215W        W27629   0.633  10.113   0.501 -0.1923  0.3502 -0.1672
14216W        W27630  17.713   2.176   3.029 -0.1770  0.3726 -0.1193
14217W        W27631   5.340   4.093   0.825 -0.0651  0.0292 -0.0771
14218W        W27632   8.932   4.948   1.502 -0.5930 -0.1464 -0.0697
14219W        W27633   0.981  16.074   1.735  0.1794  0.0363  0.0144
14220W        W27634  16.513  10.640  14.185  0.2424  0.2078  0.1460
14221W        W27635   1.859   5.825  15.763  0.0861 -0.0769  0.0451
14222W        W27636  11.501   5.031  14.712 -0.2353 -0.0486  0.0565
14223W        W27637   7.890   8.963  15.703  0.1013  0.3216 -0.0819
14224W        W27638   7.661  11.069  10.668  0.2512  0.1732 -0.2071
14225W        W27639  17.988  12.789  13.872 -0.2454  0.0154  0.0316
14226W        W27640   0.608  16.422  11.297  0.0215 -0.0579 -0.1576
14227W        W27641   5.423   6.544   2.795  0.0991  0.0433 -0.0292
14228W        W27642   8.461  16.595  12.600 -0.1879  0.0169 -0.0831
14229W        W27643  10.879   8.632   1.173  0.1625  0.1435 -0.0742
14230W        W27644   0.228  10.568  14.411 -0.0596 -0.3291  0.3939
14231W        W27645   2.870   5.198  15.080 -0.1685  0.2882  0.0871
14232W        W27646   8.361   3.172  15.683 -0.2591 -0.1479 -0.1225
14233W        W27647   8.821  17.951   0.208  0.2243 -0.0924  0.0970
14234W        W27648   5.401   2.842   2.256  0.0217 -0.1749  0.0018
14235W        W27649   1.532   7.601   4.073  0.0295 -0.1827  0.1601
14236W        W27650  14.864  16.370   3.055 -0.2374  0.0770  0.0140
14237W        W27651   9.050   0.899  13.927  0.1153  0.0602  0.2766
14238W        W27652  12.422  17.024  15.494 -0.1877 -0.0233 -0.0224
14239W        W27653   2.989  13.890  11.731  0.1728  0.2513 -0.1693
14240W        W27654  17.678   2.732   5.106 -0.1608  0.3559  0.0389
14241W        W27655  12.475  10.703  14.280  0.0140  0.0273 -0.1801
14242W        W27656  12.760   6.161   2.566  0.0622  0.2617 -0.0482
14243W        W27657   2.407  11.957   0.674 -0.0815  0.1301 -0.1824
14244W        W27658  10.494   0.593  11.153  0.1522 -0.1562 -0.0594
14245W        W27659   1.969  12.054   2.475  0.1890 -0.1357 -0.0582
14246W        W27660   6.050   4.994  14.087  0.3577 -0.0717  0.0450
14247W        W27661  15.554  15.194  14.897 -0.0122  0.0221 -0.0961
14248W        W27662  11.093  18.107   1.324  0.1590  0.2104  0.0977
14249W        W27663   3.794   2.438  12.721  0.0580 -0.0014 -0.0791
14250W        W27664   1.812   2.217   1.213 -0.1617 -0.0393  0.0177
14251W        W27665  17.852  16.955   3.119 -0.0076 -0.5968  0.2468
14252W        W27666   7.716   2.700  15.389 -0.0353  0.3483  0.0062
14253W        W27667   6.377   3.235   3.685 -0.0347 -0.1478  0.0524
14254W        W27668  10.386   2.592   0.792 -0.0043 -0.0931 -0.1075
14255W        W27669  15.289   5.455  14.977  0.0916  0.1935  0.2557
14256W        W27670   1.871   6.385  11.676  0.0860 -0.3020 -0.0451
14257W        W27671   2.843   0.188  12.496  0.1253 -0.1105 -0.2188
14258W        W27672   9.235  11.579   5.439  0.1562  0.2477  0.0353
14259W        W27673   5.275   2.307   3.063  0.0001  0.1004 -0.0932
14260W        W27674  11.933   2.648  16.120 -0.1217 -0.0722 -0.2895
14261W        W27675  16.292  14.088   3.636 -0.0636  0.0685  0.0951
14262W        W27676  14.613   6.303   2.989 -0.1284  0.0791 -0.1576
14263W        W27677   2.350   8.409   1.397 -0.1520  0.0098  0.2647
14264W        W27678  10.827  10.334  12.241  0.1459  0.3449  0.0105
14265W        W27679  12.950  17.159   1.717 -0.0887  0.2834 -0.4417
14266W        W27680   3.075  18.410  12.123  0.0896  0.6446  0.1161
14267W        W27681  12.092   1.351  14.616 -0.3414  0.1748 -0.2320
14268W        W27682  16.827   2.898  12.099  0.0369  0.0393 -0.0998
14269W        W27683  14.425  11.681   3.855  0.0859 -0.0037  0.2421
14270W        W27684   7.148   3.921  15.393 -0.2836 -0.2498  0.1231
14271W        W27685  12.996  15.880   5.193  0.2737 -0.2175 -0.1179
14272W        W27686  15.951   4.645  10.166 -0.2672  0.2071 -0.0762
14273W        W27687  10.729   3.764   4.136 -0.1167 -0.0230 -0.1152
14274W        W27688   5.397  12.303   2.642  0.1754 -0.0832  0.0780
14275W        W27689  12.393   9.043  12.197  0.1191  0.2103 -0.2774
14276W        W27690  12.669   0.848  10.609  0.3275 -0.1866  0.1499
14277W        W27691   9.781   2.550  15.701  0.2036 -0.2016 -0.1191
14278W        W27692   3.887   1.690   2.728 -0.1620  0.1939 -0.0684
14279W        W27693  10.150   4.544  15.751  0.0924 -0.0994 -0.0835
14280W        W27694  10.940  11.371  11.019  0.1345  0.2697  0.0623
14281W        W27695  16.083  16.004  14.329  0.0012  0.2205  0.0154
14282W        W27696   7.194   1.375   4.266  0.1122 -0.2203 -0.1384
14283W        W27697  18.243  13.833   1.224  0.2468 -0.0331  0.3123
14284W        W27698   9.151   3.005  16.180  0.0031 -0.0475  0.1821
14285W        W27699   8.501  14.188   3.180 -0.0622 -0.1345 -0.3168
14286W        W27700  13.870   0.574   0.312  0.0740  0.0013  0.1485
14287W        W27701   0.465  13.754   3.696  0.1844  0.0885 -0.0349
14288W        W27702  13.019   9.001  11.917 -0.4201 -0.1365 -0.1011
14289W        W27703   4.609  12.654  15.556  0.2845 -0.0007  0.0758
14290W        W27704   7.619   7.673   1.649 -0.1208  0.1771 -0.1365
14291W        W27705   2.179   4.470   5.379 -0.1991 -0.1019 -0.0198
14292W        W27706   4.901  10.597   0.403  0.0414  0.3233  0.1055
14293W        W27707   7.733  13.413   2.586  0.0516 -0.2695  0.1853
14294W        W27708   1.276   7.292   3.681  0.0781 -0.3185 -0.0527
14295W        W27709  14.989   8.301   0.642 -0.0253 -0.4418  0.3045
14296W        W27710  14.109   9.835  13.600  0.3900 -0.2952 -0.1450
14297W        W27711  16.209   8.109  12.744  0.1804 -0.2413  0.2575
14298W        W27712   8.652   3.882  12.083  0.0013  0.2390  0.4301
14299W        W27713  18.079  12.216  14.692 -0.1514  0.2489  0.0183
14300W        W27714  16.907   0.313  15.768 -0.3280 -0.0673  0.1977
14301W        W27715   8.515  17.266  15.780  0.1391 -0.3428  0.0703
14302W        W27716   7.708   7.181   1.822  0.5131  0.0153 -0.0890
14303W        W27717   7.028  17.072  13.784 -0.1785 -0.0235 -0.3874
14304W        W27718   2.178  14.936   2.998 -0.2212  0.1738 -0.2731
14305W        W27719   9.795   0.323  14.082 -0.0279 -0.3094  0.2672
14306W        W27720   9.443  11.090   1.621  0.2731 -0.0966  0.0948
14307W        W27721  17.562   9.917  11.826 -0.0149 -0.0014  0.1989
14308W        W27722   9.872   9.480   1.212  0.2243  0.0825 -0.1976
14309W        W27723   6.776   2.516  16.169  0.0286  0.2161 -0.3643
14310W        W27724   2.158   8.703   3.339  0.1863  0.0282 -0.3044
14311W        W27725   6.221   4.261  10.728  0.0186  0.1783 -0.1767
14312W        W27726  17.593  12.450   2.370 -0.5403 -0.1496 -0.2236
14313W        W27727   3.034   3.060  12.030  0.2558 -0.0679  0.1134
14314W        W27728  10.153   5.375   2.721 -0.0912  0.0492 -0.0245
14315W        W27729  16.272   8.316  15.694  0.1519  0.2671  0.1163
14316W        W27730   1.587  11.704  13.563 -0.2590 -0.1077  0.1161
14317W        W27731   8.098   4.595  13.831 -0.2297 -0.0450  0.1348
14318W        W27732   2.319   3.870   1.567  0.3954  0.1237 -0.0994
14319W        W27733  12.182   2.924   0.210  0.1456  0.2588  0.1538
14320W        W27734   4.261  12.481   3.222  0.3097 -0.0767  0.0720
14321W        W27735   1.298   1.826   5.404  0.1024 -0.0301  0.1813
14322W        W27736  15.734   1.596  15.242  0.0267 -0.3635  0.0278
14323W        W27737  16.137   1.807   2.713 -0.4330 -0.0033  0.1895
14324W        W27738   4.122  17.695   0.437  0.1893 -0.5181  0.1351
14325W        W27739   8.421   6.923  12.293 -0.0150  0.0104  0.0647
14326W        W27740  18.399   6.280   0.323 -0.0756  0.2446 -0.0492
14327W        W27741   6.416   8.827  13.192  0.0337  0.5471 -0.1007
14328W        W27742  12.286   6.798  14.907  0.0844 -0.4705 -0.2266
14329W        W27743   4.338   3.078  13.178  0.0271 -0.3071  0.1200
14330W        W27744   1.773   9.801  11.913 -0.1223  0.1402 -0.0161
14331W        W27745  15.819  13.367   1.318  0.4270 -0.2358 -0.3984
14332W        W27746  10.006  13.939   0.785  0.1391 -0.2858  0.4245
14333W        W27747   1.795  16.540  10.546 -0.2782  0.0809  0.2402
14334W        W27748  12.277  11.795   4.001  0.1273  0.2989  0.0630
14335W        W27749   6.167   5.456  13.942  0.0377  0.0718 -0.0517
14336W        W27750   9.064   7.938  12.263  0.0209  0.0618 -0.1941
14337W        W27751   8.059  12.614  12.804  0.0199 -0.1129 -0.3489
14338W        W27752   8.141   8.375  11.216  0.2375  0.0845 -0.0597
14339W        W27753   6.429   6.732  12.884  0.0670  0.1646 -0.1542
14340W        W27754   0.849   3.243  14.838 -0.1099 -0.1612 -0.0211
14341W        W27755   5.242  12.560  12.027  0.0901  0.1383 -0.2970
14342W        W27756  11.284  15.177  11.434  0.0754  0.0880 -0.0124
14343W        W27757   7.210  12.357  14.746  0.0209 -0.3262  0.1935
14344W        W27758  10.709   6.168  13.959  0.3668 -0.0529  0.2290
14345W        W27759   4.270  16.576   6.154  0.2627  0.1838 -0.1664
14346W        W27760   5.910   8.227   1.417 -0.0837  0.2294 -0.0496
14347W        W27761   6.324   0.350   4.145 -0.2073  0.0920  0.1346
14348W        W27762   9.566  12.601  13.074 -0.0525 -0.1469  0.1089
14349W        W27763  14.771   7.463   1.030  0.0265 -0.0341 -0.4140
14350W        W27764  13.771   5.356  15.784  0.1166 -0.0284 -0.0319
14351W        W27765   8.356   2.367   3.347 -0.1313  0.1725 -0.0185
14352W        W27766  13.726   1.761   2.922  0.0017 -0.1959 -0.1250
14353W        W27767  15.720   7.506   5.042 -0.4447 -0.1693  0.1241
14354W        W27768   7.785  10.403   5.931  0.0306 -0.0644 -0.1224
14355W        W27769  11.837   0.019   2.202 -0.0237 -0.0963 -0.1466
14356W        W27770   2.297  11.235  16.017  0.0270  0.2327  0.2365
14357W        W27771   0.066  13.870  11.448  0.0341  0.1859 -0.0641
14358W        W27772   4.115   3.535   0.728 -0.1734 -0.0472  0.3786
14359W        W27773   4.991  12.455  13.210  0.2566  0.0338  0.2605
14360W        W27774  14.547  10.527  11.770 -0.1981  0.1745 -0.0653
14361W        W27775  18.414   0.663   0.647 -0.1121 -0.1203 -0.1301
14362W        W27776   9.976  16.849  12.946 -0.1606 -0.4503  0.2319
14363W        W27777  15.474   6.442  15.198 -0.0387  0.1061  0.0631
14364W        W27778   1.176   4.706   6.605  0.1192 -0.3328 -0.1845
14365W        W27779  14.380  13.706  15.263 -0.1524  0.4033  0.4490
14366W        W27780   4.298   1.924  11.280 -0.2319 -0.0670 -0.2297
14367W        W27781   0.940   0.864   4.963  0.0757  0.0310  0.2341
14368W        W27782   1.068  17.591  15.059 -0.0158 -0.0856 -0.0751
14369W        W27783   0.981  10.460   0.528  0.2368 -0.0834  0.1802
14370W        W27784   5.492   0.765  13.729 -0.0290  0.0811 -0.2136
14371W        W27785  10.591   8.684   2.516 -0.4053 -0.1788  0.1750
14372W        W27786   2.701  13.466  10.910 -0.2248 -0.0999 -0.0500
14373W        W27787   5.511  16.019   2.350 -0.0342 -0.0014 -0.0088
14374W        W27788   9.713   8.415   2.022  0.2819  0.1029 -0.2353
14375W        W27789  10.904  12.302  11.789 -0.1091  0.2497  0.0480
14376W        W27790  14.783   2.549  12.749  0.3773  0.1670  0.1894
14377W        W27791   6.993   7.961  15.303  0.1121  0.3591  0.4632
14378W        W27792  12.389  13.266   4.471  0.1211  0.2890 -0.1683
14379W        W27793  14.693   7.915   2.419 -0.0019  0.0126  0.0240
14380W        W27794  11.810  10.613   1.100  0.3200  0.0279  0.0871
14381W        W27795  10.627  11.177  13.393 -0.2406  0.1537 -0.0953
14382W        W27796   6.764  14.280   2.829 -0.0289  0.4489  0.1968
14383W        W27797   5.968  14.515  14.280 -0.1030 -0.0490  0.1521
14384W        W27798   3.919  11.710   4.525 -0.1985  0.1463  0.0147
14385W        W27799   7.365  13.596   2.357  0.2188  0.2652  0.4387
14386W        W27800  11.169   2.177   3.768  0.1907 -0.3054  0.1077
14387W        W27801   2.149   7.621   5.771  0.0369  0.0187 -0.1102
14388W        W27802   7.013   9.819   1.496  0.1289  0.1166 -0.1784
14389W        W27803   7.415   8.953  15.429  0.0549 -0.0402 -0.0287
14390W        W27804  10.194   4.957  14.084  0.1062 -0.0189 -0.2273
14391W        W27805  17.997  16.785   2.651  0.1801  0.0269  0.0994
14392W        W27806  15.748  14.796  14.570  0.2728 -0.1398  0.0472
14393W        W27807   2.887  14.920  16.136  0.1240 -0.1346  0.0512
14394W        W27808   1.242  13.758   6.048 -0.1184 -0.5567 -0.1117
14395W        W27809   2.282   1.491   1.788  0.1078 -0.0921  0.0117
14396W        W27810  15.055   7.333  12.277  0.0346 -0.4916 -0.3452
14397W        W27811  12.402   6.440   6.131  0.1633  0.0758 -0.3358
14398W        W27812  14.525   8.399   3.283 -0.0447  0.2950 -0.2230
14399W        W27813  15.057   8.200   2.206  0.0220  0.1900 -0.2388
14400W        W27814   1.701   4.479   1.216  0.3479 -0.3116  0.3499
14401W        W27815   9.944  16.317  14.052  0.1233 -0.0909 -0.5896
14402W        W27816  10.128  11.453   2.108  0.0246 -0.0592  0.0310
14403W        W27817  16.419   0.760  14.103 -0.1661 -0.0007 -0.1157
14404W        W27818   9.822   0.216  12.836  0.1366  0.0982 -0.2264
14405W        W27819  15.344   1.022   2.033  0.1204  0.0794 -0.1760
14406W        W27820  16.690   3.011  10.199 -0.0829 -0.0987 -0.0324
14407W        W27821   2.288   0.630  11.943  0.0010  0.1877 -0.2946
14408W        W27822   1.270  14.395   3.189  0.1078  0.1137 -0.1657
14409W        W27823   0.805   9.071  15.307 -0.1466  0.1347  0.2488
14410W        W27824   8.396  14.326   1.027  0.0364 -0.1293 -0.0737
14411W        W27825  17.597   1.128   1.665 -0.4330  0.0502  0.0764
14412W        W27826   3.984  11.030   2.879 -0.1416  0.1351 -0.2551
14413W        W27827   9.453   5.797   5.844  0.0500 -0.2035  0.1163
14414W        W27828   0.750  12.773   5.171 -0.1019 -0.3509 -0.2360
14415W        W27829  11.730   6.441   5.253  0.0529  0.1493  0.1828
14416W        W27830  11.737  11.847   0.397  0.0822 -0.1458  0.1044
14417W        W27831   4.700  17.417  12.403  0.3331  0.0113 -0.0191
14418W        W27832   8.699  10.492   3.985  0.2033  0.2869 -0.0762
14419W        W27833   7.075  10.890   0.370 -0.2154  0.1312  0.0792
14420W        W27834  18.379   4.782   4.141  0.0442  0.3311  0.2188
14421W        W27835  11.852   2.197   2.430  0.0430 -0.2112  0.0833
14422W        W27836   1.040  12.600  15.021  0.3445  0.0833 -0.0832
14423W        W27837   2.021  11.958  14.695  0.0331 -0.1492 -0.1128
14424W        W27838   4.485  16.988  13.943  0.2227  0.0901  0.0347
14425W        W27839   0.197  17.272   4.423  0.1422 -0.2006 -0.3181
14426W        W27840   9.477  13.532  10.445  0.0429 -0.0421  0.4808
14427W        W27841  12.889   9.198  10.104  0.1639  0.1663 -0.1193
14428W        W27842   0.198   1.127  16.159  0.0414 -0.1916 -0.0313
14429W        W27843   8.249  11.043  16.257 -0.1466 -0.1183 -0.0893
14430W        W27844   5.015   0.673  13.005 -0.1923  0.2028  0.1038
14431W        W27845   3.604   2.928  14.322  0.3093  0.0324 -0.1893
14432W        W27846   8.748  11.739  10.717 -0.0458 -0.0462 -0.0105
14433W        W27847   7.406   8.959  13.595 -0.2462 -0.1313  0.0950
14434W        W27848   9.733  13.169  10.130  0.1562 -0.1013 -0.2382
14435W        W27849   5.384   5.640  16.248 -0.1292  0.0562 -0.1828
14436W        W27850  13.087  13.298  15.729  0.1615  0.1776 -0.3001
14437W        W27851  16.249  10.577  15.338  0.0850 -0.1591  0.2183
14438W        W27852   0.464   3.900  10.744  0.0633  0.2193  0.3885
14439W        W27853   4.165   2.225  15.385  0.4102  0.2206 -0.0388
14440W        W27854  16.293   0.537   6.011 -0.3786  0.3339 -0.0405
14441W        W27855   5.879  14.800  12.229  0.0920  0.1459  0.3342
14442W        W27856  11.711  11.779   2.248 -0.1445 -0.1677 -0.0611
14443W        W27857  13.377  16.202  13.358 -0.0568 -0.2680 -0.2982
14444W        W27858  16.153  17.126   3.678 -0.0866  0.2949 -0.0202
14445W        W27859  12.241  14.843  14.241 -0.0477  0.0406  0.4188
14446W        W27860  15.773   1.552  12.245 -0.1838  0.0538  0.1167
14447W        W27861   8.765  17.412  13.690  0.0347  0.3256  0.1110
14448W        W27862   1.078  14.604  14.594 -0.1787  0.3201 -0.1643
14449W        W27863  15.200  11.994   2.537  0.0317 -0.3210  0.4024
14450W        W27864   3.919  16.872  11.248 -0.0041 -0.0035 -0.2299
14451W        W27865  15.780  18.162  15.914  0.6063  0.3709 -0.2775
14452W        W27866  13.604   4.305   0.382  0.1262 -0.3194  0.1353
14453W        W27867  14.620   4.401   2.419  0.0085  0.2264 -0.1434
14454W        W27868   1.832  10.210   6.310 -0.1704  0.0388 -0.0117
14455W        W27869   6.343  13.170  14.167 -0.0359 -0.1206 -0.0046
14456W        W27870   0.068   6.318   2.210  0.2418 -0.0213  0.1275
14457W        W27871   0.543   7.793  10.882 -0.1893 -0.0520 -0.1016
14458W        W27872   1.654   8.812   0.359 -0.2939 -0.0393  0.3552
14459W        W27873   7.255   1.504   3.780  0.0300 -0.2378  0.0025
14460W        W27874  10.017   8.106  15.303 -0.0462  0.1232 -0.1271
14461W        W27875  10.330  13.826  16.174  0.1365  0.2251 -0.2856
14462W        W27876   8.812  17.443   2.914  0.0499  0.2307  0.1147
14463W        W27877   1.481   2.017   1.687  0.0905  0.0710 -0.0353
14464W        W27878  18.446  10.363  11.585  0.0904 -0.2591 -0.0002
14465W        W27879   5.939   1.732  12.864 -0.0670 -0.1274 -0.0496
14466W        W27880  17.820   9.024  14.814 -0.2064  0.3609  0.2419
14467W        W27881  17.848   8.451  10.924  0.0038  0.1010  0.0549
14468W        W27882   6.840   2.491   4.372  0.2397 -0.0338  0.1181
14469W        W27883   4.479   6.851  14.455  0.1291  0.1237  0.0577
14470W        W27884   7.067  15.460  10.690 -0.1807  0.0123 -0.1194
14471W        W27885   5.101   1.198   3.787  0.1390  0.0762  0.0493
14472W        W27886   9.560   9.520  11.611 -0.0303 -0.2519 -0.5135
14473W        W27887   5.204   8.965   5.454  0.1548  0.0526 -0.1555
14474W        W27888   2.621   1.297  15.600  0.0738  0.0585 -0.0900
14475W        W27889  14.829  13.611   1.008 -0.1405 -0.0095  0.1824
14476W        W27890  10.284  11.517  14.587  0.0538  0.2267  0.0519
14477W        W27891   9.233   8.066  15.491  0.4331  0.1465  0.2907
14478W        W27892   8.579   8.046   3.560 -0.0830  0.1736 -0.7229
14479W        W27893  14.434   3.905   6.727  0.1216  0.2280  0.1667
14480W        W27894   8.657  17.817   3.676  0.2532  0.1346  0.0544
14481W        W27895   3.878  15.193  14.548 -0.2761  0.1554 -0.5670
14482W        W27896   9.503   3.345   0.006 -0.0713 -0.5071  0.0328
14483W        W27897  17.934  16.822   5.940 -0.0044  0.0936 -0.2062
14484W        W27898  14.765  15.620  14.861 -0.0769 -0.3087 -0.0168
14485W        W27899  17.042   0.048  16.178  0.0449 -0.1334 -0.0316
14486W        W27900  11.141   4.665  12.893 -0.1464 -0.0260 -0.0287
14487W        W27901   1.595   5.682   4.470 -0.1599 -0.0717 -0.0156
14488W        W27902   5.167  16.681   1.196  0.1021  0.0872  0.1545
14489W        W27903   7.165   1.208  14.860 -0.1351  0.2652 -0.2291
14490W        W27904  13.370  11.323  10.746 -0.1900  0.0318 -0.3616
14491W        W27905  10.144  15.887  12.822  0.0378  0.2396  0.0907
14492W        W27906   1.709  12.895  12.203 -0.2025 -0.1729 -0.0617
14493W        W27907   4.117   6.114  14.436  0.1991 -0.2357 -0.1064
14494W        W27908  14.928   4.103  11.253  0.0783 -0.2154 -0.0768
14495W        W27909  14.733   6.764  14.880 -0.2285 -0.3542  0.2837
14496W        W27910  14.500  12.084   2.742  0.1571  0.0490  0.2207
14497W        W27911   1.974   9.585  15.294 -0.1914  0.0587  0.0540
14498W        W27912   3.652  17.877  15.113 -0.2912  0.1926  0.1590
14499W        W27913   2.832  14.021  12.505 -0.2051 -0.1636 -0.0507
14500W        W27914   3.510   4.167  13.478 -0.2445 -0.1515 -0.0022
14501W        W27915  13.168  12.525  15.282 -0.0886  0.2292  0.2732
14502W        W27916   1.626  11.944   3.336 -0.0097  0.2326  0.0817
14503W        W27917  10.880  13.400  15.172  0.1379  0.1302 -0.2264
14504W        W27918  15.697   6.858   5.081 -0.3153 -0.0523  0.0213
14505W        W27919   5.156  10.280   4.870 -0.1260  0.1180  0.0020
14506W        W27920   2.992  12.714  12.100 -0.0141 -0.1478  0.2744
14507W        W27921   3.312  12.142  11.332  0.5182  0.0780 -0.1488
14508W        W27922   6.871  14.077  14.063 -0.4380 -0.1353  0.2156
14509W        W27923  17.725  12.089   5.609  0.0844 -0.1815 -0.2271
14510W        W27924  15.695  13.545  15.744 -0.0923 -0.0893  0.3081
14511W        W27925   9.893  12.162  13.472  0.2117  0.1536 -0.2591
14512W        W27926  13.421  13.838  12.405  0.4832  0.2783 -0.0029
14513W        W27927   6.950  18.098  10.987  0.2487  0.2709  0.2718
14514W        W27928   4.908  17.729  13.813 -0.2381  0.3825  0.0568
14515W        W27929   8.511   4.206  11.003 -0.1774 -0.1572 -0.1502
14516W        W27930   3.372  17.998  12.296 -0.4007 -0.1673  0.1777
14517W        W27931   0.899  17.908  14.689  0.2444  0.1098  0.0763
14518W        W27932  17.143  12.530   6.523  0.0288  0.1235  0.1256
14519W        W27933  13.446   9.194   3.644 -0.1572 -0.1230 -0.0091
14520W        W27934   1.182   2.499   2.862 -0.0488  0.0509 -0.0389
14521W        W27935  11.616   0.045   4.386 -0.2741 -0.1669 -0.0460
14522W        W27936   7.096   6.981   5.264  0.5986 -0.2310  0.1569
14523W        W27937   9.595   4.455   1.518 -0.0537  0.0022  0.1837
14524W        W27938  10.876   3.267   4.409 -0.0406  0.1489 -0.0664
14525W        W27939   9.009   2.638  11.211  0.1553  0.0475 -0.2971
14526W        W27940  13.990  11.507   2.131 -0.0440  0.0204  0.2258
14527W        W27941  10.889  10.484  11.710 -0.1746  0.0146 -0.3230
14528W        W27942  17.021  12.804   3.060  0.1976 -0.1106 -0.1236
14529W        W27943   5.065   7.463  15.898 -0.0509 -0.1636 -0.0099
14530W        W27944  11.800   1.401  14.985  0.5205  0.0444  0.0015
14531W        W27945   3.026  13.227   3.639 -0.3335 -0.0008 -0.1393
14532W        W27946   7.096  10.499   3.126  0.2971 -0.0556  0.3426
14533W        W27947   4.620   8.337  16.108  0.1222  0.2519  0.1086
14534W        W27948  16.700   0.518  13.624  0.0286 -0.1888  0.0524
14535W        W27949  12.962  11.324   2.296  0.0346  0.1669  0.3036
14536W        W27950  15.913  12.456  13.401 -0.1146 -0.1654  0.2505
14537W        W27951  18.394   0.823  13.326  0.0195 -0.0863  0.3068
14538W        W27952  13.379   5.831  13.187 -0.2098  0.1801  0.0524
14539W        W27953   7.082  10.779   2.704  0.2170 -0.3178  0.0019
14540W        W27954   9.128  14.232  11.479 -0.0389  0.0075 -0.1520
14541W        W27955  11.673   8.668  16.159  0.1129  0.2196 -0.0227
14542W        W27956  16.486   6.832   1.517  0.2026 -0.1377  0.0947
14543W        W27957  10.511   6.736   1.869 -0.1846  0.2562  0.0830
14544W        W27958  13.145   0.530   9.938 -0.0761 -0.2156 -0.0926
14545W        W27959   3.909  16.219   1.202 -0.1457 -0.0968  0.1131
14546W        W27960  10.492  14.794   1.740  0.0150  0.3594  0.1380
14547W        W27961   5.827   0.688  15.390 -0.1148 -0.0861 -0.3328
14548W        W27962  11.812   6.045   3.481  0.0899  0.1319 -0.2341
14549W        W27963   6.805  18.507   5.846  0.0692 -0.2515  0.1287
14550W        W27964   8.344   7.430  14.123 -0.0931  0.2018 -0.1413
14551W        W27965   0.660   0.564   2.887 -0.2026  0.0899  0.2314
14552W        W27966   3.968  16.035  15.307 -0.2498  0.1746  0.3761
14553W        W27967   4.188   0.583   1.343 -0.3663  0.5563 -0.2589
14554W        W27968   3.644   4.693   4.421 -0.1039 -0.0720 -0.0487
14555W        W27969   2.131   4.942  10.894  0.2236 -0.0230  0.0949
14556W        W27970  17.066   9.871   1.032 -0.3594 -0.0402  0.1137
14557W        W27971   3.537   4.592   2.984  0.0623 -0.1278 -0.1444
14558W        W27972   6.805  13.272  11.180  0.2837  0.0956 -0.0508
14559W        W27973   0.207   3.215   4.151  0.0291 -0.0794  0.0713
14560W        W27974   5.112  13.403  11.978 -0.1474  0.4240  0.1436
14561W        W27975  17.131  14.967   1.237 -0.3232 -0.1521  0.2273
14562W        W27976   3.107   7.618  12.829  0.3582 -0.2956  0.2452
14563W        W27977   0.942  12.932   0.409 -0.1353 -0.1350  0.2935
14564W        W27978   5.544   4.730   3.518  0.1564 -0.0363  0.1510
14565W        W27979   0.508  16.877   4.272  0.1365 -0.0528  0.1411
14566W        W27980  11.164   5.879  14.825  0.0746 -0.0280  0.0404
14567W        W27981  10.211   8.090   3.273  0.2652 -0.0809  0.0725
14568W        W27982  15.481   5.728   4.622 -0.2365 -0.1559  0.1118
14569W        W27983   7.472   9.917   5.403 -0.0748 -0.3913 -0.0885
14570W        W27984   0.764   7.755   0.940  0.1168 -0.3845  0.1237
14571W        W27985  17.485  18.447  11.067 -0.1362 -0.0946 -0.1794
14572W        W27986  15.630  17.371  11.882 -0.1861 -0.0282  0.2819
14573W        W27987   5.233   1.956   4.783 -0.0603  0.0317  0.1898
14574W        W27988  10.682   5.342  14.472  0.0500  0.1072  0.0186
14575W        W27989  17.092   8.354  13.750 -0.1129  0.1139 -0.0165
14576W        W27990   0.414  12.023   1.078  0.1638 -0.1599 -0.1107
14577W        W27991   9.759   8.284  11.535 -0.0168  0.1597  0.2171
14578W        W27992  15.166  12.688   3.587 -0.4777 -0.1454  0.1574
14579W        W27993   1.893   6.985  13.039  0.2347 -0.1385 -0.1591
14580W        W27994   6.997   5.800   3.677  0.0261  0.0957 -0.1951
14581W        W27995   5.351  17.788  15.277 -0.0390 -0.1368  0.1339
14582W        W27996   9.095   0.102  14.766 -0.2132 -0.0968  0.0854
14583W        W27997  16.262  10.287   1.250 -0.0360  0.0224  0.0693
14584W        W27998   0.304   7.195  11.994 -0.2260  0.0686 -0.0512
14585W        W27999   3.405   3.766  15.356 -0.1043  0.0093  0.1506
14586W        W28000  12.462   8.024  13.232 -0.0184 -0.4206  0.2794
14587W        W28001   7.845  14.904  10.227  0.1957 -0.0566  0.3493
14588W        W28002  10.749  17.990   5.068  0.3767  0.0877 -0.0051
14589W        W28003   1.790   0.156   3.466 -0.2550  0.1857 -0.2811
14590W        W28004  12.945   6.389  15.863  0.0665  0.1027 -0.1879
14591W        W28005   3.887   5.522   0.841 -0.0047 -0.1884  0.0686
14592W        W28006   3.674  10.295   4.242 -0.0095  0.1315  0.0260
14593W        W28007   1.334   4.139  14.983  0.1641 -0.3431  0.2184
14594W        W28008   0.077   9.350   3.607 -0.0482  0.2198  0.2541
14595W        W28009   3.053   9.707   3.315 -0.0580  0.1927 -0.2542
14596W        W28010   9.488  17.678  14.006 -0.2456 -0.0079  0.1509
14597W        W28011  11.845   0.386  13.172 -0.1268 -0.0773 -0.0751
14598W        W28012   6.637  10.439  16.229  0.0581 -0.1409 -0.2756
14599W        W28013   7.580  15.428  12.735 -0.0872 -0.0519  0.0634
14600W        W28014  15.357   5.095   3.716  0.0767 -0.0068  0.1210
14601W        W28015   8.356   7.048  10.835  0.0536 -0.1936 -0.0746
14602W        W28016   3.424  17.580   3.457  0.1646 -0.0627  0.1227
14603W        W28017  17.626   9.209  15.230 -0.1657 -0.0873 -0.2089
14604W        W28018   8.236  13.502  15.602  0.2456 -0.0306 -0.0574
14605W        W28019  11.186   5.184  13.332 -0.4538  0.3222  0.0206
14606W        W28020  10.824  10.617   4.530  0.4075 -0.0486 -0.0879
14607W        W28021   1.882   2.442   4.722 -0.0376 -0.1282 -0.2429
14608W        W28022  16.016  14.441   4.436 -0.2534  0.1016  0.0422
14609W        W28023   3.648  10.988   2.357  0.2917  0.0659  0.0559
14610W        W28024   6.203   0.697   1.176 -0.1140 -0.2329  0.0306
14611W        W28025   0.842   9.921   3.089  0.0369  0.0194 -0.0861
14612W        W28026  10.973  11.757   4.753  0.1927 -0.0628 -0.1255
14613W        W28027   3.501   0.681  14.288  0.0435 -0.1291 -0.0629
14614W        W28028   1.870   4.844  13.348 -0.0459 -0.3739 -0.1309
14615W        W28029  13.049   1.242  10.619 -0.1255  0.2384 -0.1473
14616W        W28030   2.218   8.233   5.828 -0.1548  0.2748  0.0362
14617W        W28031  15.015   9.094  13.842  0.2595 -0.4695 -0.0726
14618W        W28032  12.882   6.072   3.517  0.0944 -0.2156 -0.1207
14619W        W28033   4.007   9.008  12.052  0.0273  0.0930  0.0271
14620W        W28034  10.525  10.649  11.126  0.2571  0.2219  0.1750
14621W        W28035  17.032   2.047   0.894 -0.0222  0.3052 -0.1552
14622W        W28036  15.862   8.256  13.745  0.3127 -0.1070 -0.2733
14623W        W28037   6.580   1.413   1.769  0.0598  0.2743 -0.2799
14624W        W28038  12.438   2.308   4.807 -0.1255 -0.0789 -0.2121
14625W        W28039   1.122   3.705  14.838  0.0905  0.0611 -0.2435
14626W        W28040   2.301  17.959  14.880  0.1646  0.0226  0.1572
14627W        W28041  12.689  11.000  13.914 -0.0244  0.2831 -0.0460
14628W        W28042  14.023  18.491   4.691  0.1791  0.3311  0.2599
14629W        W28043   8.665  13.939   0.667 -0.1359 -0.1691  0.0485
14630W        W28044   1.801  10.254  12.701  0.2954  0.0175 -0.1010
14631W        W28045   9.845   6.531   4.899 -0.0379  0.1858 -0.1119
14632W        W28046   4.185   6.747  13.282  0.1590  0.2473 -0.1750
14633W        W28047   0.625  16.032  10.961  0.2155  0.0726  0.1365
14634W        W28048   3.106  17.133  13.066 -0.1227 -0.2061 -0.2408
14635W        W28049   3.762  13.498   4.008  0.1812  0.1845  0.2166
14636W        W28050   6.469  11.836  15.837  0.2482 -0.0156 -0.0454
14637W        W28051  13.105   6.887   1.559  0.1998 -0.2560  0.1489
14638W        W28052  10.857   4.328  13.180 -0.0149  0.0036 -0.1420
14639W        W28053  14.695  12.066   5.809 -0.0656 -0.0206 -0.1505
14640W        W28054   7.400   5.448  16.056 -0.3333  0.1008  0.0795
14641W        W28055   3.988  11.150  10.455  0.0444  0.3182  0.0611
14642W        W28056  17.443  18.156   1.885  0.1236 -0.2708 -0.0137
14643W        W28057  10.728   8.856  14.355 -0.2074  0.1961 -0.0046
14644W        W28058   0.695  13.168   6.583  0.2849  0.2235 -0.1266
14645W        W28059  11.668  14.218   5.773  0.0349 -0.1871  0.0382
14646W        W28060  14.409  10.439   4.766 -0.0007  0.1716  0.2594
14647W        W28061   1.112   5.265  13.840 -0.3250  0.3023  0.5182
14648W        W28062   8.781   9.902   0.424 -0.0667 -0.1564 -0.2518
14649W        W28063   7.081   2.569   3.801  0.1684 -0.1327 -0.3408
14650W        W28064   0.490  16.526  10.841  0.1447 -0.0846  0.1980
14651W        W28065   9.720   7.099  15.099 -0.0533  0.3083  0.3946
14652W        W28066   5.459   3.058  15.750  0.1818  0.2140 -0.1604
14653W        W28067   2.348   5.623   9.864 -0.1903 -0.1753 -0.1197
14654W        W28068  14.511   1.944   0.068 -0.3268 -0.4556  0.0274
14655W        W28069  14.084  10.030  12.018 -0.0876  0.3042  0.0009
14656W        W28070  15.386  14.127   3.637  0.0623  0.0900  0.1427
14657W        W28071   3.671  15.290   4.851 -0.0301  0.1356 -0.1755
14658W        W28072   4.661   8.915  16.069  0.0419 -0.0965 -0.1259
14659W        W28073  10.638   6.880  13.268 -0.0386  0.2076 -0.0899
14660W        W28074   2.375   0.929  13.866 -0.0390 -0.0243 -0.2157
14661W        W28075   9.084   4.651  15.660  0.3154  0.0030 -0.0531
14662W        W28076  16.018   7.129   4.759  0.2117 -0.0745 -0.0797
14663W        W28077   4.937   4.418   6.008  0.2628 -0.1333  0.0075
14664W        W28078  12.352  12.808  11.542 -0.2444 -0.1075  0.1860
14665W        W28079  17.761  11.175  11.149 -0.1442  0.0345 -0.1885
14666W        W28080   1.228   1.342   3.258  0.1150 -0.0230 -0.3039
14667W        W28081   6.790   7.604  13.032 -0.1227 -0.1653 -0.1446
14668W        W28082   6.672  17.898  12.303  0.0132 -0.0634  0.0896
14669W        W28083   5.062  17.856  16.114  0.0502  0.1772 -0.0280
14670W        W28084   3.256  11.966   4.481 -0.0509  0.1276  0.0380
14671W        W28085  13.908  11.598  11.596 -0.1322 -0.2291 -0.1301
14672W        W28086   3.270   1.746  15.944  0.1410 -0.0085 -0.0233
14673W        W28087   2.924  10.239   9.975 -0.0072  0.0906  0.2021
14674W        W28088   3.773  12.693  14.456 -0.0474 -0.1275 -0.2544
14675W        W28089  14.563  10.087   2.368 -0.0208  0.3710  0.0324
14676W        W28090  13.629   6.295   2.941  0.0967  0.2726  0.0302
14677W        W28091   7.706  13.530   1.999 -0.1000  0.0293 -0.1820
14678W        W28092  13.839   0.968   3.044  0.2646  0.0088 -0.0642
14679W        W28093   8.135   7.459  12.519 -0.1866  0.1153  0.0187
14680W        W28094  15.704   9.501   2.872  0.1905 -0.1153 -0.2520
14681W        W28095   6.240  11.045   0.505  0.0764  0.3796  0.1029
14682W        W28096  10.347  16.800  13.596 -0.0478 -0.0804 -0.1029
14683W        W28097  14.440  17.776  13.962 -0.2539 -0.0335 -0.1859
14684W        W28098  10.366  10.388  13.052 -0.1720 -0.0735 -0.3367
14685W        W28099  16.384   4.073  14.712 -0.3235 -0.2791  0.1436
14686W        W28100   7.959   1.569   3.203  0.1924  0.1573 -0.0594
14687W        W28101  10.749   4.863   5.187  0.2297  0.0335 -0.1440
14688W        W28102   5.621  12.615  11.675  0.0777  0.0853  0.0105
14689W        W28103   8.159  14.757  12.606  0.2251  0.2755 -0.0208
14690W        W28104  12.080  13.595  16.062  0.3111 -0.2307 -0.1190
14691W        W28105   2.993   9.473   2.867  0.0789  0.0540  0.0864
14692W        W28106   4.598   0.236  14.720  0.2478 -0.1903 -0.1714
14693W        W28107  16.590  12.581   3.317  0.0488  0.0474  0.2469
14694W        W28108  17.453   1.326  15.926  0.0545  0.1908  0.0950
14695W        W28109  15.761   7.623   5.596 -0.1220  0.2820  0.0863
14696W        W28110  13.193  14.997   3.920  0.0704  0.1162  0.0766
14697W        W28111  16.906   0.483  11.809  0.2055 -0.0012 -0.0484
14698W        W28112  12.994   7.583   2.540 -0.0150 -0.0328  0.0276
14699W        W28113   4.517  12.831  11.522  0.0094  0.1993  0.1778
14700W        W28114  16.318  14.313   2.635 -0.2208 -0.4219  0.1623
14701W        W28115  10.465   9.465  12.614  0.4096  0.1234 -0.0036
14702W        W28116   9.748   8.950   3.015  0.2378 -0.3559 -0.2516
14703W        W28117  17.527   0.275  12.902 -0.0544  0.0437  0.1785
14704W        W28118  12.048   6.781  15.749  0.0782  0.2825  0.1313
14705W        W28119  10.309  11.101  12.034 -0.0124 -0.0224 -0.0762
14706W        W28120  11.472  15.471  12.491 -0.0257  0.3459  0.0341
14707W        W28121  11.684  13.746  15.046 -0.1998 -0.3104 -0.0982
14708W        W28122   6.248  16.768  13.176  0.0974 -0.2643 -0.0826
14709W        W28123   5.030   7.701  12.053  0.1867 -0.0134  0.0248
14710W        W28124  13.408   0.436   2.723  0.4008 -0.0413  0.1845
14711W        W28125   0.037  15.137  13.144  0.0172 -0.0680  0.0592
14712W        W28126   7.884  15.002   1.554  0.2926  0.1845  0.2857
14713W        W28127   3.109  16.495   3.089  0.0616  0.0029  0.5061
14714W        W28128  13.310   5.725   3.465 -0.0110 -0.2191 -0.3295
14715W        W28129  12.402   3.990   5.361  0.1073  0.1205 -0.0150
14716W        W28130   8.375   4.510   4.266  0.1877 -0.1358  0.2475
14717W        W28131   3.129  10.157   2.415  0.0304  0.0239 -0.1394
14718W        W28132   9.147  13.687  15.054 -0.2061 -0.4085  0.0150
14719W        W28133   1.226   5.401  13.361  0.0441 -0.1943 -0.2568
14720W        W28134  17.469   2.828  15.401 -0.2343  0.0565  0.0358
14721W        W28135   5.329   9.431  10.553 -0.0368 -0.1270 -0.1542
14722W        W28136  10.249   5.945  13.887  0.1333  0.2283  0.0759
14723W        W28137  14.314  14.399   0.597 -0.0366  0.1694 -0.0314
14724W        W28138   6.325   2.920   2.682 -0.0162  0.2658  0.0602
14725W        W28139  15.276   3.319  15.559  0.0115 -0.0244 -0.1001
14726W        W28140   6.564   1.872   3.288  0.0150  0.3053 -0.0482
14727W        W28141  12.345   7.793   3.784  0.0935  0.1445  0.1286
14728W        W28142   0.286  11.703  11.706 -0.1070  0.0452 -0.0647
14729W        W28143  11.936   7.978   1.583 -0.0600  0.1044  0.0128
14730W        W28144  14.534  14.461  10.471 -0.0591  0.0028  0.2374
14731W        W28145   0.049   3.747   5.048 -0.3664  0.2154  0.2713
14732W        W28146   4.508   5.917   0.236 -0.1625  0.5146 -0.1341
14733W        W28147   8.096  15.222  10.477 -0.1083  0.2318  0.0447
14734W        W28148   2.190   8.108   4.285 -0.3907  0.0885 -0.0384
14735W        W28149  11.312   5.810   6.635  0.3905  0.2349  0.1347
14736W        W28150  15.531  11.454   4.819  0.0835  0.0491 -0.2283
14737W        W28151  12.185  11.371  13.080 -0.0931  0.1085 -0.3173
14738W        W28152   7.646  18.169  11.897  0.0143 -0.0593 -0.2394
14739W        W28153  11.956  11.304   2.862  0.1385 -0.4367 -0.2997
14740W        W28154  16.531  11.427   5.639  0.0002  0.3222  0.0234
14741W        W28155  13.276   5.530   5.458 -0.3215 -0.1790 -0.0264
14742W        W28156   3.315   2.108  14.282  0.0013  0.1576 -0.0214
14743W        W28157   8.404   6.030   3.014 -0.1088 -0.0283 -0.0228
14744W        W28158   4.251   1.793  14.233 -0.1562  0.1334 -0.1357
14745W        W28159   1.806  12.373  14.778 -0.0942  0.1752 -0.0572
14746W        W28160  12.884  18.290  15.304  0.0223  0.3598  0.1445
14747W        W28161   8.479  12.177  10.511  0.2087 -0.0792 -0.4324
14748W        W28162   6.858   6.991  14.736  0.0051  0.0872 -0.0000
14749W        W28163   0.864   5.736   0.378 -0.3155  0.2077  0.1380
14750W        W28164  11.896  17.752   4.110  0.0497 -0.0406  0.1688
14751W        W28165  18.314  13.025  12.571  0.0758 -0.0850 -0.0716
14752W        W28166   8.695   1.855  15.587  0.2763 -0.0893 -0.0527
14753W        W28167  16.429   1.423  14.307 -0.2253  0.1575 -0.0629
14754W        W28168  15.295  16.403   0.728  0.0151  0.1394  0.2012
14755W        W28169  13.375   8.130   2.641  0.1580 -0.0578  0.2739
14756W        W28170   8.176  16.696  12.148  0.0451  0.1636 -0.0427
14757W        W28171   8.267  10.540   1.968  0.1659 -0.0734  0.1428
14758W        W28172   3.420   9.362   1.340 -0.0171  0.0630 -0.2073
14759W        W28173   0.229   8.847   0.853  0.1387 -0.1170 -0.3918
14760W        W28174   2.074  16.301   3.384 -0.1822  0.1852 -0.0018
14761W        W28175  12.796   5.423   2.187 -0.2509  0.3075 -0.1100
14762W        W28176  17.853  16.591  10.927  0.0550  0.4718 -0.0337
14763W        W28177  18.288   4.553  10.012 -0.0542  0.1084  0.0933
14764W        W28178  13.351   1.698   2.638  0.1638 -0.1222 -0.0148
14765W        W28179   0.721  11.234   3.471  0.0400 -0.1930  0.0943
14766W        W28180  10.654  11.870   1.034 -0.3362  0.3343  0.1655
14767W        W28181   4.947  13.544   1.699 -0.3315 -0.0257 -0.1035
14768W        W28182   9.872   1.005  15.726 -0.0775 -0.0029  0.5478
14769W        W28183  14.207  13.587  12.222  0.0298 -0.1716  0.1928
14770W        W28184  15.970  11.680   1.527  0.2191  0.1519  0.1081
14771W        W28185  18.110   1.043   5.614  0.1577 -0.0305  0.0610
14772W        W28186  14.336  18.155   3.805 -0.1765 -0.4300 -0.1471
14773W        W28187   2.713  12.477   4.140 -0.0993 -0.2057  0.0715
14774W        W28188  18.179   9.976   4.979  0.0140  0.0128 -0.0858
14775W        W28189   2.827  11.687   2.544  0.2677 -0.0424  0.0861
14776W        W28190  13.864  14.974   3.270  0.1273  0.1054  0.1967
14777W        W28191  11.898   3.798   5.830 -0.3238 -0.0778 -0.0513
14778W        W28192   0.531   2.605   1.666  0.2327 -0.1472 -0.1660
14779W        W28193   0.588   9.175   4.956 -0.3064 -0.0501  0.0278
14780W        W28194  17.981   1.937  15.443  0.3508 -0.4599 -0.0266
14781W        W28195   1.043   7.662  12.885 -0.1365 -0.1724 -0.0912
14782W        W28196   1.630  16.731  11.422  0.3802 -0.1328  0.4038
14783W        W28197  15.678  15.735  15.853  0.0633  0.0972  0.0707
14784W        W28198   1.359   4.782   0.519  0.2365  0.1387 -0.1262
14785W        W28199   6.919  17.538  10.963 -0.2056  0.0280  0.4473
14786W        W28200   5.451   1.428  16.114 -0.2089  0.0417 -0.1162
14787W        W28201   6.632  10.286  11.871  0.2646  0.1331  0.0366
14788W        W28202   7.413   7.321   0.042 -0.1824 -0.0508  0.0907
14789W        W28203   5.866  17.089   4.301  0.2508  0.2214 -0.0927
14790W        W28204  13.293  16.153   3.132  0.0251  0.0675  0.0241
14791W        W28205   6.983   9.927   3.030 -0.0258 -0.1983  0.0043
14792W        W28206   7.668  14.587  12.746  0.0440  0.1157  0.0552
14793W        W28207  18.363  16.923  13.691 -0.0890  0.0671 -0.0588
14794W        W28208   9.891   4.855   1.611  0.0097  0.1141  0.2334
14795W        W28209  12.749  15.327  10.358  0.0811  0.0662  0.1538
14796W        W28210  15.531  17.670   5.156 -0.1131  0.2492 -0.1431
14797W        W28211   1.861  14.379  15.135 -0.0836 -0.2590  0.0705
14798W        W28212  13.519   3.561   4.869  0.3401 -0.2106  0.0126
14799W        W28213  15.214   9.870   1.836  0.0370  0.4799 -0.1327
14800W        W28214   0.991  11.705  11.407 -0.1628 -0.0353  0.4347
14801W        W28215   1.208  11.623   3.398  0.0365 -0.0904  0.1808
14802W        W28216   0.998  16.319  16.209 -0.2671  0.3184  0.1067
14803W        W28217  17.908   5.727  15.340  0.2620  0.1102  0.2793
14804W        W28218   0.937   8.749  14.277 -0.1231  0.1355  0.1182
14805W        W28219   1.356   3.562  15.266 -0.0523  0.1302 -0.0854
14806W        W28220   2.183   8.992  11.387  0.2496  0.0001 -0.0300
14807W        W28221  12.403   5.103  11.288 -0.0921 -0.1533 -0.5027
14808W        W28222   7.669   4.322   2.062 -0.1002 -0.0997 -0.1856
14809W        W28223  14.292   0.096  10.714 -0.3137 -0.0680  0.0444
14810W        W28224   5.214   4.657  10.138 -0.1337 -0.0327 -0.1373
14811W        W28225  16.641  11.086   2.915  0.1557  0.1640  0.4003
14812W        W28226   9.987   3.988   5.194  0.1688 -0.0057 -0.1766
14813W        W28227  16.470   0.176  11.344 -0.2092  0.1266 -0.0113
14814W        W28228   2.281  15.409  12.384  0.1398 -0.0985 -0.1579
14815W        W28229  17.327  12.913  12.303  0.2486 -0.0153 -0.1777
14816W        W28230   2.241   6.237  13.729 -0.0552  0.1154  0.1652
14817W        W28231  16.882   0.523  14.096 -0.0800  0.3076 -0.0542
14818W        W28232   4.878  10.865  10.404  0.1786 -0.1501 -0.1865
14819W        W28233   9.701  10.374  16.107 -0.1152 -0.0666 -0.3077
14820W        W28234  12.770   9.614  12.695  0.1256 -0.3586  0.1889
14821W        W28235  12.572   5.162   1.017  0.0454 -0.2454  0.2311
14822W        W28236   1.113   7.211  16.026 -0.0235  0.0608 -0.2736
14823W        W28237   8.650  13.839   2.793 -0.0204  0.0119 -0.2365
14824W        W28238   4.180   2.662   6.572  0.0955  0.1126  0.3978
14825W        W28239  18.374   5.313  11.539  0.2152 -0.0847  0.1368
14826W        W28240   6.147   1.641   4.570 -0.0228 -0.3354 -0.0653
14827W        W28241   9.362  11.996   9.614  0.0847  0.0045  0.2184
14828W        W28242  11.910  17.659   5.323 -0.1073  0.1642  0.3689
14829W        W28243  16.931   6.472   0.815 -0.0844 -0.0619  0.1141
14830W        W28244  15.693   9.951   3.598  0.1574 -0.3839  0.1712
14831W        W28245   8.148  17.523   3.686  0.0612  0.0308 -0.0626
14832W        W28246   4.063  11.769  10.148  0.0140  0.0422  0.3646
14833W        W28247   6.653  16.289  14.113  0.0521  0.0755 -0.0116
14834W        W28248   4.136  18.368  10.229  0.0010  0.3064 -0.1993
14835W        W28249  12.875  10.547   0.258 -0.1137 -0.0059 -0.2624
14836W        W28250  18.209  10.937   2.445  0.1594 -0.1889  0.0098
14837W        W28251  13.270   5.290   4.466  0.0288  0.3179  0.2292
14838W        W28252   7.492   4.995  15.379 -0.1764 -0.2297 -0.1639
14839W        W28253   2.675  14.429   1.731  0.0055 -0.0593  0.0655
14840W        W28254   4.038   2.147  11.901  0.1875  0.2524 -0.1345
14841W        W28255  12.394   1.445  11.105  0.1073  0.3784  0.0586
14842W        W28256   9.367  16.508   1.257  0.1612 -0.1307  0.1738
14843W        W28257   1.204  14.867   3.237  0.2297  0.2602 -0.0517
14844W        W28258  10.106   6.439  13.896  0.0957 -0.2303 -0.0625
14845W        W28259   6.471  13.838   0.847  0.0784 -0.3131 -0.4747
14846W        W28260   6.741   3.408   5.926  0.0588  0.2047 -0.0926
14847W        W28261   4.547   9.650   3.321  0.2220 -0.1825  0.3489
14848W        W28262   6.103   8.471  10.473 -0.3177 -0.1599 -0.4601
14849W        W28263   7.825  11.687   1.937 -0.0457  0.2050  0.2670
14850W        W28264  13.347   1.544   1.778 -0.0193 -0.3273  0.2032
14851W        W28265  11.587   1.416  14.144 -0.2202 -0.1402 -0.1731
14852W        W28266  11.164  16.518  10.941 -0.2714  0.0603 -0.3680
14853W        W28267  11.842   4.780   2.625  0.0876 -0.1166 -0.1329
14854W        W28268  14.068  11.617   0.746  0.1426  0.0792  0.2807
14855W        W28269   0.754   3.143  11.875 -0.3505  0.1478  0.0717
14856W        W28270   3.928  13.843  14.444  0.0697  0.2277  0.2664
14857W        W28271  15.525   6.564  10.991 -0.2340  0.2905 -0.1492
14858W        W28272  15.970   9.106   2.640  0.1429  0.0527  0.0407
14859W        W28273  10.230   3.828   3.975 -0.1645 -0.3253 -0.2728
14860W        W28274   4.526   5.150   2.207  0.2624 -0.0895 -0.3920
14861W        W28275  11.956   8.100   2.353 -0.1709 -0.2800  0.1983
14862W        W28276   5.281  17.361  15.871 -0.3642 -0.0291  0.0753
14863W        W28277  14.658  17.933  11.485  0.3541  0.0250  0.2494
14864W        W28278  14.168  12.899   2.688  0.0193 -0.0446 -0.0865
14865W        W28279  13.448  15.060   2.933 -0.1849  0.0277  0.0247
14866W        W28280  18.017   0.222   3.634  0.1154 -0.0752  0.4420
14867W        W28281  12.234  16.217   3.759  0.0240  0.2922  0.1266
14868W        W28282  11.433  11.516  11.317 -0.1358 -0.2260  0.1149
14869W        W28283  11.597  16.942  15.617  0.0811  0.3043 -0.0166
14870W        W28284   2.049   0.715  12.561  0.2474  0.0389  0.1520
14871W        W28285  17.084  18.203   1.425 -0.1301  0.0742 -0.2143
14872W        W28286  10.258  18.455  14.990  0.0001  0.0390 -0.2550
14873W        W28287   4.344  17.686   1.822 -0.1430 -0.0906 -0.1812
14874W        W28288   0.366  18.098   4.763 -0.1192  0.0841 -0.3213
14875W        W28289   6.244   9.955   9.841 -0.0753  0.0616  0.0880
14876W        W28290  14.975   5.945  12.362  0.2244 -0.2822  0.1912
14877W        W28291  13.782  16.545  13.535  0.0236 -0.0011 -0.2755
14878W        W28292   2.554   2.051  12.134  0.1685 -0.0076 -0.0783
14879W        W28293  15.688   9.850   1.899 -0.2868 -0.1545  0.0379
14880W        W28294   4.057  17.614  10.193  0.0265  0.0986 -0.0183
14881W        W28295  12.902   8.837  14.347 -0.0056  0.0092 -0.0880
14882W        W28296  10.555  12.942  13.248 -0.1551  0.1556  0.2144
14883W        W28297   7.858   5.858  13.719  0.2877  0.1231 -0.1779
14884W        W28298  14.939   0.779  12.637 -0.0167  0.0334 -0.0884
14885W        W28299  14.882   3.802  13.279  0.1049 -0.5358 -0.0565
14886W        W28300  11.343   3.041   3.285  0.3309 -0.1545  0.0140
14887W        W28301   0.995  15.650  11.062 -0.1900  0.3745  0.0802
14888W        W28302   0.200  12.375   0.679 -0.1595  0.1464  0.0304
14889W        W28303   9.028  15.993   4.114 -0.1195  0.1090  0.0157
14890W        W28304  10.609  17.211  14.102 -0.4149  0.1059 -0.0045
14891W        W28305  16.507   6.561   3.543 -0.0651  0.0429 -0.1444
14892W        W28306  10.486  15.841   6.001  0.2223 -0.0147  0.2742
14893W        W28307  11.103   2.495   4.818  0.4667 -0.2177  0.0702
14894W        W28308   3.820   7.588  13.523  0.2285  0.1800 -0.1011
14895W        W28309  13.579  15.704  13.382  0.1879 -0.4338 -0.0364
14896W        W28310  12.349   2.318  13.017 -0.2872  0.0768 -0.0328
14897W        W28311   9.042   8.060  14.280 -0.0364 -0.3069 -0.0452
14898W        W28312   2.691  13.763  14.175 -0.0028  0.2620  0.0166
14899W        W28313   0.306   2.533   4.577 -0.0240 -0.2058 -0.0378
14900W        W28314   2.383   4.083  14.374 -0.0212 -0.2370  0.2213
14901W        W28315   3.424   7.876  11.458  0.1454  0.1365 -0.0757
14902W        W28316   8.294   2.813   1.209  0.2169  0.2322  0.1243
14903W        W28317  15.697   9.386   1.751 -0.1503  0.1327  0.0152
14904W        W28318   5.463   8.777   5.063 -0.0521  0.1244  0.2845
14905W        W28319  12.894  15.848   2.987  0.0770  0.3562 -0.0904
14906W        W28320  13.451   6.215   2.135 -0.1139 -0.2665 -0.1300
14907W        W28321   7.131   3.123  11.534 -0.0382 -0.0317  0.1685
14908W        W28322  11.244  14.422   0.601 -0.3074  0.0212  0.3331
14909W        W28323  18.229  11.255   2.053 -0.0528  0.1914 -0.4048
14910W        W28324   1.826   4.269  13.524 -0.1629 -0.2861  0.0389
14911W        W28325   8.013  15.169  14.907 -0.0468 -0.0086  0.0713
14912W        W28326   0.077   1.244   3.075 -0.2080 -0.0141  0.0103
14913W        W28327  12.046   3.912   3.829 -0.2200 -0.1275  0.4057
14914W        W28328  13.048  17.769  14.109  0.0842  0.2700 -0.1056
14915W        W28329  14.809  13.335  15.079 -0.0329 -0.0723 -0.0013
14916W        W28330   3.636   2.254  13.672 -0.2194 -0.3209  0.1849
14917W        W28331  11.858   3.633   1.292  0.4034  0.1982 -0.1598
14918W        W28332   5.144   3.648   2.833 -0.0175  0.3177 -0.0245
14919W        W28333   2.432   5.609  12.614 -0.2789 -0.2941  0.1027
14920W        W28334  17.475  15.751   1.424 -0.0145 -0.2863 -0.1811
14921W        W28335  17.176   1.141  13.327  0.1936 -0.2187 -0.3460
14922W        W28336  13.331  12.259  13.356 -0.0104 -0.1148 -0.0921
14923W        W28337  13.617   7.291  13.763  0.0179  0.2057 -0.1899
14924W        W28338  15.604  12.630   4.150  0.3722  0.1571  0.1598
14925W        W28339  16.108  13.232  11.394  0.0063 -0.2758 -0.0548
14926W        W28340   6.312   4.333   4.590 -0.0307  0.0363  0.3909
14927W        W28341   2.056  11.515   4.995 -0.1861 -0.0412  0.0297
14928W        W28342   0.227  10.624  16.192  0.0785 -0.1602  0.1391
14929W        W28343   8.124   9.030   5.155 -0.0200  0.1654  0.0125
14930W        W28344   7.776   9.837   2.473  0.1514  0.4696 -0.0862
14931W        W28345   8.418   8.260   1.499 -0.0066 -0.3599 -0.0993
14932W        W28346  11.775   6.624  12.120 -0.0109 -0.2916  0.2807
14933W        W28347  16.297  15.671  13.411 -0.1041 -0.1919 -0.3543
14934W        W28348   6.319  16.020  10.515  0.1756 -0.1020 -0.0187
14935W        W28349   8.193  13.577   2.705 -0.2403 -0.3808  0.1602
14936W        W28350   7.920  13.541  12.926  0.2485  0.0024  0.0450
14937W        W28351  10.693   2.239  13.537  0.0129 -0.1267  0.1682
14938W        W28352   0.969  13.298  15.435  0.0878 -0.2720 -0.1618
14939W        W28353   6.727   0.357   2.663 -0.0156 -0.0071 -0.1227
14940W        W28354   9.140  17.051   0.301 -0.0682  0.0491  0.2188
14941W        W28355   9.560   0.048  13.228  0.2926  0.2990 -0.0013
14942W        W28356   4.293  16.433  12.848  0.1527 -0.0350 -0.1095
14943W        W28357  11.650  12.357  10.224  0.2131 -0.2968 -0.3289
14944W        W28358   8.676  16.185  11.671 -0.1985  0.1066  0.1434
14945W        W28359   0.655   4.957   0.104  0.1232  0.0380  0.0391
14946W        W28360   1.642  12.245  13.475  0.1584  0.1014  0.0606
14947W        W28361   6.175   9.039  16.233  0.1646 -0.0590 -0.1282
14948W        W28362  12.000   2.502  11.106  0.0837  0.1805  0.2001
14949W        W28363   6.872   9.750  13.307 -0.1046  0.0115 -0.0654
14950W        W28364  13.633  13.708  12.897 -0.1282  0.3541  0.0547
14951W        W28365  13.676   2.817  13.778  0.2083  0.2102  0.1658
14952W        W28366   3.986  17.528  14.801  0.1050 -0.0808  0.2359
14953W        W28367   1.258   4.048   5.822  0.2395  0.0889  0.0227
14954W        W28368   5.730   6.617  13.970 -0.0064 -0.0492 -0.0460
14955W        W28369  11.022  10.557  11.261 -0.1739 -0.1354 -0.0053
14956W        W28370   9.882   9.413   3.321  0.2710  0.0435 -0.2146
14957W        W28371   1.395  17.595  13.807  0.0304 -0.0050 -0.0665
14958W        W28372   1.118   4.017   3.516  0.2121  0.0878  0.1420
14959W        W28373  17.824   0.647   1.472 -0.0202 -0.0047 -0.1287
14960W        W28374  14.823   5.359  12.215  0.0702  0.2450 -0.2032
14961W        W28375  14.254   9.210   3.941 -0.0596 -0.0025  0.1613
14962W        W28376   6.564   7.504  14.740  0.1339 -0.2705  0.1161
14963W        W28377  17.870   2.910   2.563 -0.1559 -0.1114 -0.1591
14964W        W28378   2.652   0.628   2.787 -0.0632  0.1300 -0.0755
14965W        W28379  10.236  10.011  13.919 -0.0692 -0.1475 -0.1689
14966W        W28380  13.346   7.009   2.261 -0.0927  0.1953  0.3058
14967W        W28381  16.929   0.471   0.888  0.0298 -0.1560  0.0272
14968W        W28382  11.571   1.996   3.557  0.0933 -0.0232  0.0054
14969W        W28383  13.445   7.238  14.240  0.3168  0.2420  0.2788
14970W        W28384  11.610  16.283   6.159 -0.0422  0.2824 -0.0183
14971W        W28385  13.676   4.213  13.941 -0.1158  0.1674 -0.2991
14972W        W28386  13.119  15.852  16.114 -0.0305 -0.0310 -0.0338
14973W        W28387  18.479   9.519   5.621  0.0678  0.1860  0.2273
14974W        W28388   4.688  16.903  12.434 -0.0889  0.0575  0.1539
14975W        W28389  13.710   6.271   1.705  0.0379 -0.4052 -0.1724
14976W        W28390   5.031   0.837   1.140  0.4802 -0.1227  0.3900
14977W        W28391  10.122  17.852   1.719 -0.2020  0.0698 -0.0523
14978W        W28392  11.833   6.370  14.857  0.1727 -0.3540 -0.0818
14979W        W28393  14.972   8.827  15.528  0.1599 -0.0956 -0.0276
14980W        W28394  10.093   9.858   5.779 -0.0624  0.4567  0.0634
14981W        W28395   4.178  17.339  11.557  0.0959  0.2539 -0.0109
14982W        W28396   4.605  14.753  13.629  0.1562  0.1381  0.0583
14983W        W28397   8.297  16.820  16.092  0.2144  0.3110  0.0838
14984W        W28398  16.159  10.834  10.564  0.0977 -0.0287  0.1464
14985W        W28399   5.988   0.058   3.252 -0.2005 -0.2290  0.2063
14986W        W28400   2.103   2.643  14.997  0.0844 -0.0689 -0.1664
14987W        W28401   5.311  14.838  15.572 -0.0119 -0.0067 -0.5249
14988W        W28402  13.881   6.520  12.040 -0.1549  0.0430 -0.2175
14989W        W28403  13.140   3.382  12.201  0.0453  0.0004 -0.1370
14990W        W28404  14.960   2.866   3.106  0.3845 -0.1083 -0.1294
14991W        W28405  18.197  17.019  14.148  0.0582 -0.0485  0.2892
14992W        W28406  11.676  14.758   2.883 -0.0800 -0.0011 -0.2207
14993W        W28407  14.285   2.202   4.116 -0.0078 -0.2210  0.3992
14994W        W28408  12.499   1.065   2.903  0.0364  0.2549 -0.0606
14995W        W28409   9.818  14.311  14.088 -0.1125  0.3410  0.0352
14996W        W28410   8.924  15.466   3.917  0.0219 -0.2950 -0.1245
14997W        W28411  10.704   4.838  13.272  0.0685 -0.3499 -0.2414
14998W        W28412   6.224   9.305  13.991  0.3658 -0.1162 -0.0206
14999W        W28413   1.173   9.531   3.353 -0.3617 -0.0944  0.1869
15000W        W28414   4.891   0.397   2.267 -0.0916 -0.1332  0.1034
15001W        W28415   6.675  17.542   3.912 -0.0210 -0.0039 -0.1916
15002W        W28416  18.317  12.650  15.512  0.3523 -0.3039  0.2402
15003W        W28417   6.478   6.579  10.711  0.1217  0.1609 -0.0573
15004W        W28418   6.088  12.730   1.477  0.0629 -0.2150  0.1107
15005W        W28419   5.134   1.229   2.160 -0.0614 -0.0100  0.0928
15006W        W28420  10.020   3.499   3.105  0.1382 -0.3230 -0.2624
15007W        W28421   8.153   5.788  15.551  0.1598 -0.0922 -0.2018
15008W        W28422   1.715   3.751   5.533  0.1451  0.1563  0.1153
15009W        W28423   4.005   5.962  10.470  0.0641  0.2204 -0.2980
15010W        W28424   2.620  17.662  15.256  0.0299 -0.4736  0.2982
15011W        W28425   9.141   0.158   2.841 -0.0358 -0.0661  0.0003
15012W        W28426  18.004  13.145  15.252 -0.2092  0.2936  0.0896
15013W        W28427  12.358  11.918   0.451  0.0411  0.3087  0.0378
15014W        W28428  13.477   5.943  10.219 -0.1780  0.1931  0.1557
15015W        W28429   5.549  10.147  14.115  0.2167 -0.0242  0.0155
15016W        W28430  17.022   6.580  14.830  0.1398  0.0443 -0.0732
15017W        W28431   8.689   6.264  11.601 -0.0278  0.1029 -0.1579
15018W        W28432  16.626   2.097  11.262 -0.0604 -0.1647  0.2956
15019W        W28433   6.492  13.818   2.259  0.1380  0.2174 -0.3637
15020W        W28434  11.939   5.344  14.759 -0.2686  0.0892  0.1391
15021W        W28435  13.843   0.836   4.359  0.1267  0.2022 -0.1998
15022W        W28436  14.992   2.125   5.283  0.0957  0.1871  0.3741
15023W        W28437  13.277   3.953  13.724  0.0077 -0.3768  0.1110
15024W        W28438   1.497   3.054  12.014 -0.0955  0.0238 -0.1275
15025W        W28439   4.029  11.364   3.566  0.1063  0.0427  0.2421
15026W        W28440  18.480  15.100  10.517  0.2167 -0.2076 -0.2451
15027W        W28441   3.009   6.631  13.867 -0.1792 -0.4740 -0.0944
15028W        W28442   5.026   4.983  15.617 -0.2809  0.0247  0.1167
15029W        W28443   5.008   2.724   0.002  0.0794  0.0063  0.0913
15030W        W28444  16.205   4.235   9.905  0.1756  0.0568  0.0734
15031W        W28445   6.011   2.680  15.466 -0.3188  0.2343  0.1024
15032W        W28446   3.979  17.782  15.803  0.1052  0.0637  0.0238
15033W        W28447  16.817  14.405   3.448  0.0927 -0.2512  0.1046
15034W        W28448  12.783   3.444  12.629  0.0305 -0.0846  0.2410
15035W        W28449  12.516   3.051   1.117 -0.2568 -0.2134  0.1660
15036W        W28450  16.642  15.321   1.853  0.0909 -0.1119 -0.3093
15037W        W28451  16.801  11.598  11.877  0.0917 -0.1432  0.0228
15038W        W28452  15.169  15.370  15.721  0.0867  0.2819 -0.0768
15039W        W28453   4.515  10.507  12.115  0.0653 -0.0248 -0.0460
15040W        W28454  14.730  16.351   0.624 -0.0469  0.1039  0.0629
15041W        W28455   0.198  17.393  10.687 -0.1989  0.0628 -0.3680
15042W        W28456  15.706  18.044   3.186 -0.2684  0.1199 -0.1461
15043W        W28457   4.662  13.882  12.582 -0.1764  0.4195  0.0372
15044W        W28458  18.278   1.916  14.004 -0.2120  0.2153  0.1311
15045W        W28459   7.227   8.076   1.557  0.1000 -0.0006  0.4858
15046W        W28460  12.903  13.803  15.805 -0.0971  0.1912 -0.2617
15047W        W28461   1.229  13.405   3.864  0.3808 -0.1197 -0.0149
15048W        W28462  10.309  14.450   0.243  0.0017  0.0255 -0.0182
15049W        W28463   0.198   3.437  13.793 -0.0011 -0.1011  0.4331
15050W        W28464   1.256  11.563  15.026  0.0920  0.4354  0.1218
15051W        W28465   5.706  10.848   1.371 -0.0158  0.1669 -0.2995
15052W        W28466   6.946   8.657  12.996 -0.3093  0.2606 -0.0606
15053W        W28467  10.424   6.407  11.298 -0.0655  0.1290  0.2458
15054W        W28468  10.203  17.848  10.482 -0.2798 -0.1463  0.2082
15055W        W28469   0.680   0.713  12.600  0.0279  0.0266 -0.1755
15056W        W28470   6.750   6.962   2.490  0.2612  0.2616  0.3945
15057W        W28471  11.578   9.337   2.053 -0.2210  0.2239 -0.0591
15058W        W28472  17.451  18.280  14.226 -0.1638  0.1014 -0.3917
15059W        W28473   9.078  15.096   1.047 -0.1250 -0.0182 -0.3472
15060W        W28474  13.002   4.905   0.473  0.1611  0.1598 -0.1861
15061W        W28475   1.947  12.768   1.876  0.2031  0.0331  0.1194
15062W        W28476   0.407   4.155  13.357  0.0594 -0.0538  0.0248
15063W        W28477  16.765  18.057  12.665  0.0346  0.2699 -0.0990
15064W        W28478  16.116  15.319  10.250 -0.1604 -0.1251 -0.1177
15065W        W28479  17.835   2.871   1.883 -0.4441  0.0823 -0.0142
15066W        W28480  16.679  15.252   2.331 -0.0021 -0.0967  0.1159
15067W        W28481  12.954  11.930   1.838  0.1901 -0.0839 -0.4004
15068W        W28482   6.463   3.259   0.380  0.0529  0.0686  0.1630
15069W        W28483   8.374   5.529   4.310 -0.3839  0.2534  0.0720
15070W        W28484   0.642  10.338   4.810 -0.1356  0.0487 -0.0545
15071W        W28485   3.290   8.173   4.014  0.0529 -0.2802 -0.1002
15072W        W28486   9.852  12.721  10.311  0.0074  0.1742  0.1481
15073W        W28487   7.310  12.947  14.582 -0.2686  0.2028  0.0456
15074W        W28488  16.305   0.628  14.600 -0.0563  0.1753  0.3860
15075W        W28489  15.881   8.830  15.752 -0.2993  0.0710 -0.0137
15076W        W28490   3.567   9.920  12.535 -0.1299  0.0622 -0.0600
15077W        W28491  14.754   0.507   4.212  0.0829  0.1028  0.0372
15078W        W28492   6.864   0.926   0.084 -0.2397  0.2117 -0.0369
15079W        W28493  14.749   5.160  11.193 -0.1653 -0.0653 -0.2163
15080W        W28494   3.974   5.295   2.472  0.2138  0.0468 -0.0006
15081W        W28495  11.951   1.967   0.995  0.0341  0.0333 -0.4375
15082W        W28496  15.887  18.515  13.920 -0.0971 -0.1767 -0.0814
15083W        W28497   2.745   4.673   5.244 -0.0194 -0.2070  0.0983
15084W        W28498  11.951   9.977   2.743  0.0541 -0.2742  0.0026
15085W        W28499   1.558  14.606   2.418  0.0677 -0.3002 -0.1855
15086W        W28500  11.271  14.994   1.670  0.2300 -0.2315  0.3216
15087W        W28501  12.180  14.621   2.844  0.3631  0.1302 -0.2391
15088W        W28502  14.064   4.352  14.771  0.0925 -0.0958  0.0699
15089W        W28503   2.569  10.786  12.993  0.1729 -0.0271 -0.1595
15090W        W28504   8.719  12.389  13.537 -0.1758  0.2768  0.2356
15091W        W28505   9.137   6.645   3.389 -0.1008  0.1014  0.3923
15092W        W28506  15.374  11.351  12.462 -0.0469 -0.0028 -0.1308
15093W        W28507   4.884  11.531  15.843  0.0855 -0.2282  0.1985
15094W        W28508   2.399  10.166  10.494 -0.1218 -0.0083  0.2630
15095W        W28509   2.687   0.521  13.512  0.1057 -0.3373  0.0798
15096W        W28510  12.684   9.140  14.838  0.0966  0.1012 -0.1066
15097W        W28511   0.118   3.830  13.196 -0.0620  0.0494  0.0254
15098W        W28512   7.761   9.382  10.543  0.0572  0.0720 -0.0688
15099W        W28513   0.252  16.367   5.064  0.1362  0.0899  0.2879
15100W        W28514   9.807   0.173  10.899 -0.0264 -0.0419 -0.0109
15101W        W28515   2.367  14.128  12.300 -0.2364 -0.1518 -0.4312
15102W        W28516  18.342   8.139  11.944  0.0277  0.1688 -0.0250
15103W        W28517   3.865  15.270   4.328  0.0180  0.0129 -0.0560
15104W        W28518  10.637   4.259   1.053  0.2898  0.1538  0.2487
15105W        W28519  12.429  17.746   2.476 -0.1020 -0.0878 -0.2096
15106W        W28520  17.074  13.583   1.013 -0.0545 -0.0677 -0.0414
15107W        W28521  15.683   9.744   4.322 -0.1181 -0.2343  0.1426
15108W        W28522  17.814  14.384  11.470  0.2052  0.1706  0.0629
15109W        W28523  16.801   1.361  10.517 -0.2490  0.0049  0.1658
15110W        W28524   1.916  17.631  15.695 -0.2215 -0.1641  0.1146
15111W        W28525  10.375  18.395  15.985  0.1895 -0.1818 -0.2064
15112W        W28526   6.223   3.727  16.020  0.0230  0.0304  0.3122
15113W        W28527   7.287   0.509   1.757 -0.1864  0.0208  0.2981
15114W        W28528   0.569   9.532   0.540  0.4519  0.0433  0.0774
15115W        W28529   0.497   6.999  12.684 -0.0756 -0.0908 -0.0545
15116W        W28530  17.819  17.835   3.573 -0.0308  0.2853 -0.0013
15117W        W28531   9.510   4.983  11.727  0.2542  0.0493 -0.0046
15118W        W28532   6.105  11.125  12.434  0.1823 -0.1781 -0.1836
15119W        W28533   1.351  14.165   2.604  0.0268 -0.1244 -0.1323
15120W        W28534  10.071   2.648   5.221  0.2927 -0.0722 -0.1533
15121W        W28535   1.757  15.060   4.447 -0.0732  0.0848 -0.2944
15122W        W28536  11.979   2.684  14.584  0.0225 -0.2401  0.2513
15123W        W28537  12.902   1.826   6.501 -0.1036  0.2260 -0.5342
15124W        W28538   4.119  12.611  11.243 -0.0285  0.2134  0.1488
15125W        W28539   8.616   9.676  10.005 -0.3419  0.0140  0.0070
15126W        W28540  14.123   8.270  15.576 -0.1207  0.3866  0.0525
15127W        W28541   0.309  10.113  11.491 -0.2237 -0.2591 -0.0307
15128W        W28542  11.090   0.977  11.824  0.0335  0.0201  0.2383
15129W        W28543   5.715  17.619  15.714  0.5089  0.2061  0.0392
15130W        W28544  15.884   3.658   4.107 -0.2569 -0.1370 -0.2956
15131W        W28545  12.884   7.278  13.153 -0.1082  0.0984 -0.1110
15132W        W28546   6.618   7.373   1.877 -0.0544  0.1500 -0.1963
15133W        W28547   1.630   6.412   3.869  0.3689 -0.1841  0.3116
15134W        W28548  15.671   8.889   1.944  0.3484  0.2697 -0.2722
15135W        W28549  12.503   3.094  11.312  0.0508 -0.1080  0.3158
15136W        W28550   9.284  15.866  11.147  0.0049  0.0650 -0.1730
15137W        W28551   2.826   5.875  12.164  0.0380 -0.0468  0.0822
15138W        W28552   5.461   5.579  12.865  0.2032  0.4474  0.1374
15139W        W28553   8.523   0.078  13.648  0.1560 -0.0541  0.2998
15140W        W28554  15.999  10.926  12.968  0.2220  0.4004 -0.1048
15141W        W28555   4.414   0.284  14.168 -0.1915  0.0986 -0.2796
15142W        W28556   4.792   9.991   4.553 -0.0425  0.2790 -0.1067
15143W        W28557  12.167   1.397  14.027  0.0309  0.1943 -0.0368
15144W        W28558   8.407  16.120   2.988  0.0623 -0.1206  0.0741
15145W        W28559  14.362  15.035  15.254 -0.0757 -0.0789  0.1562
15146W        W28560  16.063   0.243   3.695 -0.1912 -0.1372 -0.0088
15147W        W28561   4.054  10.514  15.825 -0.1171 -0.2583  0.0574
15148W        W28562  13.963   7.200   5.191  0.1354 -0.0829  0.1283
15149W        W28563  13.748   8.095  15.384  0.0220 -0.0564 -0.0609
15150W        W28564   4.174  10.841  14.141 -0.2293 -0.1266 -0.4401
15151W        W28565   4.363  14.778  11.396  0.1583 -0.2991 -0.0862
15152W        W28566   1.459   9.853  15.312 -0.0406  0.0470  0.1368
15153W        W28567   0.160   5.431  14.149  0.1066 -0.0140 -0.0508
15154W        W28568  14.305   6.046  13.393  0.1083  0.1899 -0.0201
15155W        W28569  16.699   2.871  13.369  0.0659  0.1823  0.2602
15156W        W28570   2.739   0.214   3.198  0.0544 -0.0481  0.0733
15157W        W28571   6.262   8.410  15.801  0.0186  0.0200 -0.2397
15158W        W28572   3.542   8.895   1.369  0.1053 -0.3306 -0.0614
15159W        W28573   2.503  10.013   0.450  0.2160  0.3730  0.2423
15160W        W28574   7.290   7.013  12.056 -0.1440  0.0866 -0.0197
15161W        W28575   2.441   9.815   2.707  0.0042  0.0768  0.2770
15162W        W28576   5.099  13.745   2.478  0.3436  0.1840 -0.0352
15163W        W28577   6.429  12.246   4.564 -0.1008 -0.0298 -0.1894
15164W        W28578  14.204  15.277   3.487  0.2163  0.4123  0.0211
15165W        W28579   2.173   4.497   5.914 -0.3061 -0.0669 -0.0682
15166W        W28580   4.927   8.770  15.178 -0.0957  0.0200  0.0309
15167W        W28581  10.283  13.279  13.797  0.2420 -0.2479  0.1284
15168W        W28582  13.348  15.547  11.324 -0.2179  0.0691  0.4712
15169W        W28583   7.202   9.227   4.897  0.1354  0.4420 -0.4048
15170W        W28584  17.843   3.867   1.140 -0.1345 -0.3447  0.1053
15171W        W28585  17.353  13.367  12.626  0.1502  0.1249  0.0240
15172W        W28586  12.854  18.511  14.207  0.2084  0.0703  0.1111
15173W        W28587   9.885   0.061  15.991 -0.1578  0.2482  0.1165
15174W        W28588  14.926   3.660   0.045 -0.0436 -0.0036 -0.0615
15175W        W28589   5.426  14.065   2.757  0.0209 -0.4027 -0.3397
15176W        W28590   5.128  10.117   1.307  0.1034 -0.4170 -0.1914
15177W        W28591   7.522   9.086  14.043 -0.2368  0.1772 -0.1049
15178W        W28592  14.666   5.636  12.669 -0.0993  0.0805 -0.0905
15179W        W28593  12.139  14.597  12.648 -0.1652 -0.2924 -0.3363
15180W        W28594   3.284   9.204  14.528  0.0597 -0.2102  0.2057
15181W        W28595   8.267  16.731   5.872  0.0136 -0.1068  0.0108
15182W        W28596  16.575   7.461  11.461  0.0150  0.1050  0.1149
15183W        W28597   6.419   0.623  16.212  0.0272 -0.0010 -0.2381
15184W        W28598   1.629   0.157  13.165 -0.0103  0.1009  0.2527
15185W        W28599   3.902   9.039   5.248 -0.1507 -0.0665  0.2170
15186W        W28600  10.985   8.176  13.648  0.0162  0.1958 -0.0125
15187W        W28601   2.675   6.799   1.491 -0.1938 -0.1649 -0.0074
15188W        W28602   7.461   0.873   3.083  0.2350  0.0234 -0.1381
15189W        W28603   0.356  12.175   3.180 -0.0452  0.0115  0.1385
15190W        W28604   1.859  18.394  10.843 -0.0814 -0.2885  0.2137
15191W        W28605  14.940   0.673  11.199 -0.2308  0.1549 -0.0350
15192W        W28606  10.919   1.501  15.906  0.2285 -0.0545 -0.2558
15193W        W28607  10.328  16.875  10.295 -0.3780  0.0442 -0.0458
15194W        W28608  17.951  11.632  14.021 -0.3118 -0.1489  0.2104
15195W        W28609   4.567   3.401  12.451 -0.0215  0.1269 -0.0955
15196W        W28610  13.176  15.285  13.903 -0.1486  0.0715 -0.1827
15197W        W28611   5.009   5.502   4.146 -0.2059  0.3046 -0.2062
15198W        W28612   0.937  16.762   4.005  0.5014 -0.2067 -0.3414
15199W        W28613  13.383  16.000   0.292  0.1078  0.0806  0.3847
15200W        W28614  15.046   3.341   4.677  0.5408  0.2257 -0.0548
15201W        W28615  17.018  15.963   0.735  0.2280 -0.1379 -0.1950
15202W        W28616   7.551  10.487   0.844  0.2903 -0.1902 -0.2604
15203W        W28617  15.405   9.383  11.615  0.0803 -0.1349 -0.0212
15204W        W28618  15.591  13.513  13.252 -0.0415 -0.0174 -0.0224
15205W        W28619  15.792   4.333   1.951  0.1430  0.1261  0.3723
15206W        W28620   6.985  17.973  13.120  0.0958  0.0444 -0.1652
15207W        W28621  15.771  11.737   0.467 -0.3597  0.0609  0.1063
15208W        W28622   0.988  13.768  12.557  0.1428  0.2397  0.1662
15209W        W28623   7.780   5.150  12.558  0.0372  0.0558  0.0452
15210W        W28624  18.382   7.448   0.476 -0.1782 -0.1474  0.0989
15211W        W28625  14.982  16.528  14.652 -0.0227 -0.1209  0.1199
15212W        W28626  11.036  17.286   0.972 -0.0390  0.0195  0.1238
15213W        W28627  18.169  18.118   1.021 -0.0428 -0.0536 -0.2185
15214W        W28628   1.259   7.897   0.900 -0.0670  0.2863 -0.0485
15215W        W28629  11.648  14.678  12.892  0.1907  0.0212 -0.1614
15216W        W28630   1.456   9.557   1.282  0.1971 -0.0630  0.4569
15217W        W28631   6.167  17.327   0.414 -0.1536  0.1749  0.1130
15218W        W28632  14.500   4.072   3.824 -0.0169 -0.1063  0.1404
15219W        W28633   7.107   0.828  13.884 -0.0848  0.1824  0.1856
15220W        W28634   4.315   4.340   3.464  0.0463 -0.1363 -0.1128
15221W        W28635   6.485   6.196  13.018  0.0422  0.2665  0.0108
15222W        W28636   5.224  13.683  13.579 -0.3646 -0.5859  0.0584
15223W        W28637   2.935  16.772   1.678  0.1787 -0.1399  0.0354
15224W        W28638  12.790  17.124   4.056 -0.0934  0.1507  0.0289
15225W        W28639   0.599   2.596   3.753 -0.1847 -0.0708 -0.0146
15226W        W28640   0.865  14.592  12.294  0.2661 -0.0053 -0.1327
15227W        W28641   2.781   5.800  14.048 -0.2097 -0.1200 -0.2799
15228W        W28642   0.987  13.916   3.292 -0.0111  0.0210  0.0927
15229W        W28643  17.810  13.018  12.353  0.3013 -0.3257  0.1098
15230W        W28644   4.996   4.105   4.080  0.0876 -0.0675  0.1245
15231W        W28645  12.795   1.256   4.997  0.1388  0.0023 -0.3494
15232W        W28646   6.736   3.006  14.430  0.0529  0.0672  0.0266
15233W        W28647  13.758   5.734   3.737  0.0364 -0.2370 -0.0262
15234W        W28648  10.613  11.759  15.508  0.1262 -0.1231  0.1093
15235W        W28649  17.707  10.939  10.698  0.3315 -0.1496 -0.3406
15236W        W28650   4.022  10.053  15.112 -0.3805  0.0112 -0.0301
15237W        W28651  15.844   3.106   4.642  0.1317 -0.2915  0.0066
15238W        W28652  12.174   0.329   1.950 -0.5304  0.4262  0.2784
15239W        W28653   1.121  18.109  10.985  0.2858 -0.0958 -0.1556
15240W        W28654   1.064  12.862  12.859 -0.1051 -0.0666  0.3060
15241W        W28655  11.892   2.985   4.451 -0.0946  0.0088 -0.0234
15242W        W28656   6.336  10.389   1.573  0.1826 -0.2468  0.2878
15243W        W28657  14.088  15.901   4.396 -0.0455  0.1824 -0.1942
15244W        W28658  17.266  17.641  16.223  0.4202  0.4232  0.0222
15245W        W28659   9.659  16.837   2.767 -0.1208 -0.2005  0.2439
15246W        W28660   9.136   9.333  13.300 -0.2390 -0.1852  0.2801
15247W        W28661   4.495  12.772  13.496  0.0303 -0.3094  0.1101
15248W        W28662  15.310  14.020  10.596  0.1258  0.1523  0.1126
15249W        W28663  18.187  13.614  15.070 -0.0659 -0.1837 -0.1969
15250W        W28664  16.816  11.664   0.694 -0.2291  0.1869 -0.1338
15251W        W28665  13.117   7.760  16.116 -0.0359  0.0977  0.4873
15252W        W28666   2.857   4.615   2.926 -0.1758  0.3030  0.0601
15253W        W28667   6.805   8.119  11.327 -0.5158  0.0008 -0.1347
15254W        W28668   7.228   5.485  10.683  0.2340  0.1909 -0.0180
15255W        W28669   9.386   0.963  12.781 -0.2758 -0.1327 -0.0453
15256W        W28670  18.414   9.530  13.829 -0.1277  0.0757 -0.0367
15257W        W28671   6.711   4.098  11.390  0.2483 -0.1033 -0.4441
15258W        W28672  15.143  17.253  11.768 -0.2266  0.1275 -0.1898
15259W        W28673   8.556   0.225   2.455  0.0255  0.2754  0.3970
15260W        W28674   1.310  17.385   2.239 -0.1131  0.0156 -0.0363
15261W        W28675  15.272   3.598  15.966  0.1389  0.1366  0.0351
15262W        W28676   1.584  13.265  12.960 -0.4678  0.2480 -0.2489
15263W        W28677   3.010  16.232  12.531 -0.2206  0.0458 -0.0249
15264W        W28678   5.446   0.141   2.885  0.0188  0.2122  0.2787
15265W        W28679  11.214   3.608  15.303  0.0887  0.1428 -0.3027
15266W        W28680  13.857   7.926   6.212 -0.0643  0.0079  0.1958
15267W        W28681  14.715  17.931   2.936  0.3268 -0.0118 -0.2211
15268W        W28682  11.000   9.730  14.317  0.1546  0.0596  0.2678
15269W        W28683   4.947  12.802  10.868 -0.1165  0.0888  0.1882
15270W        W28684   1.330  12.943   1.140  0.0672 -0.2840 -0.1376
15271W        W28685   2.570  10.885  15.760  0.3840 -0.2676 -0.2033
15272W        W28686  14.818  13.223   6.116  0.1273 -0.0696 -0.0422
15273W        W28687  10.219  15.048   0.221  0.2228  0.2674  0.0189
15274W        W28688   0.475   4.039  15.540 -0.1873  0.1020 -0.1385
15275W        W28689  13.579   8.064   0.042 -0.2978  0.1314  0.1355
15276W        W28690  11.901  17.309  11.134 -0.0401 -0.0526  0.2027
15277W        W28691   6.579  17.883  10.728  0.1116 -0.1631 -0.3909
15278W        W28692   6.629  11.517   5.307  0.0083 -0.3984 -0.2865
15279W        W28693  18.214  17.862   0.627  0.0862  0.0824  0.1041
15280W        W28694   2.655  15.734   5.735  0.3609  0.2324 -0.0886
15281W        W28695  15.328  16.509  11.233  0.3975 -0.0684  0.0111
15282W        W28696   6.086   3.592   0.290  0.2420  0.1708  0.1341
15283W        W28697  13.798  11.648  10.646  0.0833 -0.2056 -0.0207
15284W        W28698   9.980  16.574  11.988  0.1423  0.0920  0.1677
15285W        W28699  12.854   9.639  10.515 -0.1020  0.0050 -0.1277
15286W        W28700   7.454  13.231  16.221 -0.1809  0.0267  0.3063
15287W        W28701   0.179  17.180   5.697  0.2942  0.3329  0.2693
15288W        W28702  14.230   6.777  11.615 -0.0134  0.2320  0.0389
15289W        W28703   1.326  15.237  13.473  0.1170  0.2882  0.2734
15290W        W28704   0.670  13.199  10.491 -0.0309  0.1158 -0.0065
15291W        W28705   1.203  12.929  10.894  0.2157  0.3064  0.3710
15292W        W28706  15.444   5.909  12.205  0.0194 -0.1218  0.0768
15293W        W28707  17.444   9.757  10.935  0.5051 -0.3048 -0.1718
15294W        W28708  11.442  13.794  14.614  0.1672  0.0412 -0.0207
15295W        W28709  18.302   2.471  13.673  0.1546  0.2468 -0.4764
15296W        W28710  10.559  10.656  13.514  0.1572  0.2291  0.0801
15297W        W28711   0.305   5.331   4.617 -0.3116 -0.1438  0.0670
15298W        W28712   4.311  16.478   1.017 -0.0376 -0.2587 -0.0358
15299W        W28713  10.158  18.453   4.058  0.4694 -0.0835  0.0496
15300W        W28714   9.929   8.051   1.027 -0.0731 -0.1148 -0.0956
15301W        W28715  17.464  17.517  12.904  0.1002 -0.1498  0.2186
15302W        W28716   0.396  12.827   1.838  0.0240 -0.1041  0.1385
15303W        W28717  14.680   4.873  11.704  0.1094  0.1734  0.1796
15304W        W28718  10.364   7.877  13.451 -0.2202  0.0222 -0.1874
15305W        W28719   7.660   0.185   1.095  0.1655 -0.1645 -0.3066
15306W        W28720   5.138   6.407  12.989 -0.3984  0.1264  0.1069
15307W        W28721  18.260   3.462  11.843  0.0261  0.0602  0.0872
15308W        W28722  14.304  16.635   0.642 -0.1668  0.1679 -0.0243
15309W        W28723  12.758   2.912   6.463 -0.1981  0.2842 -0.0547
15310W        W28724   2.117  13.559  12.225 -0.1345  0.2292  0.4899
15311W        W28725  11.149   2.960   3.769 -0.0227 -0.0558 -0.3160
15312W        W28726  17.047  17.506   2.375 -0.0647  0.2040 -0.0920
15313W        W28727   0.751   5.918   5.598 -0.0141  0.2238 -0.1071
15314W        W28728   5.403  13.678  16.171 -0.0788 -0.2059 -0.1303
15315W        W28729   2.390   1.222  13.149 -0.2600  0.1406 -0.4450
15316W        W28730  14.386   3.373  12.602 -0.0388  0.4870  0.2275
15317W        W28731   6.890   5.987  13.788  0.0586  0.1063 -0.1248
15318W        W28732  18.144   7.327   5.362  0.1444 -0.2093  0.1004
15319W        W28733   2.493   3.465   6.693  0.0184  0.0982  0.2178
15320W        W28734   7.162   2.811   2.955  0.1149 -0.0979  0.1674
15321W        W28735   9.302   2.282   3.245 -0.1372 -0.0010  0.0319
15322W        W28736  18.034  18.293   5.215  0.1384 -0.0113 -0.2265
15323W        W28737   8.081  15.775  13.495 -0.1304 -0.0853  0.3075
15324W        W28738   8.291   9.409   4.228  0.1349  0.0775  0.0452
15325W        W28739   4.089   1.156  10.779  0.2450  0.3066 -0.0571
15326W        W28740  14.936   5.425   4.061 -0.3096  0.1194  0.1249
15327W        W28741  16.486   4.394   2.744 -0.1686 -0.0955 -0.1598
15328W        W28742  16.024   5.179  12.035 -0.2973  0.2237 -0.1660
15329W        W28743  12.843   3.460   1.179  0.1573  0.1260  0.1048
15330W        W28744   3.470  10.684   0.946 -0.2362 -0.0431  0.1976
15331W        W28745  18.137  11.873  12.488  0.0154  0.0508  0.3249
15332W        W28746   0.019   4.460   1.051  0.0646  0.1260 -0.1868
15333W        W28747  18.004  15.581   3.688 -0.2917 -0.1623  0.0609
15334W        W28748   8.177   8.753   2.141 -0.0203  0.1011 -0.0062
15335W        W28749  17.226  10.946   3.898  0.1399 -0.0938  0.0258
15336W        W28750  11.133  11.246  15.005 -0.1565  0.0475  0.1487
15337W        W28751   8.541  17.947   4.814  0.2038  0.0812 -0.2873
15338W        W28752  15.132  14.714   5.447  0.2906  0.0034 -0.0935
15339W        W28753   8.507   6.806  15.520  0.1969 -0.3069  0.1239
15340W        W28754  15.818  14.175   5.486  0.1119  0.0872 -0.1439
15341W        W28755   0.764   7.562   0.466 -0.2078 -0.1574  0.1888
15342W        W28756   2.639   0.551  10.960 -0.0273 -0.1272  0.4671
15343W        W28757   5.247   6.058   1.581  0.1605 -0.3355 -0.1571
15344W        W28758   4.868   7.231   3.535  0.0464 -0.0052  0.2324
15345W        W28759   4.979  15.159  15.378 -0.0532 -0.0660  0.1455
15346W        W28760  15.853   8.591   2.305  0.2700  0.1993 -0.0602
15347W        W28761  13.803   6.618   1.344  0.1053 -0.1619  0.2766
15348W        W28762   8.494  15.331   2.077 -0.1864  0.2846 -0.1748
15349W        W28763  17.444   6.464   3.659  0.1103  0.0659 -0.2030
15350W        W28764  14.121   6.345   2.848 -0.2146  0.0172 -0.0261
15351W        W28765  18.256  15.936   1.535  0.0554 -0.2645 -0.1767
15352W        W28766  14.278   6.816  14.315 -0.1793  0.2111  0.2011
15353W        W28767  16.597   7.143   6.509 -0.3804  0.1710 -0.1303
15354W        W28768   2.913  17.323  12.027 -0.0254 -0.1913  0.0713
15355W        W28769   5.878  16.070   0.376  0.1956 -0.0058  0.0758
15356W        W28770   2.542   0.631  14.242 -0.1234  0.0217  0.0956
15357W        W28771   5.622   7.261  12.371  0.0781 -0.0679  0.0118
15358W        W28772  11.542   8.802   1.741  0.2111 -0.1572  0.0113
15359W        W28773   0.076  13.655   3.427  0.0105  0.2042  0.0045
15360W        W28774   8.778   4.378   1.903 -0.0745 -0.0330  0.1770
15361W        W28775   3.285   3.439   2.343 -0.0607  0.2143  0.1194
15362W        W28776   2.060  11.712  13.683 -0.0117 -0.0098 -0.0585
15363W        W28777   1.487   6.044  10.764 -0.2256 -0.0053  0.1281
15364W        W28778   6.349   5.795  11.577 -0.1632 -0.1558 -0.0978
15365W        W28779  14.213  13.288  15.023 -0.0047  0.1380  0.1924
15366W        W28780  14.231  16.265  12.145 -0.1112 -0.1713 -0.1615
15367W        W28781   0.798   3.708   2.171 -0.0126 -0.0845  0.1682
15368W        W28782   5.249   3.014   4.131  0.0388  0.1199  0.1979
15369W        W28783  11.962   9.597   1.620  0.0267 -0.1628 -0.0108
15370W        W28784  16.117   1.726  14.047  0.1277 -0.0894  0.0824
15371W        W28785   1.937   7.382   1.306  0.1288 -0.0660 -0.0259
15372W        W28786  12.801   4.928   5.731  0.1408  0.0503  0.0019
15373W        W28787   9.902  14.861  11.775 -0.2206 -0.1960  0.3228
15374W        W28788  15.447  18.462   1.769 -0.3827  0.2006  0.5817
15375W        W28789   3.461  11.485  12.774  0.1579 -0.0335 -0.2953
15376W        W28790  14.550   4.467   1.121  0.3552  0.3137 -0.2289
15377W        W28791  15.440  17.212   3.523  0.0162  0.1461  0.1618
15378W        W28792   5.369  11.277  11.143 -0.1044 -0.0880  0.0066
15379W        W28793   8.463  12.916  15.431 -0.3393 -0.1426  0.0547
15380W        W28794  17.118  14.106   4.381 -0.2844  0.1645 -0.2402
15381W        W28795  13.312   8.945  12.306 -0.3232  0.2107  0.2868
15382W        W28796  12.595  13.737  13.042  0.0084  0.1305  0.1354
15383W        W28797  16.018   0.928  16.094 -0.0282  0.3001  0.1748
15384W        W28798   2.803   2.176  11.684 -0.3204 -0.2555 -0.1661
15385W        W28799   4.818   2.566  11.722 -0.0764 -0.0621 -0.0589
15386W        W28800  10.489   7.560  14.762 -0.1090  0.0318  0.1557
15387W        W28801   9.961  14.533  13.622  0.0252 -0.1933  0.2663
15388W        W28802  15.218   5.928   5.083  0.3946  0.1762 -0.2059
15389W        W28803  14.221   0.399  16.230  0.3666 -0.0676  0.0480
15390W        W28804  16.335   0.778   3.123  0.1666 -0.3384 -0.1316
15391W        W28805  10.408  15.018  12.280  0.0082 -0.1940 -0.0795
15392W        W28806  11.287  10.709   4.435 -0.0851 -0.3007  0.1992
15393W        W28807  10.602   5.444   4.019  0.1494 -0.4010  0.2228
15394W        W28808   9.958   4.009  11.382 -0.3998 -0.1142 -0.0396
15395W        W28809   3.885   0.993  15.213  0.1755 -0.1261  0.0797
15396W        W28810   3.590   2.097   2.459  0.0817  0.1387 -0.2327
15397W        W28811   3.967   3.498   3.845  0.1764  0.1014 -0.0362
15398W        W28812  18.332   1.005   3.391 -0.2845 -0.0097 -0.0745
15399W        W28813   7.171  14.223   4.122  0.0725 -0.2791  0.0524
15400W        W28814   5.090  12.749   2.818 -0.0763  0.0508  0.0814
15401W        W28815   6.422  10.536  14.688 -0.1222 -0.2768 -0.1520
15402W        W28816   0.301  17.748  13.717  0.0672  0.1988  0.1801
15403W        W28817   0.592  12.602   5.627 -0.0877 -0.0678 -0.0649
15404W        W28818   9.671   9.034   3.593  0.0389 -0.5331 -0.1556
15405W        W28819  10.859  11.963   2.517  0.2050 -0.1884 -0.1227
15406W        W28820   0.141   9.306   3.136 -0.0222  0.1229 -0.0887
15407W        W28821  16.606  14.180   0.280  0.0003 -0.0944  0.1018
15408W        W28822  10.517   3.307   0.941  0.2113 -0.0650 -0.3716
15409W        W28823   6.191  11.139  14.094 -0.0745 -0.0749  0.1042
15410W        W28824  17.807  11.302  13.157 -0.2006 -0.0823  0.0239
15411W        W28825  15.250   1.488   5.672 -0.0977  0.4121 -0.0251
15412W        W28826   2.390  12.596   5.749 -0.0233 -0.2841 -0.4765
15413W        W28827   4.622   8.920   1.993  0.0640 -0.0526 -0.0170
15414W        W28828   0.332   8.265  11.929 -0.0297 -0.2222 -0.1300
15415W        W28829   0.122   2.266   1.665  0.2240 -0.0899 -0.1141
15416W        W28830  10.318   9.861  14.891  0.1718 -0.0349  0.1001
15417W        W28831   5.338  14.842   5.442  0.2066 -0.1965 -0.2210
15418W        W28832  16.882  17.482   4.447 -0.0353 -0.1790 -0.2214
15419W        W28833  17.180   6.099   1.147 -0.1544 -0.0662  0.3808
15420W        W28834  18.228  10.592   2.793  0.0198  0.1655 -0.0421
15421W        W28835   1.011  12.703   4.456 -0.2110  0.0069  0.2209
15422W        W28836  15.727   1.788  15.733 -0.2010  0.1376  0.2231
15423W        W28837   0.145   8.040  11.466 -0.0406 -0.1491 -0.0013
15424W        W28838  15.039  10.767   5.539 -0.3581  0.2447  0.1586
15425W        W28839   4.542   1.971  13.731  0.0657  0.0124 -0.0348
15426W        W28840   8.117   7.302   1.584 -0.3124 -0.3507 -0.2448
15427W        W28841  10.578  16.669   9.904 -0.1996  0.0870  0.0437
15428W        W28842   5.492   9.502   5.493 -0.2938 -0.1135  0.0063
15429W        W28843   2.475   9.716  13.709 -0.1539 -0.0902 -0.0055
15430W        W28844  14.152   8.306  11.597  0.0189  0.0891  0.0907
15431W        W28845   3.249  13.382  14.626 -0.1210 -0.0791  0.1048
15432W        W28846   2.054  14.348   0.957  0.0442  0.2013 -0.2894
15433W        W28847  14.775  13.904  13.545 -0.2334  0.2238  0.1046
15434W        W28848  15.836  16.460  11.459  0.0982  0.1505 -0.0732
15435W        W28849  13.418  17.870   3.637 -0.1691  0.3039 -0.0051
15436W        W28850   5.168  17.524   4.607 -0.0076  0.2924 -0.4038
15437W        W28851   3.043   8.652   0.614  0.2453  0.3594  0.1236
15438W        W28852   9.221   1.671   4.435  0.3276  0.0316 -0.2304
15439W        W28853   3.240  17.893   0.857  0.0423 -0.2072 -0.0864
15440W        W28854  12.001   6.479   3.238  0.1523  0.2179 -0.0721
15441W        W28855  16.745   8.730   0.400  0.2409  0.0111  0.0622
15442W        W28856   5.018   9.834  15.810 -0.1838 -0.0247  0.3225
15443W        W28857  12.793   3.063   3.235 -0.2586  0.4580  0.2872
15444W        W28858   0.731  18.043   3.838 -0.1229  0.0280  0.2981
15445W        W28859   7.961   5.402   4.626  0.2262 -0.0702  0.0171
15446W        W28860   9.692  16.006  12.435 -0.0309 -0.0004  0.2448
15447W        W28861  14.404  17.565  14.399 -0.2036  0.4994  0.1491
15448W        W28862  11.762   6.862  14.865 -0.0911  0.1188  0.1114
15449W        W28863  15.852  17.947  13.077 -0.3269  0.2803 -0.1098
15450W        W28864  18.280   4.297   4.125 -0.0901 -0.0597  0.2296
15451W        W28865   2.774  14.794  13.018 -0.1551 -0.0563  0.2230
15452W        W28866   9.344  14.994  16.122  0.1018  0.4844  0.0434
15453W        W28867   7.742  12.379  13.112  0.2167  0.1321  0.1903
15454W        W28868  10.021   7.078   6.847  0.0734 -0.1199 -0.1216
15455W        W28869  15.963   9.309  15.602  0.0557  0.0847 -0.0850
15456W        W28870   4.317   0.221  16.086 -0.1346 -0.0811 -0.0009
15457W        W28871   4.837   3.060  11.690 -0.0579 -0.0014 -0.2933
15458W        W28872   9.507  16.382   5.010  0.0138  0.1031 -0.2334
15459W        W28873   5.198   3.750   1.470 -0.3410 -0.0449 -0.1672
15460W        W28874   1.382   4.199  10.843  0.1605 -0.1868 -0.0390
15461W        W28875   8.197   7.943  14.031  0.1529 -0.2465 -0.2412
15462W        W28876   0.693   9.750   1.837 -0.1660 -0.1652  0.3941
15463W        W28877   6.933  11.609   3.024 -0.2202  0.1647  0.3725
15464W        W28878   8.720   2.182  12.250 -0.0622 -0.1349  0.4762
15465W        W28879  13.900   8.897   3.796  0.2975  0.0646 -0.2255
15466W        W28880   4.123  17.578   3.629 -0.0398 -0.1780  0.1395
15467W        W28881  11.444   7.520   5.230 -0.0840 -0.0877 -0.0334
15468W        W28882  17.941   6.412   0.499  0.0001 -0.0935 -0.1266
15469W        W28883  14.000  11.955  12.415 -0.3220  0.0101 -0.1345
15470W        W28884   0.728   0.915   0.428  0.1561  0.2551  0.2557
15471W        W28885  18.185  17.004  14.918  0.0845  0.1163 -0.2094
15472W        W28886  14.040   6.890   6.047  0.0469  0.1475  0.3123
15473W        W28887  13.516  11.741   2.144 -0.0265  0.0612 -0.0179
15474W        W28888  17.898  15.326  12.616 -0.0288  0.0917 -0.2257
15475W        W28889  14.382  14.975  12.499  0.2531 -0.1462 -0.1362
15476W        W28890   5.629   1.108  15.736 -0.3481  0.1092  0.4078
15477W        W28891  15.376   4.999  14.786 -0.0675 -0.1029  0.2403
15478W        W28892  17.759   8.648   5.622  0.6974  0.3482 -0.0142
15479W        W28893   3.449   3.274   3.210  0.0194 -0.1331 -0.3565
15480W        W28894   6.216   1.992   4.966  0.1179  0.1466  0.3183
15481W        W28895   7.015  14.500   9.927 -0.1608  0.0013 -0.0534
15482W        W28896  16.923  12.921   6.048  0.1283 -0.1299  0.1788
15483W        W28897  16.843   5.878   4.489 -0.0194  0.1250 -0.1465
15484W        W28898  11.096   3.036   1.046  0.2203  0.0707  0.0900
15485W        W28899  14.129   2.868  13.957  0.0954 -0.0180 -0.0332
15486W        W28900  15.047  12.879   0.899  0.2587  0.4145 -0.0155
15487W        W28901  16.232   2.966   4.233 -0.0821 -0.1245 -0.0696
15488W        W28902   3.212  14.853  13.986  0.1473 -0.0315  0.2104
15489W        W28903   1.220  13.228   3.115  0.4528 -0.3644 -0.0538
15490W        W28904   2.007   3.773  14.163 -0.1151  0.2181 -0.0924
15491W        W28905   5.293   3.298   1.977  0.1912 -0.1660 -0.0054
15492W        W28906   7.661  18.154  14.914 -0.2712 -0.2489  0.1229
15493W        W28907   2.521  10.242  14.943  0.0787 -0.0593  0.2256
15494W        W28908   5.292   5.511  12.420 -0.0372 -0.1273  0.1406
15495W        W28909   7.388  17.030   6.295 -0.4273  0.1477 -0.1256
15496W        W28910  12.507   8.719   0.094  0.5093  0.0372 -0.0278
15497W        W28911   5.920  13.547   1.524  0.1527 -0.4625 -0.0218
15498W        W28912   2.753  11.500  13.753 -0.1811 -0.1406 -0.2441
15499W        W28913  16.654   1.861  15.569 -0.0640 -0.2148  0.0338
15500W        W28914   6.319  13.622   4.270 -0.1822 -0.1932  0.1412
15501W        W28915   7.756   2.591   5.411 -0.0452  0.1715 -0.0746
15502W        W28916   6.834   4.169  10.460  0.1575  0.1805 -0.1444
15503W        W28917   6.734   5.072   1.181 -0.2380  0.2369 -0.0611
15504W        W28918   2.895   2.515   3.247 -0.0800  0.0078 -0.2263
15505W        W28919  15.062  12.463  13.389 -0.1100 -0.2122 -0.1725
15506W        W28920  17.531  12.951   3.127 -0.0837  0.1717 -0.0595
15507W        W28921  10.799   0.527  12.505  0.1610  0.2271  0.2901
15508W        W28922   2.706  16.078   2.364  0.3050 -0.1268  0.2074
15509W        W28923   7.576  16.935  14.922  0.1563  0.1664 -0.3952
15510W        W28924  16.869  12.486   4.472  0.4083  0.2841 -0.2034
15511W        W28925   0.026  12.420  14.584  0.3183  0.1692 -0.0331
15512W        W28926   9.042   4.982  14.946 -0.0567 -0.0532  0.1596
15513W        W28927  18.018   7.651  12.087 -0.0322  0.1869 -0.1196
15514W        W28928   3.847  16.711   0.483 -0.1725  0.2237  0.2984
15515W        W28929   0.074  12.189  11.733  0.1403 -0.1574  0.0965
15516W        W28930   4.418  11.842  15.048  0.2132 -0.0113 -0.0176
15517W        W28931   6.259  13.884  12.651  0.3363  0.1512 -0.0790
15518W        W28932   5.082   3.025  14.832 -0.0330 -0.0486  0.1142
15519W        W28933  15.506   8.328  10.706 -0.1423  0.2112 -0.0654
15520W        W28934   4.832   9.169   1.658  0.3671  0.1223  0.1348
15521W        W28935   0.718  18.322  14.408  0.0143  0.3083 -0.0213
15522W        W28936  15.628  15.870  14.227 -0.0830  0.3060 -0.0321
15523W        W28937   1.378  17.358   3.325 -0.2931 -0.1295 -0.0613
15524W        W28938  15.398   1.385  15.524 -0.2273  0.1361  0.0122
15525W        W28939  16.941   6.315   3.669 -0.1804 -0.2416  0.3520
15526W        W28940  11.186   3.551  13.507  0.2781 -0.0916  0.0010
15527W        W28941  16.292  11.605  12.596 -0.1625  0.1002 -0.0829
15528W        W28942  17.270  15.145  10.963 -0.1451  0.0243  0.0652
15529W        W28943  18.454  14.074  13.906  0.2344  0.3216  0.1068
15530W        W28944   5.579   6.287   0.579  0.1355  0.1995 -0.1702
15531W        W28945  17.606   7.173   1.716 -0.0817 -0.0637  0.3712
15532W        W28946  11.887   1.102   4.934 -0.2675 -0.2546 -0.1738
15533W        W28947  14.580  13.551   2.775 -0.3444  0.2012  0.1540
15534W        W28948   2.051  17.296  13.217  0.0164  0.0036  0.2764
15535W        W28949   4.602   8.214   3.780  0.2455 -0.2550  0.0857
15536W        W28950  18.228   6.067   3.747 -0.0234  0.1586  0.0653
15537W        W28951  16.929   1.517   3.377  0.1473  0.1999  0.2248
15538W        W28952  11.644   8.333   3.232  0.1885  0.1621 -0.2069
15539W        W28953  12.088   4.525  11.513 -0.2952  0.4630  0.0009
15540W        W28954   2.071  17.459   2.845 -0.0509 -0.1338  0.3380
15541W        W28955  17.852  16.350   6.104 -0.3999 -0.2067  0.0735
15542W        W28956   2.012  13.799   2.790 -0.0883 -0.0234  0.1935
15543W        W28957  10.491   5.848  14.362  0.2427 -0.0641 -0.1499
15544W        W28958  13.500  15.464   5.375 -0.0678  0.2527  0.1432
15545W        W28959   5.670  16.927   3.394 -0.2619 -0.0496 -0.1588
15546W        W28960  10.199   2.401  13.824  0.1754  0.0616 -0.0625
15547W        W28961   4.659  11.553  13.458 -0.3082 -0.1116 -0.0226
15548W        W28962  18.150  13.657   2.097 -0.0416 -0.0687 -0.1858
15549W        W28963  12.765   9.597  11.033 -0.4301  0.1778  0.2062
15550W        W28964   5.474  10.700  12.946 -0.4272  0.1411 -0.0073
15551W        W28965  11.908  17.669   0.693 -0.1189  0.0183 -0.1386
15552W        W28966   5.398  16.265  15.201  0.0723 -0.1052  0.0706
15553W        W28967   0.283   4.345  10.795  0.0910 -0.4466  0.0300
15554W        W28968  11.734   6.707   0.250  0.1060  0.1709 -0.2006
15555W        W28969   8.260  14.112  13.361  0.2110 -0.0813  0.1446
15556W        W28970   6.684   5.624   3.259 -0.1254  0.2117  0.1601
15557W        W28971  18.093  15.635   2.784  0.1557 -0.1960 -0.3341
15558W        W28972  13.527   6.227   0.278  0.3636 -0.0053  0.1985
15559W        W28973   5.695   8.498   0.889 -0.0899 -0.3472 -0.3544
15560W        W28974  17.530  11.169  12.108 -0.4192  0.2716  0.0999
15561W        W28975   2.573   6.292   1.136 -0.1555 -0.2713 -0.1355
15562W        W28976  15.245   1.269   0.308  0.0949 -0.1937  0.0742
15563W        W28977   6.410  16.818  10.100  0.0306 -0.0434 -0.1216
15564W        W28978   3.969  18.418   1.079 -0.0535  0.3038 -0.0250
15565W        W28979  15.675   9.913   4.874 -0.3867  0.1579 -0.2126
15566W        W28980  18.163  12.811  10.766  0.0591 -0.0911  0.2397
15567W        W28981   0.137   8.015   2.960  0.0988 -0.0577 -0.2995
15568W        W28982   8.000   4.754  13.356 -0.0946 -0.1476 -0.0338
15569W        W28983   2.227   2.017   3.560  0.2176  0.0001 -0.2175
15570W        W28984   5.874  10.081   2.470 -0.0926  0.3994 -0.0053
15571W        W28985  11.234  17.584  12.304  0.1749 -0.0926 -0.0607
15572W        W28986  17.334  15.921   3.888 -0.0917  0.2442  0.0695
15573W        W28987   2.473   9.047  14.269  0.1056  0.0599  0.1225
15574W        W28988  12.361   7.275  11.625 -0.1518  0.1257 -0.0368
15575W        W28989   0.232   8.916  16.223  0.0994 -0.2482  0.2167
15576W        W28990   3.312  15.055  14.429  0.0920 -0.0126 -0.0770
15577W        W28991  10.880  13.008  10.357 -0.2306 -0.2447  0.1357
15578W        W28992  13.471  13.011  16.090  0.0893  0.0802 -0.0864
15579W        W28993  10.232  11.230   4.404 -0.2887 -0.1569  0.2391
15580W        W28994  12.557   3.769  15.540  0.0267  0.0164  0.2964
15581W        W28995   9.487  17.160  16.179 -0.0928 -0.2664  0.0061
15582W        W28996   3.722  14.650   2.382  0.0278 -0.0858 -0.1416
15583W        W28997   8.165  11.364  11.697  0.0265  0.2937  0.0394
15584W        W28998   1.263   3.821  10.411  0.1383 -0.0810  0.1265
15585W        W28999   5.238   4.558  13.303  0.0719  0.1055 -0.1937
15586W        W29000  11.518  11.641   1.166 -0.1357  0.3201  0.0479
15587W        W29001   1.069   8.490   3.912  0.0383 -0.0237  0.0300
15588W        W29002   1.492   7.180  10.499  0.0178 -0.0443 -0.0736
15589W        W29003  13.035  15.956   0.680  0.0065 -0.0775 -0.3430
15590W        W29004   0.793  13.843  12.121 -0.1366 -0.0668  0.2799
15591W        W29005   3.840  10.357  12.483  0.0818 -0.1580 -0.2817
15592W        W29006   3.760   0.197   0.633  0.0638  0.0848  0.3203
15593W        W29007  15.439   2.259   2.912 -0.1261 -0.0559 -0.1456
15594W        W29008   6.006   5.166  12.425  0.4107  0.1498  0.0700
15595W        W29009   3.306  16.704   4.222  0.1686  0.1197  0.0386
15596W        W29010  11.053  17.678  10.863  0.0736  0.0368 -0.4571
15597W        W29011  16.353   9.661   5.523  0.0093  0.0101  0.1911
15598W        W29012  11.355   2.633  11.170 -0.0648  0.0022  0.0634
15599W        W29013   4.080   2.397   1.570  0.0356 -0.1195 -0.0324
15600W        W29014  12.450   0.964  12.741  0.2463 -0.1920 -0.1759
15601W        W29015  11.858   2.084   2.961  0.0834  0.2469 -0.1378
15602W        W29016   0.152   0.452   2.514 -0.0843  0.0101 -0.0112
15603W        W29017   2.890  12.735   0.152  0.0135 -0.1364 -0.0898
15604W        W29018   7.658   6.315  10.531 -0.2428  0.1940 -0.1898
15605W        W29019  13.468   1.501   4.881 -0.3006  0.0125 -0.2943
15606W        W29020  15.542   6.854  12.615 -0.1007 -0.0500  0.0798
15607W        W29021   8.496  11.219  14.674  0.1490  0.1358 -0.1189
15608W        W29022   7.227  13.383   1.902 -0.2496  0.2299  0.0624
15609W        W29023   5.686   5.078   4.416 -0.1293  0.0736 -0.0913
15610W        W29024  10.918  10.302  13.258 -0.2588 -0.1983 -0.3179
15611W        W29025  17.360   6.566   1.046 -0.2315 -0.0199 -0.2056
15612W        W29026   1.830   3.151   3.964  0.5160 -0.0150 -0.0008
15613W        W29027  15.319  17.501  14.997  0.0860 -0.1395  0.0690
15614W        W29028  16.596   6.674  14.562  0.0808  0.2921  0.1082
15615W        W29029  16.166   6.834   5.180  0.0215 -0.1282 -0.0915
15616W        W29030   4.280   3.389   4.269  0.0198  0.1523 -0.1553
15617W        W29031  12.231   5.091  14.263 -0.2299  0.0214 -0.0451
15618W        W29032  17.862  17.556  11.027  0.0550 -0.1958  0.1134
15619W        W29033  12.697   0.816  14.064 -0.1943  0.0916  0.3513
15620W        W29034   9.031   8.893   3.473  0.1639  0.0805 -0.0821
15621W        W29035   4.272  12.909  15.296 -0.1221 -0.2557 -0.1334
15622W        W29036  11.214   2.571   3.174 -0.2757  0.1441  0.0119
15623W        W29037  17.249   8.644  11.633 -0.1432  0.1464  0.2273
15624W        W29038   7.213   7.766   4.804  0.0493 -0.0479  0.0764
15625W        W29039   8.621   1.141  12.751  0.2790 -0.0461 -0.3664
15626W        W29040   8.143   0.927   1.064 -0.1835 -0.0821 -0.1151
15627W        W29041  12.828   2.874  11.579 -0.0140  0.0581  0.0887
15628W        W29042   6.824   7.596   3.979 -0.0010 -0.0189 -0.1760
15629W        W29043  11.575  15.704   9.808  0.2142 -0.1391 -0.0551
15630W        W29044   0.621  14.609  12.830 -0.1645 -0.0111  0.0070
15631W        W29045   1.850  17.578   3.297  0.0085  0.0621  0.1120
15632W        W29046   9.571  15.681  15.435  0.2937 -0.2766  0.2297
15633W        W29047   3.694  15.991  10.398 -0.2403  0.0570  0.0840
15634W        W29048  18.030  14.937   5.728 -0.1680 -0.2705 -0.2333
15635W        W29049  16.060  16.534   2.381 -0.0063  0.0548 -0.0550
15636W        W29050   0.362   9.879   1.010 -0.0988 -0.3245  0.3593
15637W        W29051   6.731   5.443  10.824 -0.1163  0.1864  0.3003
15638W        W29052  16.444  11.922   1.675 -0.1788  0.0152  0.1459
15639W        W29053   8.653  15.793  14.765 -0.0460 -0.1108 -0.1603
15640W        W29054  11.019   9.616   1.798  0.2577 -0.0356 -0.0241
15641W        W29055   9.014  18.399   0.418  0.2790  0.0328  0.1145
15642W        W29056   0.815  18.111   6.037 -0.1457  0.0028 -0.0251
15643W        W29057  15.291   1.646  16.015 -0.2977  0.0332  0.0210
15644W        W29058  18.496  14.799  12.223  0.2372 -0.1575  0.1012
15645W        W29059   4.633  12.726   4.523 -0.1153  0.0370 -0.1304
15646W        W29060   2.394   2.872   0.841 -0.1761 -0.0211  0.1798
15647W        W29061   3.318  13.796  10.457 -0.2024  0.2705 -0.0784
15648W        W29062   5.649   8.928  13.245 -0.1323 -0.3197 -0.0021
15649W        W29063   2.146   1.283  10.822  0.0770 -0.1417  0.0843
15650W        W29064  11.047   9.358   2.913  0.1950 -0.0548  0.0662
15651W        W29065  15.355  18.329  15.702 -0.2508  0.1567 -0.2225
15652W        W29066   0.840  13.610  10.698 -0.0138 -0.0873 -0.0534
15653W        W29067   1.208  14.904   1.459  0.0500 -0.0876  0.2838
15654W        W29068  13.042  18.041  11.109  0.0868  0.1942  0.1154
15655W        W29069  18.520  17.756   3.154 -0.1751 -0.0758  0.0293
15656W        W29070   6.135  11.933   4.135  0.0445 -0.0506  0.0619
15657W        W29071  10.877  10.972  13.860  0.1057  0.1334  0.3067
15658W        W29072  16.295   9.007   0.240  0.0175  0.2701  0.0740
15659W        W29073  11.924  14.345   5.119 -0.2097  0.1573  0.1663
15660W        W29074  14.095  10.698  11.993  0.3520  0.3740  0.2108
15661W        W29075  18.273   5.715  11.973  0.4159 -0.0435  0.0502
15662W        W29076  15.316  14.691  11.909  0.3032 -0.2409 -0.1512
15663W        W29077   4.402   6.135  13.411  0.0745 -0.1381  0.0837
15664W        W29078  15.185   4.337   5.207 -0.2778  0.0017  0.2636
15665W        W29079  12.992   4.193   5.341  0.0421 -0.1478  0.0636
15666W        W29080   1.681  13.027   5.522 -0.2087  0.2050 -0.1356
15667W        W29081  15.982   6.366  15.975  0.1824  0.1269 -0.0186
15668W        W29082  11.935   4.587  16.089  0.0086  0.2013 -0.2545
15669W        W29083   4.971   0.685   6.620  0.0680  0.2216  0.0647
15670W        W29084  13.565  17.650   4.862 -0.0195  0.3755 -0.1517
15671W        W29085  11.906  10.327  11.367 -0.0341 -0.1944  0.2106
15672W        W29086   7.258   8.544  12.572 -0.0830 -0.2776 -0.0581
15673W        W29087   5.769  13.090  10.497 -0.1664  0.5821  0.1610
15674W        W29088  12.386  11.070   3.934  0.1210  0.2132 -0.3042
15675W        W29089   6.736   4.387  12.271 -0.0939  0.2479  0.0145
15676W        W29090  15.068   4.205  16.259  0.0784  0.0654 -0.0231
15677W        W29091   2.484  17.482   2.110  0.0662 -0.0355 -0.1001
15678W        W29092   5.625   6.186   1.982  0.1786 -0.0317  0.2221
15679W        W29093   1.369   3.661   4.665  0.0254 -0.0910  0.0275
15680W        W29094  12.185   8.128   4.730  0.0222  0.3248  0.1316
15681W        W29095  13.775   6.372  16.117  0.0526 -0.0782 -0.3850
15682W        W29096   9.429  11.063   3.022  0.0442  0.1021  0.0384
15683W        W29097   9.789   2.332  14.719 -0.1375 -0.0174 -0.0263
15684W        W29098   3.099  16.904   5.406  0.0460 -0.2247  0.0174
15685W        W29099   7.922  11.765   3.417 -0.3314 -0.2041  0.1050
15686W        W29100   7.784   3.978  16.055  0.0052 -0.3337 -0.1835
15687W        W29101   1.739   9.484  14.463  0.0714 -0.1026 -0.1544
15688W        W29102  16.120   4.187  10.391  0.1384  0.0583 -0.2909
15689W        W29103  14.219  12.655   5.496 -0.3669  0.0216  0.2343
15690W        W29104  10.134  13.359   4.282 -0.2768  0.2450 -0.1109
15691W        W29105   1.587   4.091  13.052 -0.1407 -0.1248  0.0678
15692W        W29106   2.665   7.360  11.911 -0.0352  0.1258 -0.1940
15693W        W29107  16.669   8.507   3.968 -0.0669 -0.5189 -0.3128
15694W        W29108   0.009  15.742   3.026 -0.0312  0.2669 -0.3001
15695W        W29109  17.395  10.295  12.045  0.0261 -0.2147  0.4679
15696W        W29110   9.083   1.317  13.577  0.0166  0.1009 -0.2366
15697W        W29111   4.576   0.393  15.613  0.0626  0.1449 -0.2913
15698W        W29112  18.508   3.601   3.488 -0.2948 -0.2835  0.0891
15699W        W29113   7.677   7.994  14.146 -0.0655  0.2058  0.2936
15700W        W29114  11.065   8.814  15.488  0.1819  0.1681 -0.1051
15701W        W29115   9.011   4.468   0.785 -0.0339  0.2443  0.0077
15702W        W29116   4.416   6.100   6.386 -0.0164  0.2586  0.3177
15703W        W29117  14.415  12.529  14.533 -0.0579 -0.0362 -0.1188
15704W        W29118  16.181   7.423   1.067  0.1432 -0.1302  0.1938
15705W        W29119  11.331   8.636   2.130  0.1470  0.0812 -0.2429
15706W        W29120  13.548   3.095  12.148  0.1892 -0.0444  0.1169
15707W        W29121  16.911   7.227  16.098  0.1155 -0.0997 -0.1576
15708W        W29122   8.204   4.201   5.245 -0.1051  0.2789 -0.4459
15709W        W29123  10.522  15.864   3.984 -0.0745  0.5468  0.0482
15710W        W29124  11.147  14.884  15.605  0.0041  0.0914 -0.2551
15711W        W29125   1.789   4.879  11.260 -0.2357 -0.0508 -0.0551
15712W        W29126  15.531   7.070   3.600 -0.1281 -0.0209  0.0587
15713W        W29127  14.114   3.518   4.895  0.2768 -0.1411  0.4234
15714W        W29128  15.067  12.296  16.206  0.0071  0.2617  0.2494
15715W        W29129   1.559   2.437  14.836 -0.1332 -0.1229  0.0372
15716W        W29130  12.047   6.571   2.301 -0.1620  0.0502  0.1593
15717W        W29131  10.767   7.915   2.501  0.0387  0.1365  0.3815
15718W        W29132  10.165   1.765   1.175 -0.1435  0.2384  0.1082
15719W        W29133  14.523   7.584  13.821  0.0644  0.0198 -0.1009
15720W        W29134  14.994  10.138   4.364 -0.0785 -0.1797  0.4061
15721W        W29135   5.593   8.299   0.036  0.1171  0.0476  0.1090
15722W        W29136   0.831   5.068   5.739  0.1426  0.0311 -0.2155
15723W        W29137   5.822  18.190   3.977 -0.2551  0.2808 -0.0771
15724W        W29138  14.176  14.227   5.730  0.0349  0.3899  0.3213
15725W        W29139   1.494  14.114   2.124  0.2440  0.1239 -0.0736
15726W        W29140  11.223   0.136  10.045 -0.0235  0.1283 -0.0545
15727W        W29141  15.389   0.238  11.144  0.2035 -0.0283 -0.2053
15728W        W29142  10.194   8.516  12.291 -0.0435  0.0803  0.0886
15729W        W29143  14.751   9.393   1.017 -0.1424 -0.0023 -0.0171
15730W        W29144   3.694   6.956  12.218 -0.5132  0.1088  0.1854
15731W        W29145   4.009  17.345  10.624 -0.2666  0.0414 -0.0474
15732W        W29146  17.262   8.943  15.066 -0.0778 -0.1892  0.1151
15733W        W29147   5.949  15.984   4.722  0.1903  0.0478  0.0438
15734W        W29148  14.920   1.774  10.830 -0.2765 -0.4286  0.3589
15735W        W29149   7.888  18.321   1.449  0.0555 -0.1498 -0.1640
15736W        W29150  16.940   9.720  10.971 -0.1672  0.1403  0.1949
15737W        W29151   2.258  14.102  14.078 -0.2588 -0.1048 -0.1175
15738W        W29152  16.178   5.178  13.081  0.2954 -0.3017  0.0421
15739W        W29153  14.728  15.612   5.770  0.2464 -0.1241 -0.1206
15740W        W29154   8.193  17.019   3.738 -0.1526  0.2208 -0.3262
15741W        W29155  11.970  13.351   4.998  0.2478 -0.0628 -0.1285
15742W        W29156  12.080   4.182  10.464 -0.1879 -0.1784 -0.0534
15743W        W29157  14.886   1.295   1.305  0.0836  0.0805 -0.0616
15744W        W29158   9.579  13.366  10.983 -0.0371  0.0236  0.2390
15745W        W29159  15.324   9.483   2.527  0.0227  0.0430  0.0610
15746W        W29160   8.202   2.485  13.353  0.2259 -0.1044  0.1792
15747W        W29161   1.176   7.796   2.751  0.0159  0.0963  0.1115
15748W        W29162   2.133   6.354   2.938  0.0320  0.0941  0.0846
15749W        W29163   5.054   5.832   3.566 -0.0076  0.0983 -0.3029
15750W        W29164   2.452  11.798  13.446 -0.3496  0.3439  0.3080
15751W        W29165   1.375   8.420   0.234  0.0680  0.1533 -0.0851
15752W        W29166  14.642  16.337  13.102  0.4450 -0.2330  0.2862
15753W        W29167   3.062   2.901   0.682 -0.0799 -0.0707  0.1368
15754W        W29168  18.188   4.878  11.893 -0.1503  0.1515  0.2125
15755W        W29169   8.229  17.504  12.786  0.2449  0.0389  0.4077
15756W        W29170  14.195   1.239   3.398 -0.3211  0.1607  0.2364
15757W        W29171  17.185   8.000  11.057 -0.0511 -0.0410 -0.1644
15758W        W29172   6.159   5.238  11.573  0.0473  0.0103 -0.1631
15759W        W29173  16.488   9.388  15.552 -0.1728  0.1471  0.0028
15760W        W29174   8.945   9.560   4.091  0.1014  0.3666  0.4309
15761W        W29175   7.092   8.595  13.828 -0.0575  0.1350  0.1727
15762W        W29176   6.123   9.063  12.237  0.0131 -0.0304 -0.2111
15763W        W29177   3.450   7.702   3.094 -0.3035 -0.1968  0.1664
15764W        W29178   3.744  10.922   1.817  0.0633  0.0282  0.1533
15765W        W29179  18.092   4.935  11.397  0.2197  0.1489 -0.2037
15766W        W29180   0.052  17.861   1.122 -0.1202  0.1727  0.1385
15767W        W29181   0.180  15.613  13.867 -0.0408 -0.1427  0.3434
15768W        W29182   0.001   9.009   6.360 -0.0519  0.1224  0.0741
15769W        W29183   6.654   0.863   4.927  0.1738  0.0309  0.2965
15770W        W29184  10.619  10.002  11.851  0.2538  0.1788 -0.1833
15771W        W29185  15.166  17.943  14.663 -0.0749  0.0782  0.1119
15772W        W29186  15.600  14.777   1.957  0.0758  0.2138 -0.2508
15773W        W29187  13.802   4.674   3.934 -0.1521  0.0074 -0.0038
15774W        W29188  11.297  10.417  10.836  0.0300  0.0489  0.0304
15775W        W29189   0.999  18.361  12.185  0.2492  0.1584 -0.1499
15776W        W29190  13.330   0.555   5.261  0.0004 -0.2671 -0.1032
15777W        W29191   4.186   0.780  16.232 -0.3525  0.0448  0.0112
15778W        W29192   2.750   3.203  12.747 -0.0855 -0.0905 -0.1824
15779W        W29193  11.677  18.163   5.014  0.0906 -0.0367 -0.2017
15780W        W29194   7.556  14.848   3.811 -0.0334  0.0145 -0.1486
15781W        W29195  17.052   4.680   2.053 -0.2251  0.0440 -0.1102
15782W        W29196  16.221  12.471  11.728  0.0527 -0.0079  0.0093
15783W        W29197  12.998  12.396  12.946  0.0588 -0.0791 -0.0914
15784W        W29198   9.737   0.654   3.475  0.2838  0.0432  0.1679
15785W        W29199   4.629   8.652  15.654 -0.0226  0.1136  0.0320
15786W        W29200   9.585  17.081   0.626 -0.0808  0.1620  0.2479
15787W        W29201  17.139  18.521   9.747  0.1394  0.4747 -0.0691
15788W        W29202  12.794  17.437   4.920  0.0911  0.1573  0.0237
15789W        W29203  14.451  14.782  11.380 -0.1247  0.0977 -0.4818
15790W        W29204  11.215   1.606   2.885 -0.0956  0.1887 -0.0830
15791W        W29205  11.192  11.264   0.865 -0.0305 -0.3469  0.0204
15792W        W29206   5.411  15.917   0.327  0.0282 -0.0112 -0.0576
15793W        W29207  10.528   6.832  11.603 -0.1206  0.0768  0.0099
15794W        W29208   8.876   3.888   0.612 -0.0582  0.0528 -0.2088
15795W        W29209  17.842  14.678  14.992  0.1731 -0.1197  0.1916
15796W        W29210  10.171  15.092  14.371  0.0423 -0.0565 -0.2468
15797W        W29211   9.189  12.310  14.593 -0.4234  0.3716  0.5108
15798W        W29212  13.971   8.154   5.780  0.0723  0.3367 -0.0266
15799W        W29213   7.452   3.548   4.144 -0.1102  0.2327  0.0306
15800W        W29214   6.365  13.038  11.939  0.1640 -0.2957 -0.0555
15801W        W29215  17.168  18.041  15.869 -0.0521  0.4066  0.0718
15802W        W29216  15.812   3.372  12.397 -0.1725 -0.1908  0.1622
15803W        W29217   7.645  15.998   1.014  0.3597  0.1815  0.1773
15804W        W29218  11.492   1.665  12.019 -0.4897 -0.2030 -0.0234
15805W        W29219   6.265  12.316   1.727 -0.2189 -0.2905  0.0252
15806W        W29220  15.242   7.271   2.306 -0.2847 -0.0487 -0.3103
15807W        W29221  14.723   1.360   0.864 -0.0243 -0.0839 -0.3196
15808W        W29222  10.624  13.432  14.734 -0.0393  0.1264  0.2601
15809W        W29223   6.125  10.472  13.159 -0.0771 -0.0972  0.5876
15810W        W29224   0.200   2.591  12.075  0.3551 -0.4300  0.1451
15811W        W29225   2.952   4.749   3.838 -0.1875  0.0553 -0.0695
15812W        W29226   8.872   8.982   2.539  0.1727  0.0551 -0.1267
15813W        W29227   1.394   0.483   1.755 -0.2398 -0.1272  0.3494
15814W        W29228   2.165   5.645   4.472 -0.0777  0.0430 -0.0366
15815W        W29229  18.060   9.855   5.521  0.2894 -0.0272  0.2546
15816W        W29230  16.489  12.867   2.052 -0.2079 -0.0580 -0.1374
15817W        W29231   1.482  18.325  10.559  0.0502  0.0179  0.2010
15818W        W29232  10.224  15.737   4.340 -0.0135 -0.1532 -0.0750
15819W        W29233  13.078   6.406   1.387  0.1760  0.5034  0.1371
15820W        W29234   2.573  12.785  11.790 -0.1207  0.0682 -0.0072
15821W        W29235  15.261   3.369   1.362 -0.0025  0.2783 -0.2202
15822W        W29236  14.227  11.733   6.123 -0.2824  0.0498  0.3138
15823W        W29237   3.884  12.480   5.417  0.1035 -0.1523  0.2138
15824W        W29238  14.787   8.261   4.681 -0.0382 -0.0238  0.2373
15825W        W29239  13.856   6.772   3.009  0.0660 -0.1247  0.0307
15826W        W29240   9.244  16.110   0.918  0.1845  0.1619  0.1492
15827W        W29241   7.085  13.211   3.878 -0.0490 -0.2115  0.0823
15828W        W29242   7.993  10.090  14.272  0.1249  0.0221 -0.0219
15829W        W29243  13.784   3.027  14.784 -0.1540  0.3194  0.3227
15830W        W29244   3.091   8.513   4.410  0.0665  0.0672  0.1568
15831W        W29245  14.366   1.173   2.528  0.2296 -0.4131  0.3577
15832W        W29246   1.863  16.813  14.690  0.1614 -0.0034  0.1192
15833W        W29247   8.488  17.014   2.592  0.2139  0.0738  0.1158
15834W        W29248   8.833  12.432  16.265 -0.2170 -0.0757 -0.3031
15835W        W29249  12.771   7.402  16.069 -0.0418 -0.1669 -0.0639
15836W        W29250   4.366  13.833  14.195 -0.0636  0.0022 -0.1483
15837W        W29251   3.083  15.358  15.209 -0.4138  0.1092 -0.2214
15838W        W29252   1.943   2.978  11.022 -0.1299 -0.2470  0.1253
15839W        W29253   7.454   3.264   0.972 -0.2221  0.0008 -0.1008
15840W        W29254  17.889   5.083  16.028 -0.1556 -0.3290  0.3230
15841W        W29255  14.381  15.278   2.018  0.0675 -0.1100 -0.0618
15842W        W29256   9.824   8.176  16.152 -0.0383  0.0367 -0.1722
15843W        W29257   2.996   8.942   2.887  0.0888 -0.1324 -0.1749
15844W        W29258   7.319  12.044  13.638  0.1044  0.3830 -0.0727
15845W        W29259   3.580  18.509  13.205  0.0064  0.0812 -0.0692
15846W        W29260   7.039  14.950  14.670 -0.0630 -0.0564  0.0530
15847W        W29261   0.571   3.056  13.791 -0.4739 -0.1055  0.1486
15848W        W29262   2.572  13.429  15.544 -0.1924  0.0845  0.4390
15849W        W29263   5.616   5.271   5.311  0.0109 -0.0793 -0.0730
15850W        W29264  17.212   6.335  16.074 -0.1405  0.0373  0.0598
15851W        W29265  11.753   1.462   2.034  0.0606  0.6013 -0.2754
15852W        W29266  16.495   0.672  12.701 -0.0955  0.0568  0.2408
15853W        W29267  18.377  11.439  15.990 -0.3335  0.0634 -0.0635
15854W        W29268   6.192   0.907  14.090 -0.0687  0.1713 -0.3285
15855W        W29269  17.863   0.213  15.027  0.1041  0.1466  0.3154
15856W        W29270   0.296   5.799  10.291 -0.0480  0.0209 -0.1385
15857W        W29271   8.286  14.709   3.982 -0.0623  0.1289 -0.3044
15858W        W29272  16.290   7.050  14.181  0.2996  0.2771 -0.0965
15859W        W29273   5.313   9.015   1.519  0.0515  0.0691 -0.5255
15860W        W29274  10.429  11.540  12.914 -0.2003  0.2275  0.1973
15861W        W29275  14.434  18.198   2.541 -0.0254  0.2191  0.0016
15862W        W29276   8.254  11.777   2.975 -0.2227  0.0446  0.1813
15863W        W29277  12.205  16.059   4.611  0.2765 -0.0027  0.2301
15864W        W29278  15.967  15.413   2.557  0.0567  0.0636  0.0153
15865W        W29279   2.925  16.055  11.460  0.0970  0.0365  0.2190
15866W        W29280   4.545  16.354  13.375  0.0546  0.4951  0.0982
15867W        W29281  12.140   6.307  13.715 -0.1288  0.2078 -0.2815
15868W        W29282   3.516   8.818   3.033 -0.2302  0.1945 -0.0291
15869W        W29283   4.778   8.128   3.277 -0.0671 -0.3211 -0.1652
15870W        W29284   0.211  11.001   2.420  0.1638  0.2385  0.0785
15871W        W29285   8.654   2.283  11.203  0.0450 -0.1612 -0.0642
15872W        W29286   7.465   0.266  12.304  0.2827  0.3520 -0.0676
15873W        W29287  15.685  17.923  14.504  0.2307  0.0421 -0.0312
15874W        W29288   2.266  14.463   2.359 -0.1540  0.0459  0.0453
15875W        W29289  16.630  13.346  12.101 -0.1421  0.1946  0.1943
15876W        W29290   2.203   3.379   1.673 -0.0792 -0.1493 -0.1170
15877W        W29291   9.555   4.889  12.205 -0.0413 -0.0862 -0.1385
15878W        W29292  16.640  18.498   0.875  0.1503  0.0511  0.0827
15879W        W29293   0.359   9.350  14.044  0.1415 -0.2060 -0.2246
15880W        W29294   5.783  11.247   3.544  0.2773  0.0991  0.2405
15881W        W29295  10.118   3.608  11.704  0.0285 -0.1354 -0.3344
15882W        W29296  12.776   4.012  15.050 -0.3298 -0.4271 -0.1208
15883W        W29297  16.755  14.607  12.691 -0.0322 -0.0174 -0.0045
15884W        W29298   9.764  17.836  13.133 -0.0577  0.3980 -0.0301
15885W        W29299  17.571  11.849   4.394  0.1850  0.0198  0.0448
15886W        W29300  13.796  17.840  13.590 -0.1161 -0.1761 -0.0573
15887W        W29301  13.048   0.637  14.831 -0.0740  0.0931  0.0355
15888W        W29302   9.043   2.662  15.069 -0.0745 -0.2136 -0.5198
15889W        W29303   4.121  17.010   0.858 -0.2907  0.1610  0.1175
15890W        W29304   0.051  18.482   2.564 -0.2142  0.1122 -0.0261
15891W        W29305  11.640  10.085   4.713 -0.0779  0.0104  0.1484
15892W        W29306  13.199  16.171  14.293  0.0666  0.0294 -0.1651
15893W        W29307   7.961   6.736  13.757 -0.1385 -0.2566 -0.0861
15894W        W29308  12.179   4.044  15.427  0.4749  0.0207 -0.4317
15895W        W29309  12.979  16.881   0.099  0.3179  0.0530 -0.0655
15896W        W29310   9.032  14.048  11.947  0.2084 -0.1482 -0.2356
15897W        W29311   0.644   6.179  15.893  0.2526 -0.0047  0.4145
15898W        W29312  17.993   8.502   4.497 -0.0865  0.0738  0.4794
15899W        W29313  17.100   5.096   0.246  0.0299  0.2590 -0.1798
15900W        W29314  14.740   3.207   4.296 -0.0298  0.1347 -0.0344
15901W        W29315  15.980  18.328   4.887  0.0421  0.0122  0.0362
15902W        W29316  15.439  17.130  14.136  0.1487 -0.2753  0.3173
15903W        W29317  11.018   1.457  15.142 -0.2369  0.1524 -0.2112
15904W        W29318  17.321   8.797  13.020 -0.0136  0.1275 -0.3774
15905W        W29319   8.838   9.494   0.127 -0.2621 -0.0125  0.0944
15906W        W29320  12.752   6.132   1.023 -0.1264 -0.0940  0.2134
15907W        W29321   3.905   5.018  11.224 -0.1753 -0.1302  0.1126
15908W        W29322  13.459  17.317   1.663 -0.0434  0.3531 -0.0180
15909W        W29323   0.777   6.867   2.735 -0.0223 -0.1315 -0.1448
15910W        W29324   2.138   6.915   3.265  0.3561  0.2364 -0.1740
15911W        W29325   9.276   1.529   2.513 -0.1996 -0.0405 -0.0080
15912W        W29326  14.319  14.950  14.667 -0.3627 -0.3769  0.1612
15913W        W29327  15.877   5.033   1.236 -0.0232 -0.0509  0.3270
15914W        W29328  15.497  12.947  10.819 -0.1545  0.0784 -0.1838
15915W        W29329  16.572  14.885   5.968  0.0633 -0.0174  0.2436
15916W        W29330  11.718   0.249   3.273  0.1110 -0.1908  0.1388
15917W        W29331   9.060  18.038   4.870 -0.0021  0.0485 -0.0260
15918W        W29332  17.172  16.673  13.379  0.2494  0.3091  0.0349
15919W        W29333  13.915  12.699   6.018 -0.0235  0.1888  0.1842
15920W        W29334   2.586  13.359  16.006  0.1937 -0.1838  0.2117
15921W        W29335  10.264   2.797   3.405  0.2023  0.2447  0.2984
15922W        W29336   5.154   8.656  13.286  0.2704 -0.1319  0.0539
15923W        W29337  16.606  12.079  14.547  0.1722 -0.0425  0.2220
15924W        W29338   7.289   5.968  10.919  0.1104 -0.0317 -0.1367
15925W        W29339   0.642   0.673   1.246 -0.2232 -0.0782  0.2423
15926W        W29340   8.832   2.887   1.240  0.1500  0.2802 -0.3619
15927W        W29341  16.992  15.741  11.597  0.0362 -0.3726  0.2051
15928W        W29342  10.406  10.843  13.949  0.0214 -0.0940 -0.3594
15929W        W29343   2.291  10.524   5.066  0.2965 -0.0385  0.0040
15930W        W29344  11.654   7.425  13.838  0.1301 -0.1600  0.1557
15931W        W29345  16.958   8.522  14.701  0.0161 -0.0887 -0.0162
15932W        W29346  10.063   4.815  11.873  0.1965  0.2456  0.1342
15933W        W29347  17.476   5.052  14.212  0.0016 -0.1498 -0.2380
15934W        W29348  13.240   0.558   0.556  0.6064  0.0846  0.0118
15935W        W29349   5.779   8.743   4.293  0.0056  0.0341  0.1246
15936W        W29350   2.817  16.872   4.008 -0.0241  0.1855 -0.1231
15937W        W29351  17.672   2.180   3.484 -0.0383  0.0446  0.2625
15938W        W29352  10.082  18.440  14.089  0.2109  0.0700 -0.2882
15939W        W29353  16.610   3.886  12.059  0.0693  0.1090 -0.0570
15940W        W29354   4.258   8.963  11.630  0.2726 -0.3073  0.2254
15941W        W29355  10.003  11.365   1.604  0.0812 -0.1103 -0.0910
15942W        W29356  10.362   7.677  10.232 -0.3399 -0.1762 -0.0548
15943W        W29357   7.256   2.661  14.841  0.1111  0.1013 -0.0906
15944W        W29358  14.671   1.894   1.940  0.0191  0.0395  0.1160
15945W        W29359  13.109  16.239   4.433  0.0845 -0.0145 -0.1752
15946W        W29360  15.923   9.052  12.033 -0.0262 -0.1715 -0.2649
15947W        W29361   4.106  13.770  12.906  0.0808  0.0781 -0.0288
15948W        W29362  12.278   2.078  11.088  0.1768 -0.2500  0.1931
15949W        W29363  13.468  15.643  15.659 -0.1260 -0.0637 -0.0118
15950W        W29364   0.107   4.573  14.458  0.1419  0.1717 -0.3867
15951W        W29365  16.445  11.956   5.118  0.4244  0.1704  0.2027
15952W        W29366  10.249   7.997  11.021  0.1303 -0.0041 -0.2446
15953W        W29367   5.052  16.846   2.825  0.0352  0.1562  0.1600
15954W        W29368   7.158  14.062   3.185  0.0887  0.0181 -0.1474
15955W        W29369  13.849   8.257  12.805  0.0578 -0.0237  0.0193
15956W        W29370  17.674   0.664   4.872 -0.0076 -0.2499  0.2325
15957W        W29371   9.418   0.148   1.095  0.1281  0.0427 -0.0418
15958W        W29372   8.338   1.308   1.345  0.2574 -0.1251  0.0986
15959W        W29373   7.945   7.946  13.135 -0.0906  0.1696  0.0934
15960W        W29374  14.860   5.004  14.620  0.1400 -0.0513 -0.1133
15961W        W29375  11.572  15.836  12.156 -0.0431  0.1376 -0.1760
15962W        W29376  17.458  14.558   0.540 -0.0927 -0.4736  0.1325
15963W        W29377  14.544  15.794   3.672  0.1746 -0.0069  0.1190
15964W        W29378  12.833   3.219   1.640 -0.0806  0.1059  0.3151
15965W        W29379   0.680   5.169  13.249 -0.0209 -0.4665 -0.1997
15966W        W29380  15.489  12.737  13.170 -0.1630 -0.1472  0.1138
15967W        W29381   8.137  18.117   0.296 -0.1340 -0.3182 -0.1209
15968W        W29382   9.572   4.883   3.910  0.0965  0.0725  0.3774
15969W        W29383  11.521  11.853  12.371 -0.2438 -0.1616 -0.3138
15970W        W29384  13.177  14.325  15.968 -0.1523 -0.0081  0.3164
15971W        W29385   9.976   4.864   2.682 -0.1726  0.2698 -0.2627
15972W        W29386  16.227   8.312  15.093 -0.0531 -0.0133  0.3340
15973W        W29387  17.669   3.694   5.812  0.1822  0.0907  0.1219
15974W        W29388   7.646   9.493  11.084  0.0375 -0.2625 -0.0810
15975W        W29389   3.822   3.709   1.463 -0.2488 -0.0008  0.2609
15976W        W29390  14.930   4.013  15.854  0.0463  0.3114  0.1293
15977W        W29391  11.524   5.168   1.770 -0.1051 -0.0279 -0.0306
15978W        W29392   8.028  16.507   1.735  0.0704  0.0614  0.0463
15979W        W29393   9.937  18.297   1.855  0.1270 -0.0772  0.1060
15980W        W29394   3.191   2.307   3.825 -0.3325  0.1454 -0.1202
15981W        W29395  14.212  10.598  13.392  0.0771 -0.0314 -0.3995
15982W        W29396  10.394   0.723  10.622  0.1067  0.0496 -0.1492
15983W        W29397   6.329  15.678   3.888  0.1688 -0.3653 -0.2295
15984W        W29398   1.488   9.159   6.031  0.0774  0.1889 -0.1365
15985W        W29399   9.274  13.752   4.858 -0.2082 -0.0782 -0.1519
15986W        W29400   2.643   8.553   3.472  0.2497 -0.3753  0.4276
15987W        W29401   8.664   9.456   1.590 -0.0416 -0.0081  0.0220
15988W        W29402   6.969   5.817   1.366  0.3534  0.0974  0.0762
15989W        W29403  17.349   8.159  12.514  0.0533 -0.1240  0.0752
15990W        W29404   7.282  14.843  15.140  0.1212 -0.1672  0.1443
15991W        W29405   0.974  15.925  12.422 -0.1246  0.1316 -0.1673
15992W        W29406  17.782  13.987  16.154 -0.1240  0.1629 -0.0711
15993W        W29407  12.536  13.258  13.679  0.0710 -0.0359  0.0776
15994W        W29408   5.655  14.481   0.610 -0.0574 -0.1248 -0.2957
15995W        W29409   9.569   9.172   5.205  0.0964  0.1530  0.1712
15996W        W29410   7.617   1.598   0.265 -0.1788  0.1362 -0.5202
15997W        W29411   3.097  18.272  14.477  0.3185 -0.1153  0.3116
15998W        W29412  13.012   6.187  10.606 -0.1666  0.0009  0.0747
15999W        W29413   7.572   4.080   1.174 -0.0266 -0.0211  0.0169
16000W        W29414  12.463  11.099  13.415  0.0974 -0.0066  0.0242
16001W        W29415   0.833  15.213   3.341 -0.5336 -0.0665 -0.2652
16002W        W29416  12.571   0.785   3.414  0.0759 -0.0087 -0.1897
16003W        W29417   6.022  13.076  15.664 -0.3738 -0.1345  0.0023
16004W        W29418   4.384  13.597  12.308 -0.0744 -0.1279 -0.0879
16005W        W29419   4.256  12.771   5.479 -0.2364 -0.1339 -0.2828
16006W        W29420  14.905  11.772  14.306 -0.1681  0.3033  0.0313
16007W        W29421   7.307  14.955   0.817  0.1581 -0.0058  0.1124
16008W        W29422   3.923   7.215  10.928  0.1145  0.0184 -0.1894
16009W        W29423   4.690   8.451   2.902  0.0422 -0.1524  0.2138
16010W        W29424  12.853   3.730   4.130  0.3307 -0.1128  0.1595
16011W        W29425  13.268  10.178  11.031  0.1465  0.0849  0.0543
16012W        W29426  15.482  12.305   3.719 -0.1176 -0.0292 -0.0595
16013W        W29427  10.087  14.607   2.326 -0.0773  0.0958 -0.2200
16014W        W29428   7.077  14.586  11.461  0.3446  0.0105 -0.2326
16015W        W29429   0.166  14.053   0.141 -0.1019  0.2578  0.0281
16016W        W29430   5.516  15.699  14.713 -0.0480  0.4801  0.1943
16017W        W29431   7.086   3.040  13.174 -0.2579 -0.2007  0.1334
16018W        W29432  17.500  11.025  13.449  0.2934  0.1911 -0.0646
16019W        W29433   3.491  15.420   0.779 -0.0662  0.2380  0.2329
16020W        W29434  11.482  10.354   1.549  0.1465  0.0074 -0.3888
16021W        W29435  17.514  10.476  11.569 -0.1107 -0.0892  0.1126
16022W        W29436   1.337  15.800  12.762 -0.1337 -0.4195 -0.0640
16023W        W29437   1.403  17.973   2.703 -0.0006 -0.1220 -0.1754
16024W        W29438   8.266   7.809   0.104  0.0481 -0.3432  0.1111
16025W        W29439   6.990  16.103   3.431 -0.2215  0.1640 -0.0186
16026W        W29440  17.673   3.732   0.702 -0.2281  0.2207 -0.1476
16027W        W29441  12.778   5.711   4.925  0.0138  0.1389  0.0002
16028W        W29442  18.067  12.347   2.705  0.0793 -0.2823  0.1137
16029W        W29443   3.501  10.904   9.927 -0.0843  0.0889  0.0678
16030W        W29444  10.240   5.778   1.923 -0.0952  0.2407  0.1494
16031W        W29445  12.255   9.231  15.859 -0.3288  0.1994 -0.0729
16032W        W29446   4.687   4.040   6.847  0.0796  0.3898 -0.0386
16033W        W29447  14.068   2.518   5.008  0.0026  0.4003 -0.1091
16034W        W29448  13.041  10.187  14.040  0.0057 -0.1758 -0.0291
16035W        W29449   2.207   0.463   2.569 -0.1634  0.2068 -0.1210
16036W        W29450   1.201  14.239  13.692  0.3665 -0.0191  0.0667
16037W        W29451   7.494   9.879   1.486 -0.0402 -0.0869  0.2118
16038W        W29452  11.182  18.067   0.476 -0.1574 -0.0678 -0.1904
16039W        W29453   2.448  12.768  12.337 -0.0283 -0.0054 -0.4807
16040W        W29454   4.478   8.346   0.384 -0.3057 -0.0300 -0.0356
16041W        W29455   5.153   0.228  13.700  0.0373  0.3633 -0.1461
16042W        W29456   5.494   6.851  14.499 -0.0044  0.1082  0.4602
16043W        W29457   7.453   2.788  11.911  0.0689 -0.0994 -0.0223
16044W        W29458   7.903  18.109   1.991 -0.1708  0.2115 -0.0948
16045W        W29459  10.670  16.460  12.431  0.1291 -0.3588  0.1364
16046W        W29460  11.667  12.339  13.378 -0.0055  0.0686  0.0128
16047W        W29461   4.746   7.719   4.210 -0.1216  0.0584  0.0820
16048W        W29462   8.049   2.411   0.518 -0.2351  0.1265  0.3123
16049W        W29463  15.040  12.177   4.449 -0.2702 -0.2597 -0.0449
16050W        W29464   5.217   9.141   3.190 -0.1969 -0.2928 -0.2379
16051W        W29465  17.339  18.516   3.170 -0.1602  0.1574  0.0510
16052W        W29466   3.312   6.324   6.411  0.0024 -0.1735 -0.1613
16053W        W29467  17.565   5.321   2.852 -0.0562  0.1914  0.0424
16054W        W29468   6.031   2.505   1.066 -0.0260 -0.0609 -0.2690
16055W        W29469  12.004  15.730  15.668  0.1892  0.1505  0.0071
16056W        W29470   0.509  11.475  13.946  0.1775  0.1510 -0.3230
16057W        W29471   0.683  14.568   3.058 -0.1199  0.0527  0.1648
16058W        W29472  14.889   1.086   2.475 -0.2141  0.3146 -0.0157
16059W        W29473   4.579   5.500  14.817 -0.0442 -0.2862 -0.1486
16060W        W29474  17.097  16.226   5.665  0.0089 -0.1047  0.1460
16061W        W29475   9.226   7.607  11.773  0.2785 -0.1794  0.0895
16062W        W29476   0.936   3.371   1.128  0.2402  0.1000 -0.0407
16063W        W29477   5.567  16.398   3.512  0.1436  0.1024 -0.0130
16064W        W29478   5.694   5.219   3.555  0.2595 -0.1027 -0.2097
16065W        W29479   7.113  16.243   1.231 -0.1375 -0.0113  0.0745
16066W        W29480   0.167   0.423   4.963  0.2459  0.1388 -0.0046
16067W        W29481   0.148   9.240   0.509 -0.1304  0.1431  0.0324
16068W        W29482  18.345   1.700   4.524 -0.2446  0.1474  0.0966
16069W        W29483  11.524  17.421   0.112 -0.0533  0.2540  0.1717
16070W        W29484   8.896  17.117   1.710 -0.0450 -0.1479 -0.3582
16071W        W29485  11.001  16.945   1.345 -0.0482 -0.2541 -0.3552
16072W        W29486   8.598   0.582  11.328 -0.1319 -0.1191 -0.0332
16073W        W29487   0.366   8.401   2.719  0.0278  0.0588 -0.1536
16074W        W29488   8.026  18.078  14.590  0.1154  0.1412 -0.0157
16075W        W29489  15.055  16.814  14.049 -0.0393 -0.2229 -0.0536
16076W        W29490   7.072   7.370  14.438  0.2099 -0.1566  0.1348
16077W        W29491   8.960  17.109   0.854 -0.0029  0.2886 -0.4065
16078W        W29492   6.196  18.331   2.311  0.2950 -0.0688  0.1374
16079W        W29493   3.167  13.868  12.942  0.0881 -0.0277 -0.0155
16080W        W29494  13.692   8.680   2.140 -0.0874  0.1201 -0.0081
16081W        W29495   4.793  14.031  14.374  0.4588 -0.2022 -0.2722
16082W        W29496   4.235  14.867  15.936  0.1337 -0.3919  0.0109
16083W        W29497   2.638   5.907  11.137  0.5471  0.0265  0.3655
16084W        W29498   3.810   4.007   0.018 -0.0876 -0.2203  0.3023
16085W        W29499  10.052   9.764   2.995  0.2856  0.0801 -0.3337
16086W        W29500   1.723  14.850   0.458  0.1342  0.0142 -0.2287
16087W        W29501  11.609   2.270   1.206  0.1854  0.0450 -0.2297
16088W        W29502  15.250   0.947   1.454 -0.0171 -0.0228  0.0236
16089W        W29503  15.618  10.530   0.827 -0.5643 -0.1674 -0.4101
16090W        W29504   3.237  10.873   1.991 -0.3141 -0.1601 -0.0661
16091W        W29505  13.798  18.509  11.104  0.0973 -0.0517  0.0452
16092W        W29506   2.865   3.793   2.858  0.1467  0.0817 -0.2046
16093W        W29507   7.700  12.857   3.371  0.3746  0.3709  0.1565
16094W        W29508  10.606   8.299   4.041  0.1742  0.3263 -0.2421
16095W        W29509   6.680   9.737   4.970  0.1285 -0.0112 -0.0796
16096W        W29510  10.723  12.747   4.003 -0.1600  0.0472  0.0998
16097W        W29511   0.579  14.809  15.283 -0.1826 -0.0274 -0.0044
16098W        W29512   0.378  11.460  15.981  0.3030 -0.4296 -0.0307
16099W        W29513  16.508   9.928   1.712 -0.2592  0.1839  0.0418
16100W        W29514   3.157  12.509  11.072  0.1153  0.0212  0.2154
16101W        W29515  13.685  12.458  12.744 -0.1162  0.2155 -0.1112
16102W        W29516   6.706   6.027  16.160 -0.1407 -0.1624  0.2247
16103W        W29517  16.258   5.760  12.434 -0.0582  0.3578 -0.1046
16104W        W29518  15.716   6.582  14.625 -0.1353 -0.0035 -0.3695
16105W        W29519  15.610   6.086   4.262 -0.1940 -0.0038 -0.0530
16106W        W29520   0.731   9.962  10.595  0.0420  0.1087 -0.0912
16107W        W29521  17.355  15.555  15.093  0.2750 -0.0107  0.0125
16108W        W29522  12.147   4.657   3.091  0.1206  0.2014  0.0803
16109W        W29523   7.710   0.251   1.606  0.0326 -0.3016 -0.1289
16110W        W29524  14.502  10.018  11.616  0.0201 -0.2750  0.1989
16111W        W29525  11.099  10.754  14.756  0.0838 -0.2570  0.0183
16112W        W29526   1.475   9.317  15.997  0.3449  0.1750  0.0945
16113W        W29527  13.922  11.016   1.186 -0.3914  0.1562 -0.0251
16114W        W29528  14.880   7.735  12.028 -0.2274 -0.0861  0.0012
16115W        W29529  16.349   7.497   3.688 -0.1068 -0.1219  0.0243
16116W        W29530  15.286   4.899  10.936  0.1949 -0.2212  0.2288
16117W        W29531  11.357   2.186   5.795  0.0443  0.0676  0.3525
16118W        W29532  17.067  17.352  14.464  0.0323 -0.0586  0.2231
16119W        W29533  15.113  16.065   0.329 -0.1784 -0.0663 -0.0822
16120W        W29534   0.485   3.719  15.934 -0.4007 -0.0664 -0.1045
16121W        W29535  10.432  15.477  15.268  0.0047 -0.1170 -0.0209
16122W        W29536   5.208  15.732   3.008 -0.2704  0.0239 -0.1633
16123W        W29537   8.045   7.418  11.710 -0.3033 -0.5820  0.0682
16124W        W29538   9.473  12.942  15.622 -0.1534 -0.2130  0.2364
16125W        W29539  15.759   2.526   0.945 -0.0994  0.1250  0.3441
16126W        W29540   4.472  12.418  12.221 -0.0426 -0.1142 -0.1948
16127W        W29541  15.958   6.279   1.193  0.2078  0.1551 -0.0034
16128W        W29542   4.260   4.490  14.104  0.0817  0.1744  0.0691
16129W        W29543  17.535   5.366   5.349 -0.0929 -0.3543 -0.1713
16130W        W29544   8.542  17.002   2.058  0.0689 -0.2423 -0.0414
16131W        W29545   5.765  14.326   1.986  0.2659 -0.0115 -0.0126
16132W        W29546  13.857   4.508   6.364  0.0742 -0.0965  0.1411
16133W        W29547   1.784   5.315   5.344  0.0835  0.0046 -0.0284
16134W        W29548  12.449   1.734   5.038 -0.0302 -0.1216  0.0778
16135W        W29549   8.232   8.273   6.015 -0.0288  0.1691  0.0214
16136W        W29550   4.448   1.817   3.436  0.4388 -0.1519 -0.2933
16137W        W29551   0.995  15.418   1.538  0.0296 -0.0446  0.1243
16138W        W29552   7.991  10.752  11.028 -0.0593 -0.0386  0.3375
16139W        W29553   2.402   1.646   0.847  0.1490 -0.2205  0.2986
16140W        W29554  10.640   3.162  12.117 -0.4158  0.0004 -0.0430
16141W        W29555  15.562   2.009   4.404 -0.0475 -0.2264 -0.0517
16142W        W29556   6.964  12.559  14.360 -0.0541 -0.1781 -0.3105
16143W        W29557  13.804  12.459  13.274 -0.0752  0.1767 -0.1507
16144W        W29558   9.316   7.620  14.439 -0.1409 -0.1519 -0.1811
16145W        W29559  10.861   5.922   0.980 -0.0572  0.2304 -0.1315
16146W        W29560   6.340  12.293   2.888  0.1317 -0.1833 -0.1097
16147W        W29561  17.654   4.620  11.537  0.1123 -0.1168 -0.1694
16148W        W29562   9.517   3.871  15.740  0.0735 -0.0267  0.0841
16149W        W29563  14.073   6.955  14.936  0.2907  0.2300 -0.0337
16150W        W29564   7.424  16.594  16.093  0.3012 -0.0860  0.1827
16151W        W29565  12.311   3.102   5.327 -0.3141 -0.0241  0.2709
16152W        W29566   5.990   2.317   5.458  0.0929 -0.0577  0.4217
16153W        W29567   7.291   9.357   0.593  0.1490  0.1810  0.0363
16154W        W29568   1.930   2.327  12.746 -0.0206 -0.2908  0.0371
16155W        W29569  13.057   1.599  13.867 -0.2805 -0.0244  0.1431
16156W        W29570  16.673   2.416  11.899 -0.1447 -0.0148  0.1307
16157W        W29571  11.393  12.311  11.976  0.1630 -0.0394 -0.2812
16158W        W29572   4.271   9.438  12.261 -0.0624 -0.0877 -0.2276
16159W        W29573  15.201  12.895  15.246  0.0885  0.0326 -0.2799
16160W        W29574  10.192  10.433   3.957  0.1588  0.1077 -0.0431
16161W        W29575   0.328  13.119  12.422  0.1967  0.0427  0.2806
16162W        W29576  17.095   3.644  15.488 -0.3371  0.0649 -0.2515
16163W        W29577   1.305  14.517  11.255  0.0126  0.2797 -0.2005
16164W        W29578   6.394   8.295   2.289 -0.0981  0.3799  0.2573
16165W        W29579   6.217   5.043  14.595  0.3925  0.2402  0.2827
16166W        W29580   6.907   9.555   1.031 -0.0414 -0.2219 -0.1355
16167W        W29581   6.438  10.625  10.477  0.0827 -0.1486 -0.0920
16168W        W29582  11.355   7.506  15.270 -0.4599 -0.0243 -0.2167
16169W        W29583   6.026   9.318   4.452 -0.0727  0.0169 -0.3810
16170W        W29584  16.162  13.443   0.416 -0.0486  0.0889 -0.0702
16171W        W29585  17.616   8.607  15.919  0.1082 -0.1173  0.0808
16172W        W29586  17.615  12.893  14.658  0.2082  0.0189 -0.2763
16173W        W29587  15.050  14.946   6.465 -0.2386 -0.0347  0.0314
16174W        W29588  16.449  15.475  11.570  0.0271 -0.2266 -0.2859
16175W        W29589   5.901   7.550  12.012 -0.0282  0.4835  0.0156
16176W        W29590   0.605  14.840  13.777  0.1311  0.4098  0.0180
16177W        W29591  11.880  12.138   1.898 -0.0512 -0.0175 -0.0076
16178W        W29592   6.452   7.964   4.036 -0.2184 -0.1082 -0.1180
16179W        W29593   7.975   7.404   5.753  0.0994  0.1305 -0.3204
16180W        W29594   9.600   9.432  16.066  0.0127  0.0826 -0.3509
16181W        W29595   1.359   1.296  13.776 -0.0227  0.1728  0.1260
16182W        W29596  13.885   5.980  14.743  0.0067 -0.0916  0.0525
16183W        W29597   3.295  10.793  15.196  0.3597 -0.0414 -0.0263
16184W        W29598   6.981   8.205   0.143  0.1736  0.0104 -0.0063
16185W        W29599   9.288  13.512  16.001 -0.1852 -0.2855 -0.0920
16186W        W29600  14.504   0.605  12.014  0.0623 -0.1176  0.2350
16187W        W29601  18.473   3.010  14.891 -0.1763  0.0048 -0.0722
16188W        W29602  10.553   8.991   5.510  0.1159  0.1253  0.1014
16189W        W29603   3.957  10.137   1.317 -0.1761 -0.1774 -0.1027
16190W        W29604  11.470  16.350   2.483  0.2443 -0.0533 -0.0441
16191W        W29605  13.339   6.602  10.761 -0.1113  0.1720 -0.0300
16192W        W29606  14.466  15.820  12.320  0.0885  0.0537  0.2302
16193W        W29607  10.186  13.647  13.052  0.0786 -0.2143  0.0972
16194W        W29608   1.889  17.976   5.311 -0.0487 -0.0921  0.0110
16195W        W29609  10.183  14.016  12.120  0.1816  0.0322  0.2198
16196W        W29610   1.864  14.457  13.913  0.0101 -0.1590  0.2336
16197W        W29611  14.502  15.194   4.797 -0.2765  0.1398 -0.0845
16198W        W29612   3.960  18.364   4.040  0.0670  0.1415 -0.2933
16199W        W29613   8.936   5.444   5.975  0.0319 -0.1212  0.1460
16200W        W29614  11.606  10.863  12.063 -0.0578 -0.0025 -0.0711
16201W        W29615  16.828   0.673   2.841  0.1522 -0.0896  0.1765
16202W        W29616  15.079  13.771  16.022 -0.0482 -0.0980 -0.3590
16203W        W29617  13.648   5.258   5.734 -0.0075  0.0915  0.4942
16204W        W29618  12.166  14.091  10.434  0.0529  0.0527  0.0364
16205W        W29619   4.873  15.380   3.869  0.0770 -0.3386  0.0693
16206W        W29620  14.925   0.777   1.056  0.2200 -0.2793  0.0775
16207W        W29621  12.467   0.390  10.561  0.2213 -0.0306 -0.1400
16208W        W29622   6.038  14.793  16.053 -0.4213 -0.0464  0.0775
16209W        W29623   3.299   1.509  11.602  0.0873  0.3790  0.0357
16210W        W29624  17.232   2.544  12.191 -0.1396 -0.0978 -0.1188
16211W        W29625  17.943   2.107  12.720 -0.2409  0.0213 -0.1581
16212W        W29626   1.256  11.524  12.851 -0.1623  0.0613 -0.1671
16213W        W29627  12.134  17.988   2.932 -0.1370 -0.1748  0.1809
16214W        W29628  17.350   5.466   5.799 -0.1474 -0.1612 -0.0756
16215W        W29629  17.042  14.158  13.202 -0.0034  0.3320 -0.0599
16216W        W29630  11.582   5.219   4.021  0.0921 -0.1622 -0.1354
16217W        W29631   0.182  14.548   4.937  0.0644  0.0574 -0.0015
16218W        W29632   2.334   2.878  13.673  0.1260 -0.1893  0.1532
16219W        W29633   8.478  15.168  12.467  0.0565  0.1975  0.1002
16220W        W29634   8.419   6.238  12.523  0.4084 -0.2465  0.2740
16221W        W29635  18.217  17.999  15.710  0.0200 -0.0885 -0.1714
16222W        W29636  13.241  15.349   1.632  0.1552  0.0541  0.2879
16223W        W29637  10.780  16.734   3.663 -0.3176 -0.2510 -0.2027
16224W        W29638  17.942  13.782  11.279 -0.1275 -0.1011  0.2408
16225W        W29639   7.272  17.634  12.848  0.0310  0.1817  0.2478
16226W        W29640  17.167   5.198  14.915  0.2060  0.1119  0.1537
16227W        W29641   2.236   6.784  13.813 -0.1673 -0.3725 -0.0837
16228W        W29642   8.909   6.743   5.265 -0.0127 -0.0145 -0.0443
16229W        W29643  14.186   9.214  16.023  0.1140 -0.2337  0.0017
16230W        W29644   4.793  15.908   3.483 -0.3164 -0.2508 -0.2810
16231W        W29645   8.381   9.798  15.671  0.2878  0.1505  0.1007
16232W        W29646  12.735   0.495  11.015 -0.3284 -0.0208  0.0353
16233W        W29647  17.898   9.851   3.306 -0.1501 -0.1968 -0.1504
16234W        W29648   5.155  14.871  11.716  0.0148  0.0498  0.1686
16235W        W29649  17.520   6.926  15.601 -0.0594  0.2699 -0.2528
16236W        W29650   5.862  15.114   0.066 -0.0837 -0.0265  0.1024
16237W        W29651   3.981   5.393   4.373 -0.1330  0.0721  0.2817
16238W        W29652   2.580  10.181  16.232  0.0565 -0.0797 -0.1994
16239W        W29653   6.430   7.165   3.507  0.1963  0.0127  0.0674
16240W        W29654  17.172   0.782   2.484  0.0781  0.1396  0.0269
16241W        W29655   7.556   9.852  14.342 -0.0294 -0.3407 -0.0840
16242W        W29656   0.864   4.147   1.898 -0.0443  0.2414 -0.0703
16243W        W29657   8.275  14.574   0.078 -0.1428  0.2632  0.4248
16244W        W29658   6.752  13.817  11.122  0.2269 -0.0656 -0.2359
16245W        W29659   4.894   6.643   3.565 -0.1622 -0.1038 -0.1184
16246W        W29660   1.592  17.130  12.334 -0.2474  0.0626 -0.2115
16247W        W29661   0.860  13.045  16.117  0.0197  0.2463  0.0509
16248W        W29662   8.338   7.683  15.500 -0.1102  0.2496  0.1407
16249W        W29663   1.168   9.744  11.345 -0.0783 -0.2649 -0.0159
16250W        W29664   5.138  15.606   2.545 -0.0094 -0.1031  0.1138
16251W        W29665   0.341   7.518   9.897 -0.1727 -0.1752 -0.2451
16252W        W29666  15.875  14.316  16.002  0.0101 -0.2568 -0.3472
16253W        W29667   7.372   5.962   2.073  0.3572 -0.0636  0.2271
16254W        W29668   6.382   1.917   0.569 -0.1621  0.0652 -0.3680
16255W        W29669  11.980   1.779   0.545 -0.0322 -0.0529  0.0645
16256W        W29670   5.898   3.386   5.443 -0.0381  0.1527  0.0753
16257W        W29671   3.493  15.570   1.725  0.0766 -0.0917  0.0878
16258W        W29672  16.014   8.957  10.910 -0.1500 -0.5255  0.0533
16259W        W29673  10.874  15.213   3.188  0.0008  0.0313 -0.0825
16260W        W29674   9.378   5.382  12.682 -0.1341 -0.0168  0.3393
16261W        W29675   7.050  10.900   4.056  0.2205 -0.0529 -0.2465
16262W        W29676  12.102  12.122  13.551  0.2401 -0.4185  0.4200
16263W        W29677   5.867  12.206  11.489 -0.0208 -0.2561 -0.1867
16264W        W29678   3.896  11.951   2.737  0.0938  0.0384 -0.1499
16265W        W29679  17.124   7.683  11.483  0.1241  0.2300 -0.0162
16266W        W29680   2.132  13.901   9.833  0.2390 -0.3706  0.0184
16267W        W29681  11.329   9.747   2.808 -0.3624 -0.0120  0.0587
16268W        W29682  10.756   6.514   5.630  0.1015  0.1827  0.0742
16269W        W29683   8.448   4.766   2.190 -0.0346 -0.1018  0.0494
16270W        W29684   7.548  10.074  12.077 -0.2703  0.0517  0.2602
16271W        W29685   8.856   8.500   1.229  0.1235  0.1545 -0.0933
16272W        W29686  10.304  12.183   2.694  0.3388 -0.3523 -0.0624
16273W        W29687   9.592  11.344   3.671 -0.1708  0.1175 -0.0754
16274W        W29688  13.988   3.872   0.664  0.0022 -0.0059  0.0895
16275W        W29689   8.858  11.394   4.861  0.1144 -0.0636 -0.2466
16276W        W29690   6.385  13.167   1.462  0.1640  0.0531 -0.0447
16277W        W29691  15.568   7.853  12.181  0.0797  0.1167 -0.3370
16278W        W29692  12.508  17.528   3.283  0.0072 -0.2351  0.0999
16279W        W29693   4.460  12.272  13.662  0.1682  0.0576 -0.2304
16280W        W29694   6.058   3.104  12.586  0.1870  0.1972  0.0947
16281W        W29695   4.155   4.065  13.385 -0.0499  0.3116 -0.4016
16282W        W29696   7.868   2.383   4.173 -0.1211  0.1578 -0.4120
16283W        W29697  18.229   4.888   0.297  0.1605 -0.1303  0.1783
16284W        W29698   4.504  14.680  10.889  0.2692  0.2410  0.1385
16285W        W29699  15.317   5.432   4.958  0.1981  0.2632 -0.0913
16286W        W29700  11.797   7.575   4.283 -0.1692 -0.1870  0.0128
16287W        W29701   4.576  15.656  10.433 -0.3015 -0.0969 -0.2121
16288W        W29702   7.342  15.251  13.227 -0.1804 -0.2156 -0.2216
16289W        W29703   1.952   1.190  11.356 -0.4943  0.0132 -0.1500
16290W        W29704  18.067   7.903   3.715 -0.1394 -0.1212  0.2714
16291W        W29705  11.603   9.492  11.002  0.0494 -0.0597 -0.0362
16292W        W29706  11.239   4.390   4.552  0.3250  0.0544 -0.1003
16293W        W29707   2.412   7.686  12.631  0.2553 -0.0964 -0.1519
16294W        W29708   4.914  14.135   5.943  0.1005 -0.0502 -0.2740
16295W        W29709  16.893   7.672  15.895  0.0633  0.1046 -0.1082
16296W        W29710  17.077   5.349   5.112  0.0112  0.0458 -0.0766
16297W        W29711   9.599   1.013   3.161 -0.1848  0.0761  0.0053
16298W        W29712   8.545   8.260   0.107  0.3156 -0.2176 -0.0216
16299W        W29713   0.787  13.764  14.171  0.1283  0.2119 -0.0207
16300W        W29714  18.163   9.410   1.162 -0.1063 -0.0801  0.2008
16301W        W29715   9.252   5.722  15.510  0.1086 -0.1429  0.0226
16302W        W29716   2.663  15.301   4.123 -0.1240  0.1519 -0.2373
16303W        W29717   6.650   5.251  15.405 -0.3411  0.0536  0.3088
16304W        W29718   8.655  14.794   0.953 -0.0941 -0.0847 -0.0744
16305W        W29719   3.732  16.520  12.812  0.4257 -0.0944  0.0297
16306W        W29720   3.821   4.019  12.208  0.0841 -0.0777  0.3394
16307W        W29721  18.352   0.503   3.296 -0.2230  0.1518  0.3260
16308W        W29722   7.692   6.570  14.219  0.3737 -0.3511 -0.0908
16309W        W29723   2.437   5.718   1.291 -0.1162 -0.1295  0.0178
16310W        W29724   7.123   8.588  14.673  0.2956 -0.0718 -0.1320
16311W        W29725   6.875   6.639   0.118 -0.0665 -0.1678 -0.2619
16312W        W29726  16.722  17.791   9.850  0.0847 -0.0633 -0.1023
16313W        W29727  17.821   7.845  15.255  0.1378 -0.1295 -0.2186
16314W        W29728   3.203   9.819  14.486 -0.0850  0.1183 -0.1808
16315W        W29729   5.759   1.460   1.351  0.1229  0.0479  0.4232
16316W        W29730  18.363  11.362  15.100 -0.1384  0.3098  0.1238
16317W        W29731  15.801   6.313  11.511 -0.4028 -0.1129 -0.1607
16318W        W29732   6.867  15.580  14.684  0.1485 -0.2724  0.0149
16319W        W29733   0.265  14.029   4.654 -0.4464 -0.1771 -0.4569
16320W        W29734  14.705   9.271  11.082 -0.2025  0.0055  0.1679
16321W        W29735   0.595  16.911  11.468  0.1834 -0.2321 -0.2317
16322W        W29736  16.540  13.498   2.861  0.0221 -0.0861  0.0216
16323W        W29737   7.429   6.467  15.520  0.0869 -0.3508  0.2787
16324W        W29738   7.497  14.002   5.855 -0.0418  0.2462  0.1972
16325W        W29739  10.159  16.095  11.753  0.0090  0.1560  0.0881
16326W        W29740   4.006  18.449   5.758 -0.2822  0.0539  0.2631
16327W        W29741   0.548  17.214   1.735 -0.3533  0.1055  0.1931
16328W        W29742  17.175   6.504   2.432  0.0826  0.1178  0.0862
16329W        W29743  15.569  17.848   3.679 -0.1052 -0.0729  0.0982
16330W        W29744  18.033   7.871   2.109  0.0059  0.0131 -0.4539
16331W        W29745   3.656  17.683  12.596 -0.0342 -0.1096  0.0803
16332W        W29746  16.736  16.707   0.525  0.0670 -0.1063 -0.1477
16333W        W29747   0.615   7.216  15.399 -0.1986 -0.2619  0.3810
16334W        W29748   1.551   6.848  10.911 -0.0419 -0.1463 -0.1094
16335W        W29749  10.899  11.493   2.848 -0.0537 -0.0881  0.0795
16336W        W29750   8.729   3.586   4.003 -0.0944  0.0243 -0.1906
16337W        W29751  16.437  14.872   5.064 -0.0430 -0.0569  0.1320
16338W        W29752  12.828   1.729   6.019  0.1298  0.1814  0.0122
16339W        W29753  17.820   2.357  10.848 -0.0781  0.2797 -0.3398
16340W        W29754   2.004  15.320   3.612  0.3063 -0.2315 -0.0238
16341W        W29755  14.027  12.377  11.564  0.0008  0.0798  0.2864
16342W        W29756   9.080  11.154   9.877 -0.0469 -0.0133  0.4415
16343W        W29757  13.030   9.494   0.747 -0.0402  0.2127  0.0026
16344W        W29758   8.391   6.525   5.183 -0.0825 -0.0446 -0.2601
16345W        W29759   3.802   9.665  15.696 -0.0556 -0.1565  0.0560
16346W        W29760  16.672   3.169   3.576 -0.2230 -0.0149  0.3202
16347W        W29761   4.416  10.566   1.061 -0.1572 -0.0011 -0.0478
16348W        W29762   1.645  14.253   3.939  0.0947 -0.2104 -0.1623
16349W        W29763   3.614  15.892   2.500 -0.0935  0.2766  0.1343
16350W        W29764   1.768  11.136   3.861  0.0999  0.0867  0.0361
16351W        W29765  10.503  16.203  15.442 -0.0501 -0.0238 -0.3759
16352W        W29766   3.961  16.854  13.897  0.0648  0.2228  0.1933
16353W        W29767   2.247  18.317  13.604  0.3369 -0.0304  0.0509
16354W        W29768   1.530  13.962  14.741  0.2072  0.1065  0.0877
16355W        W29769   5.250  17.261  14.486  0.1745  0.0056 -0.1068
16356W        W29770   1.592   9.844  10.670  0.0875 -0.0304 -0.1290
16357W        W29771   4.398   1.986   1.448  0.0140  0.2269  0.3368
16358W        W29772   1.585   9.299  15.514  0.0224  0.4113  0.1847
16359W        W29773   6.037   1.168  11.033  0.0334 -0.0409  0.2002
16360W        W29774  11.054   6.173  15.199  0.0094 -0.5941  0.0649
16361W        W29775   2.293  14.039  13.371  0.0079 -0.1628  0.0246
16362W        W29776  17.882   7.342   1.213 -0.1590  0.0856 -0.2233
16363W        W29777  16.938   7.673  13.925  0.2300  0.2531 -0.1788
16364W        W29778  11.957   5.179   3.626  0.2522 -0.1261  0.0682
16365W        W29779  17.683  17.718   9.619 -0.0615  0.2476 -0.0081
16366W        W29780  15.436  14.047  12.170 -0.0960 -0.1338  0.0276
16367W        W29781   6.778   5.947   2.318  0.0300 -0.2054  0.2797
16368W        W29782  10.146  10.916  14.440  0.0211  0.1464 -0.2326
16369W        W29783   1.788  17.323   5.042 -0.2110 -0.0317  0.1424
16370W        W29784   5.716  15.682  12.704 -0.0181 -0.0529 -0.2043
16371W        W29785  12.171  16.623  10.918  0.2510 -0.1021  0.0471
16372W        W29786  16.632   1.922  16.152  0.2893  0.0589 -0.0322
16373W        W29787   4.366  13.970   4.305 -0.0305  0.1302  0.1591
16374W        W29788  18.348  11.138  13.276  0.2841  0.1658 -0.3563
16375W        W29789   3.095   0.935  15.698  0.0751  0.0920 -0.0410
16376W        W29790  11.253   0.891   4.339 -0.1329  0.1312 -0.3337
16377W        W29791   5.665  14.573  15.823 -0.1533 -0.1661  0.1584
16378W        W29792  13.684   7.251   5.657 -0.0397  0.1303 -0.3227
16379W        W29793  12.975   5.149   1.425 -0.0542  0.1636 -0.1916
16380W        W29794  11.130  11.284   5.039 -0.4936  0.3259 -0.0199
16381W        W29795   2.770   9.228   1.981 -0.0319  0.1290  0.0519
16382W        W29796  14.103  12.125   4.763  0.1228  0.0527  0.1934
16383W        W29797   9.721   5.209  14.057  0.2169 -0.1050  0.1387
16384W        W29798  15.223   6.983  13.882 -0.1045 -0.1181  0.0721
16385W        W29799  11.809   8.642  12.616  0.1052  0.1864  0.0622
16386W        W29800   6.237  13.101   4.772 -0.0465  0.0682 -0.2496
16387W        W29801  10.674   8.292   6.121 -0.3089  0.0007  0.0850
16388W        W29802  16.240  11.187  12.360 -0.1252  0.1414 -0.1488
16389W        W29803   9.619  17.026   3.892 -0.2133 -0.1626  0.5076
16390W        W29804  17.111  16.739  15.735 -0.0151 -0.3349  0.0260
16391W        W29805   4.156   3.849  12.711  0.0952  0.0818  0.1478
16392W        W29806   4.571  13.586   9.411  0.0883 -0.0169 -0.1546
16393W        W29807   1.659   2.648  14.364  0.3925  0.0621 -0.1659
16394W        W29808   2.840  16.678   1.238 -0.0642  0.1879  0.2943
16395W        W29809  13.340  17.680  12.629 -0.0056 -0.1574 -0.0205
16396W        W29810   2.448  12.723  12.874  0.1077  0.0654 -0.0279
16397W        W29811  11.169   8.189   3.223  0.1623 -0.0348  0.0268
16398W        W29812   9.786  12.870  12.187 -0.1179  0.0986  0.1504
16399W        W29813   9.464   4.760   5.734  0.2461  0.2770  0.4265
16400W        W29814  17.398   4.590  11.978 -0.2905 -0.2042  0.1972
16401W        W29815  12.129   8.007   4.121  0.3385  0.1297  0.0565
16402W        W29816   1.591   4.443   3.727  0.0173  0.3499  0.2146
16403W        W29817   8.178   5.888  15.066  0.0119 -0.0469 -0.1034
16404W        W29818   4.411   0.884   1.005  0.1153 -0.0697 -0.2322
16405W        W29819  15.948  16.072   0.132  0.2990  0.0052  0.3520
16406W        W29820  12.037   9.338  14.291 -0.2188  0.0430  0.0237
16407W        W29821   6.382   2.444  11.844  0.1778 -0.2789 -0.4900
16408W        W29822  16.149  11.324   5.970  0.0869  0.1688 -0.0388
16409W        W29823   4.527  14.927  15.517  0.3379  0.0300 -0.0371
16410W        W29824  16.132   7.797   2.209 -0.0395  0.1085  0.2578
16411W        W29825   3.553   5.594   3.029  0.1639  0.3338  0.1611
16412W        W29826   6.192  16.764   3.991  0.1355 -0.3034  0.0965
16413W        W29827   6.425   4.575   1.779 -0.1552 -0.0973 -0.3981
16414W        W29828   0.689   6.059   2.668  0.0387  0.0675  0.3313
16415W        W29829  14.066   8.900   3.090  0.3044  0.1158 -0.0477
16416W        W29830  13.895   8.850   0.398 -0.2602  0.0412  0.0786
16417W        W29831   0.163   6.182   4.829 -0.0408  0.6253  0.1449
16418W        W29832   1.865  12.353   4.533 -0.2346 -0.0623 -0.2478
16419W        W29833  12.986  10.171   3.621 -0.0917  0.2701 -0.0419
16420W        W29834  12.093  16.347   0.422  0.1824 -0.0660 -0.0841
16421W        W29835   8.057   7.437  13.125  0.1564 -0.0435 -0.1093
16422W        W29836   7.398   5.966  11.427 -0.1289  0.3169  0.1595
16423W        W29837   0.370  10.335  10.534  0.3480 -0.2016  0.4826
16424W        W29838  14.479   4.763  14.949  0.1831 -0.2456 -0.1944
16425W        W29839   9.522   4.363  15.543 -0.1372 -0.0661  0.0428
16426W        W29840   4.568   5.122   4.173 -0.0494  0.0431 -0.0333
16427W        W29841   4.877   7.772   0.721 -0.3354  0.2701 -0.1218
16428W        W29842  13.508  13.681  10.668 -0.3347 -0.2237  0.1110
16429W        W29843   5.542  15.657  13.180  0.0928  0.1135  0.0293
16430W        W29844   1.976   1.911  14.311  0.0025 -0.2184  0.1054
16431W        W29845  15.679   3.146   3.320  0.1356  0.0854 -0.0674
16432W        W29846   0.788  15.476   0.563 -0.1035  0.2503  0.1628
16433W        W29847   5.706   2.444   1.855 -0.2626 -0.0245  0.0762
16434W        W29848  11.776   9.790   3.160 -0.1722  0.0022 -0.3013
16435W        W29849   6.012   9.139   3.371 -0.1357 -0.1419  0.2614
16436W        W29850  12.115   5.603   6.252  0.0845 -0.0046  0.0197
16437W        W29851   0.144   9.609   4.189  0.2087 -0.2263  0.1926
16438W        W29852   8.589  14.389   4.295  0.0037 -0.2552 -0.2212
16439W        W29853   2.301   9.575   2.293  0.0668  0.0160 -0.0505
16440W        W29854  17.659  13.496   1.937  0.1010 -0.3485  0.1925
16441W        W29855  17.621   3.364  10.735  0.2575  0.3027 -0.2539
16442W        W29856   1.870   7.335  14.548 -0.0683 -0.1822 -0.2189
16443W        W29857   9.105  16.638  13.896 -0.1044  0.1601  0.0747
16444W        W29858   6.021  15.984  15.769  0.1279 -0.0775  0.1168
16445W        W29859   5.474   8.177   3.164 -0.3291  0.0642 -0.1618
16446W        W29860  17.013  14.961   5.708  0.1046  0.2231 -0.1984
16447W        W29861   9.152   7.627  14.024  0.0015 -0.1822 -0.1416
16448W        W29862   3.657  15.168  15.430 -0.0868 -0.1041  0.1772
16449W        W29863   8.113  17.204   1.021  0.0719 -0.0354 -0.0421
16450W        W29864   7.118   8.288  14.262 -0.1365 -0.0711  0.2215
16451W        W29865  13.138   7.470  11.406  0.2309 -0.1497  0.3462
16452W        W29866   7.210  11.559  13.649  0.3150  0.0243 -0.2320
16453W        W29867   7.883  10.230   4.369  0.2657  0.0016 -0.2077
16454W        W29868  10.410  15.958  16.244  0.1061 -0.1520  0.1476
16455W        W29869  14.389  12.618   0.110 -0.0212  0.0516 -0.2683
16456W        W29870   7.561  15.195  13.742  0.4859  0.4983 -0.0806
16457W        W29871   7.194   1.335   1.434 -0.0539 -0.0665  0.0468
16458W        W29872  12.349  14.410  13.927  0.2527 -0.0217 -0.0838
16459W        W29873  17.988  13.880   4.951 -0.0849  0.1977  0.2975
16460W        W29874  15.710  16.368  14.989 -0.0168 -0.1143  0.2282
16461W        W29875   8.890   5.431  15.772 -0.2573  0.0797  0.0531
16462W        W29876  15.620   2.796  13.076 -0.4067 -0.0238  0.1987
16463W        W29877  13.859   3.710  13.661 -0.1740 -0.2935  0.0046
16464W        W29878  11.823   1.675  12.773 -0.1212  0.1886  0.1181
16465W        W29879   8.959   9.833   6.514  0.0936  0.0378  0.0100
16466W        W29880  13.682   5.746   5.356  0.1640 -0.1044 -0.2658
16467W        W29881  13.803  10.516  14.653 -0.0977  0.1114 -0.3211
16468W        W29882   7.364  10.029  12.555  0.0926  0.0603 -0.1233
16469W        W29883   9.033  10.697   5.196 -0.3581 -0.1044 -0.0866
16470W        W29884  11.200   2.204  14.960 -0.0231 -0.1662 -0.1608
16471W        W29885   8.345   4.641  16.240  0.0241  0.4864  0.0919
16472W        W29886   2.180   9.302  13.636 -0.2623 -0.0919  0.0249
16473W        W29887  15.808   4.019   3.223  0.0501 -0.0614 -0.2248
16474W        W29888  11.364   7.422  11.690 -0.2691 -0.2181  0.0191
16475W        W29889  13.284  17.300  16.087  0.2813  0.1110 -0.0074
16476W        W29890  10.309   7.256   6.107 -0.0917  0.1480  0.2612
16477W        W29891   3.138  17.554   1.243 -0.0084 -0.0721  0.1124
16478W        W29892   1.279   8.068   4.809 -0.0698  0.1789  0.1340
16479W        W29893   8.107  17.664  14.934  0.0916  0.2105  0.2080
16480W        W29894   7.157  13.412  13.526 -0.1582  0.4429  0.1761
16481W        W29895   3.693  18.012  16.124  0.2781  0.0099 -0.2711
16482W        W29896   5.226  17.074   4.443  0.2923  0.1897  0.1497
16483W        W29897   5.774   0.508  10.424  0.0610 -0.0984 -0.0773
16484W        W29898  16.657   6.767   0.499  0.2764 -0.1642  0.0951
16485W        W29899   2.580   7.826   5.824  0.2898  0.1570  0.2997
16486W        W29900  11.853  10.079   1.331 -0.2207  0.4331  0.0695
16487W        W29901  11.456  16.486   5.691 -0.0948  0.0250 -0.1126
16488W        W29902  17.419   4.702   1.562  0.0766  0.2716 -0.1519
16489W        W29903  11.908  13.304  15.274 -0.4446 -0.0464 -0.0600
16490W        W29904  18.271  10.792  16.163  0.2172  0.1199 -0.0360
16491W        W29905  14.215  14.351   2.121 -0.1019  0.1003 -0.1011
16492W        W29906   1.931   2.529   5.212  0.0032  0.3224 -0.1143
16493W        W29907   3.561  13.693   1.025  0.1472  0.0883  0.1544
16494W        W29908  16.304   6.872  13.479 -0.2489 -0.1374  0.1934
16495W        W29909  12.831   5.521  15.581  0.0201 -0.0479  0.2228
16496W        W29910   7.499  16.850  10.599  0.2756 -0.2952  0.3950
16497W        W29911   6.414   7.383   2.945 -0.2922 -0.0030  0.1575
16498W        W29912  10.332   5.817  15.719  0.0951 -0.0515 -0.0634
16499W        W29913  12.462   2.040   2.225 -0.1583  0.1606 -0.1057
16500W        W29914  16.392   6.499   1.877 -0.0497 -0.1369  0.2309
16501W        W29915  18.460  13.724   5.037 -0.0810 -0.0336  0.0650
16502W        W29916   5.162  15.669   0.993 -0.0729 -0.0550 -0.0867
16503W        W29917  16.533   1.904   2.379  0.1347  0.3538  0.0285
16504W        W29918   6.487   0.417   3.082 -0.0430 -0.0062  0.4827
16505W        W29919  12.215  18.412   0.803 -0.0110 -0.3190  0.3208
16506W        W29920   0.615  12.318   5.116 -0.3414  0.1160 -0.1578
16507W        W29921   6.680   3.931  11.909 -0.0390 -0.0230  0.3113
16508W        W29922   5.709  16.044  16.128 -0.2821 -0.0233  0.1752
16509W        W29923  17.337  15.071  13.886  0.1059 -0.1436 -0.0732
16510W        W29924  12.692  17.482  15.561  0.1232 -0.0960  0.3521
16511W        W29925  16.612   8.360   1.815 -0.2496 -0.1513  0.0013
16512W        W29926  11.341   9.564  12.694  0.2248 -0.0288 -0.1842
16513W        W29927   1.629  10.231  12.152 -0.0967  0.0531  0.3274
16514W        W29928  11.053  11.674  15.317  0.1932  0.0998 -0.0970
16515W        W29929   4.679   0.378   3.624 -0.1356  0.3990  0.0589
16516W        W29930  16.050  14.389   0.593 -0.0658 -0.2561 -0.1218
16517W        W29931  12.431  13.924   4.350  0.2096  0.1731  0.0586
16518W        W29932   5.255  13.825  12.625 -0.1126 -0.2249 -0.1670
16519W        W29933   8.938  13.785   0.284 -0.1676  0.0661 -0.3517
16520W        W29934  10.408  13.735  15.089  0.3131 -0.1258 -0.0010
16521W        W29935  11.923  13.310  12.411  0.0802  0.1972  0.1374
16522W        W29936  15.505  14.966   0.884  0.1660 -0.1633  0.2714
16523W        W29937  15.637  18.184   0.915  0.3014 -0.0996  0.1327
16524W        W29938  14.950   3.967   0.469 -0.4623 -0.1001  0.1396
16525W        W29939   6.962   1.671   5.320 -0.2290  0.0740  0.4130
16526W        W29940   4.101  10.602   4.512 -0.1322 -0.2596  0.2269
16527W        W29941  17.516  13.819  14.563 -0.1931 -0.2778  0.0331
16528W        W29942   7.221   7.822   3.343  0.1633  0.1309  0.0316
16529W        W29943   8.691  13.538  14.835  0.0147 -0.1614  0.2542
16530W        W29944   6.690  11.041   1.420  0.1647 -0.1258  0.2560
16531W        W29945  11.463   0.106  12.962  0.1764  0.2028  0.0120
16532W        W29946   6.975   0.114   0.379  0.1404 -0.0360  0.1946
16533W        W29947  18.089  13.401  16.187  0.0733  0.0975 -0.1050
16534W        W29948   1.839   3.028  15.658  0.2106  0.1225 -0.0179
16535W        W29949   4.267  15.296  12.136 -0.1643 -0.0582  0.0077
16536W        W29950  11.333  16.921   5.469  0.0684  0.0754 -0.0626
16537W        W29951   7.924  16.326   4.140 -0.0412  0.0797 -0.0961
16538W        W29952   0.242   0.539  12.447 -0.4446 -0.1654  0.0813
16539W        W29953   6.893  15.885   9.875  0.0767  0.1724 -0.0297
16540W        W29954   1.567  10.572  13.586  0.1079 -0.1934 -0.1247
16541W        W29955  10.237   7.350  14.310  0.0771  0.0264  0.0734
16542W        W29956  16.475   4.708  15.979 -0.0732  0.0016  0.0245
16543W        W29957  13.124   2.612  11.272  0.0499  0.1061 -0.0685
16544W        W29958  11.080   2.724   5.679  0.2896 -0.0351  0.0095
16545W        W29959  10.095   4.533   3.950  0.0172  0.1357  0.2029
16546W        W29960   3.530  10.503  11.752  0.0271 -0.0192  0.0343
16547W        W29961   5.560  14.463  13.635 -0.2140  0.6152 -0.2927
16548W        W29962   0.388   0.072   0.818 -0.0163  0.3682  0.1825
16549W        W29963  17.883  12.587  11.107  0.0275  0.0944 -0.2637
16550W        W29964   9.596   6.723  15.429  0.3215  0.1595 -0.3473
16551W        W29965   8.358  14.277   9.592 -0.0310 -0.0273 -0.1246
16552W        W29966  15.976  15.381  16.216 -0.0335 -0.1744 -0.1341
16553W        W29967   6.974  12.732  12.735 -0.1177  0.1069 -0.0656
16554W        W29968   7.188  16.249  13.303 -0.0929 -0.0198 -0.1104
16555W        W29969   4.406   3.700  11.091 -0.1941 -0.0475 -0.2755
16556W        W29970   7.709   0.440  11.546  0.1220  0.2879 -0.2803
16557W        W29971   7.801  16.097   4.755 -0.0073  0.1627 -0.1903
16558W        W29972   3.471  18.275   5.622 -0.3709  0.0909  0.0828
16559W        W29973   0.059  13.568   0.185  0.2930 -0.2268  0.1349
16560W        W29974   9.980  15.968   4.826  0.0549  0.0414 -0.3276
16561W        W29975  15.483  11.602   5.314 -0.2080 -0.3087 -0.3492
16562W        W29976   0.057  11.182   4.289  0.1480  0.2879  0.3903
16563W        W29977  16.405  13.733   4.397  0.0207  0.1573 -0.1498
16564W        W29978   5.789   8.936  11.661  0.0570 -0.2651  0.1440
16565W        W29979  13.601   3.998  16.261 -0.3416 -0.0673  0.1506
16566W        W29980   4.540  14.267  10.623 -0.0514 -0.3820  0.0915
16567W        W29981   0.099  10.321   3.143 -0.1809 -0.1332 -0.1834
16568W        W29982   3.799   2.372  10.662  0.2597 -0.0214  0.2253
16569W        W29983  12.898   4.496  10.033  0.1687  0.2869 -0.0408
16570W        W29984   4.744   6.094  12.352 -0.1713  0.0633 -0.3386
16571W        W29985   5.619  18.404  13.413  0.5892 -0.4063 -0.2264
16572W        W29986  11.414  16.808  15.078 -0.0562 -0.2816  0.0492
16573W        W29987   9.478   6.800   1.682 -0.0879  0.0533  0.0843
16574W        W29988   8.864   7.146   6.197 -0.1936 -0.2684  0.0043
16575W        W29989   8.521  10.234  11.202  0.0418  0.0929 -0.0507
16576W        W29990  18.010   4.680   5.683 -0.1027 -0.3869  0.0033
16577W        W29991   9.060  15.565   3.089  0.0882 -0.0880 -0.3377
16578W        W29992   8.829   4.901   5.999 -0.0701  0.0191 -0.4844
16579W        W29993  12.553  16.106   2.725  0.1370 -0.1479 -0.0582
16580W        W29994   8.706  10.304   0.056 -0.3939  0.1619  0.2138
16581W        W29995   6.481   7.265   4.344 -0.3058 -0.1828  0.2676
16582W        W29996  16.036  10.354  12.919  0.2376 -0.1624  0.2166
16583W        W29997  16.937  18.168   3.920  0.0437  0.1865  0.1251
16584W        W29998   8.025  16.344  12.816  0.2157 -0.1465 -0.0308
16585W        W29999   7.626   1.671   1.006  0.4973 -0.0126  0.0114
16586W        W30000  16.015  14.836   4.784  0.1233  0.3058  0.1177
16587W        W30001  12.485   2.246   0.524 -0.5063 -0.1347 -0.0848
16588W        W30002  10.878   0.988   1.642  0.0091 -0.3084 -0.0322
16589W        W30003  16.804  13.169  14.479 -0.0729 -0.1851  0.0731
16590W        W30004   1.796   9.835  15.692 -0.0394 -0.2065 -0.4728
16591W        W30005  18.219   7.586  15.199  0.3640 -0.0472  0.0554
16592W        W30006  11.429  17.168  13.653  0.1862 -0.1601 -0.1567
16593W        W30007  10.834  13.750  16.240 -0.0432  0.0717  0.0769
16594W        W30008   2.163   2.397  15.432 -0.2361 -0.1901 -0.1245
16595W        W30009  13.010   9.815   5.860 -0.0718  0.0808 -0.0507
16596W        W30010   7.844   2.344   3.401  0.0578 -0.3196  0.0421
16597W        W30011  12.248  13.565  13.447 -0.0471  0.1475 -0.0367
16598W        W30012  13.804  15.967  14.985  0.2212  0.0382  0.4576
16599W        W30013   4.982  12.362   1.752  0.0345 -0.1968  0.1120
16600W        W30014   3.705   7.496  14.899 -0.1076  0.0541 -0.1026
16601W        W30015   4.745  13.207   2.169 -0.1510  0.0354  0.2541
16602W        W30016  15.405  13.838  11.660  0.1517 -0.1454  0.2327
16603W        W30017  13.670   1.056  12.010 -0.2364 -0.1508  0.1392
16604W        W30018  16.814   5.232   1.138  0.0589  0.0791  0.2899
16605W        W30019  11.597  12.474   2.182  0.0994 -0.1029 -0.1667
16606W        W30020   0.077   0.119   5.839 -0.1812 -0.1900 -0.0467
16607W        W30021  18.438   5.280  12.142 -0.4067 -0.1563  0.1095
16608W        W30022   0.126   3.607   5.520  0.0570 -0.2653  0.0717
16609W        W30023  17.918   1.775  15.915 -0.0454  0.3135  0.2474
16610W        W30024  13.547   1.829   2.142 -0.1647  0.4748 -0.2288
16611W        W30025   0.689   6.803   5.481  0.2393  0.1539 -0.1457
16612W        W30026   6.015   7.339   3.276 -0.0648  0.1346 -0.3574
16613W        W30027  17.459   6.486   4.561  0.0275  0.3906  0.0339
16614W        W30028   1.107   2.758   2.430 -0.5177  0.2215  0.2881
16615W        W30029   2.280  17.739   2.506  0.0365 -0.0791  0.0746
16616W        W30030   3.761   9.663  13.791  0.1490  0.5889  0.1795
16617W        W30031   0.904  14.690   1.810 -0.0673 -0.2763  0.0444
16618W        W30032   9.889   4.231   3.223 -0.0106 -0.2728  0.0562
16619W        W30033   4.177  10.983  15.510  0.2290  0.1029  0.0752
16620W        W30034  10.553   4.584   1.963 -0.3196 -0.1254  0.1466
16621W        W30035   7.575   7.239  13.581  0.0098  0.3996 -0.1823
16622W        W30036   8.869   3.629   5.710  0.0650  0.1738  0.3190
16623W        W30037   2.989   5.705   3.295 -0.0270 -0.0501  0.0428
16624W        W30038  17.253   2.622   0.901 -0.1009  0.0346 -0.1804
16625W        W30039  17.179   8.426  15.136  0.2027 -0.0699  0.1471
16626W        W30040   2.819  16.789  12.819 -0.0010  0.0892 -0.0156
16627W        W30041   7.012   1.075   2.020  0.2102 -0.0435 -0.5574
16628W        W30042   8.099   6.978   4.083 -0.0420  0.0308 -0.0869
16629W        W30043   4.634   6.833   0.091  0.1317  0.2233  0.2414
16630W        W30044   3.689   9.499   2.261  0.0581 -0.1323 -0.1339
16631W        W30045   7.742  18.349   2.442 -0.0304 -0.0801  0.1598
16632W        W30046  15.965   5.192  11.354  0.0590  0.2147  0.1345
16633W        W30047   6.086  18.424  10.667 -0.3056 -0.0488  0.2947
16634W        W30048  15.362  17.027  13.211  0.1424 -0.2600  0.0184
16635W        W30049  14.777   4.454   1.854  0.0377 -0.0297  0.1536
16636W        W30050   2.425   5.123  14.491  0.0504 -0.0446  0.0679
16637W        W30051  18.514   0.192  12.092 -0.1559  0.0745 -0.0049
16638W        W30052  15.878  13.019  14.059  0.2330 -0.2103  0.1550
16639W        W30053   5.079  16.202   2.228 -0.0203 -0.1543  0.1366
16640W        W30054  13.779  13.686   2.477  0.1309  0.1542  0.0678
16641W        W30055  17.784  10.648   2.642 -0.1963  0.0540  0.1481
16642W        W30056  16.443   4.915   1.385 -0.2317  0.0555  0.3916
16643W        W30057  11.840   9.385  13.329  0.3162  0.0645  0.2341
16644W        W30058  17.594   8.123   0.867 -0.0045 -0.0601  0.1500
16645W        W30059   9.227   6.538   5.579 -0.0556 -0.0934  0.3157
16646W        W30060   6.369  17.301  13.037 -0.0499  0.3645 -0.1071
16647W        W30061   4.602   1.718   0.944 -0.1298 -0.0114 -0.2715
16648W        W30062   8.665  12.044   2.060 -0.0590  0.3230  0.2214
16649W        W30063   2.463   6.329  14.797 -0.4887  0.1646  0.0155
16650W        W30064   1.590  15.839   3.671 -0.1143 -0.0114 -0.0490
16651W        W30065  13.613   3.924   1.929 -0.0508 -0.0044 -0.0259
16652W        W30066  11.863   5.335   5.785 -0.0310  0.0298  0.0521
16653W        W30067  10.111   3.174   0.173  0.2321  0.1202  0.0265
16654W        W30068   1.601   1.905  11.071 -0.0892  0.0073  0.0482
16655W        W30069   0.369  12.051  12.153  0.1375 -0.4576 -0.2513
16656W        W30070  17.155   8.705   4.897 -0.0553 -0.4202  0.1609
16657W        W30071  15.683  16.230   3.876 -0.3039  0.1421 -0.0224
16658W        W30072   9.279   7.136  11.918  0.0009  0.0920 -0.4565
16659W        W30073   4.712   5.936  14.032 -0.0011  0.1167  0.3086
16660W        W30074  11.443  15.809  12.902  0.5014 -0.0374  0.0897
16661W        W30075   5.524   0.971   3.943  0.0566  0.1442  0.4201
16662W        W30076  16.297   5.545   3.998  0.1757  0.0938  0.0312
16663W        W30077   7.730   9.513  11.935  0.1634 -0.2374  0.0940
16664W        W30078   9.331   1.314  14.031  0.1762  0.1294  0.0496
16665W        W30079  16.335   5.865   2.953  0.1027 -0.0486  0.0985
16666W        W30080  12.206   5.840  14.641 -0.1142 -0.1642  0.2492
16667W        W30081   7.254  15.650   2.547  0.2501  0.0658  0.2940
16668W        W30082  15.669   8.898   4.606  0.2750 -0.0385  0.4113
16669W        W30083  10.597  14.706  13.900 -0.0908 -0.1427  0.2470
16670W        W30084  16.128  12.552   4.120 -0.4259  0.0428 -0.2370
16671W        W30085   6.805  10.032   3.769  0.0535 -0.1630  0.0783
16672W        W30086   5.743   1.817   3.711  0.0837  0.0938 -0.1659
16673W        W30087  11.170  14.554  12.315  0.3343  0.1191 -0.0126
16674W        W30088   3.610  18.056  13.534  0.2335 -0.2114 -0.0671
16675W        W30089   0.982  11.006   0.157  0.0760 -0.2365  0.0984
16676W        W30090  17.578   8.205  14.445  0.2080 -0.0984  0.0537
16677W        W30091   5.902  14.586  14.811 -0.0084  0.1827  0.2625
16678W        W30092   2.859  12.418   3.128 -0.4108  0.0721  0.0530
16679W        W30093   4.696   6.538  11.074  0.0431  0.1541  0.3627
16680W        W30094   7.898   6.985  13.276 -0.1732  0.1979 -0.2454
16681W        W30095  16.455  14.285  14.760  0.1810 -0.2133 -0.3118
16682W        W30096   4.071  18.013   0.821 -0.3465  0.0513 -0.1726
16683W        W30097  14.048   1.410   2.944 -0.4138 -0.0768  0.5369
16684W        W30098   7.393   4.008  12.499  0.1957 -0.3035 -0.0860
16685W        W30099   2.014   4.340   0.339 -0.2379  0.1351  0.2591
16686W        W30100  14.545   5.373  13.140 -0.1431 -0.0532  0.0017
16687W        W30101  17.902   2.932   4.310  0.1758 -0.0208 -0.3090
16688W        W30102  16.921   1.451   4.527 -0.0070  0.2840 -0.3873
16689W        W30103   6.471   6.804  15.462  0.0274 -0.0469  0.2040
16690W        W30104   2.826  12.817   1.609 -0.1498  0.1610  0.1191
16691W        W30105  13.236  12.607  12.516 -0.3526 -0.5426 -0.0530
16692W        W30106  15.760   3.995   5.702 -0.1858  0.0601  0.1824
16693W        W30107   0.907   2.402  15.527  0.0494  0.1820 -0.3338
16694W        W30108  14.664  16.882   3.259 -0.0453  0.2268  0.2119
16695W        W30109   7.123   6.337   4.676 -0.1437 -0.1340 -0.0045
16696W        W30110   0.418   6.177   5.375  0.1412 -0.2041  0.0272
16697W        W30111   7.169  10.516   2.205 -0.0409  0.0076 -0.1249
16698W        W30112   3.953  10.340  10.639 -0.0300  0.3696 -0.1562
16699W        W30113   4.456   5.163  10.740 -0.1133  0.0137 -0.0518
16700W        W30114   3.727  14.732   3.381  0.0912 -0.2557  0.0126
16701W        W30115   3.609   7.480  13.990 -0.0961 -0.1376  0.0324
16702W        W30116   2.402  17.396  11.380 -0.0455  0.2709 -0.1101
16703W        W30117  15.025  17.894   1.942 -0.1252  0.0616 -0.0589
16704W        W30118  12.720  16.006   4.755 -0.2372  0.1217 -0.0342
16705W        W30119   9.638  14.826  14.173 -0.0858 -0.1928  0.0530
16706W        W30120  12.181  16.497   9.973  0.0144  0.2834 -0.1086
16707W        W30121   2.052   2.367  13.515  0.0999 -0.0516 -0.2183
16708W        W30122  16.814  13.487  13.820 -0.1820  0.1062  0.2355
16709W        W30123  11.383   8.383   3.681 -0.1218  0.2820  0.3023
16710W        W30124   9.114  14.654  13.026  0.1085  0.1645 -0.3550
16711W        W30125  14.045  15.803   2.239  0.0433  0.1930  0.4642
16712W        W30126  17.854   6.521   5.249  0.0129 -0.0008 -0.0716
16713W        W30127  15.575   3.062  13.556  0.1161 -0.2464  0.3251
16714W        W30128   5.666  16.777   1.123  0.0723 -0.0228 -0.1539
16715W        W30129  10.905   7.148   4.136 -0.3543  0.3988  0.2026
16716W        W30130   6.671   1.108  13.326  0.3297 -0.2670 -0.1643
16717W        W30131  11.191  18.198  11.711  0.2626 -0.0804 -0.0654
16718W        W30132   6.775  14.305  12.002  0.0018  0.2406 -0.4182
16719W        W30133  13.794   3.598  12.725 -0.0412 -0.0727 -0.0864
16720W        W30134   5.683  11.944   5.491 -0.0164  0.0721 -0.0497
16721W        W30135   1.188   0.697   2.186 -0.0905 -0.1237  0.0824
16722W        W30136   6.906   6.905   1.867 -0.0873  0.0048 -0.1688
16723W        W30137   2.229   9.720   0.832  0.3371 -0.1876 -0.0196
16724W        W30138   5.828   9.882  15.196 -0.1953 -0.3157 -0.3454
16725W        W30139  11.828  11.859   3.344  0.1331 -0.0584 -0.2836
16726W        W30140  17.562   4.684  15.088 -0.0866  0.1420 -0.0430
16727W        W30141  13.746   2.070   6.227  0.0948  0.0721  0.0636
16728W        W30142   0.658   8.589   4.242 -0.0067  0.1155 -0.3476
16729W        W30143  16.475  15.299  15.931  0.3199  0.0205 -0.0315
16730W        W30144  17.895  17.425   3.931  0.1772 -0.1459  0.2541
16731W        W30145   4.630   6.701  13.051 -0.0849  0.1382 -0.2176
16732W        W30146   7.656  11.315   3.599  0.0376 -0.1596  0.1758
16733W        W30147   5.090   8.006   5.315  0.1905  0.3811  0.1636
16734W        W30148  17.885   0.548  12.649  0.0132 -0.0810 -0.3614
16735W        W30149  17.104  17.712   2.835 -0.1798 -0.0379 -0.2763
16736W        W30150   6.510  13.667   4.834 -0.2472 -0.2862 -0.0344
16737W        W30151  15.357   1.661  12.678  0.1015 -0.1763  0.0034
16738W        W30152   3.335   4.868  14.062  0.3761 -0.1347  0.2106
16739W        W30153  14.875   6.140  11.052 -0.1720 -0.0585 -0.3200
16740W        W30154  13.391   6.820   1.084  0.0832  0.0217 -0.1900
16741W        W30155   9.106  18.168   2.898 -0.0019  0.1704 -0.0218
16742W        W30156  14.861   1.975  14.871  0.2377 -0.3115  0.4511
16743W        W30157  10.458   9.804  11.122  0.2498 -0.0075 -0.0734
16744W        W30158   1.040   2.807   1.560  0.0252 -0.1487 -0.0021
16745W        W30159   0.420   4.769  11.120  0.1493 -0.0960  0.0009
16746W        W30160   4.309   4.888   0.170  0.0145 -0.1434 -0.2219
16747W        W30161   1.580  18.020   4.203 -0.1237  0.0609  0.1962
16748W        W30162  12.435  16.438   2.007  0.0745  0.0264 -0.0696
16749W        W30163  16.701  13.278  13.339 -0.2205 -0.0140  0.1140
16750W        W30164   3.256   4.136   1.644 -0.2691  0.0818  0.0655
16751W        W30165  17.607   6.309  11.856  0.3810 -0.1331 -0.0170
16752W        W30166   3.878   5.981   0.315 -0.1110 -0.0985 -0.2451
16753W        W30167   5.208  11.712  11.897 -0.0474  0.1299 -0.0770
16754W        W30168   2.023  10.245  11.787  0.3025 -0.0242  0.0206
16755W        W30169  17.146   8.312   2.192  0.1143  0.1040 -0.2554
16756W        W30170   9.699  12.424  11.857 -0.2595 -0.0241 -0.0618
16757W        W30171   6.862   7.350   0.823  0.0110 -0.0079  0.0406
16758W        W30172   5.203   9.519  12.059 -0.0219  0.0506 -0.1954
16759W        W30173  12.561  16.701   2.418 -0.0933 -0.0526 -0.2506
16760W        W30174  15.993  17.567  12.221  0.3135 -0.0540 -0.1631
16761W        W30175  18.068   9.483   5.167 -0.1122  0.5056  0.2328
16762W        W30176   2.998   2.334  13.987 -0.1063 -0.4171 -0.0045
16763W        W30177  17.862  14.174  14.800 -0.1604 -0.1835 -0.0839
16764W        W30178   8.509   4.666  12.891  0.1973 -0.0202  0.0823
16765W        W30179   5.613   1.714  12.112 -0.1780  0.3059  0.3273
16766W        W30180   3.824   5.611  14.268 -0.1433 -0.0075  0.0523
16767W        W30181   3.153   6.376   2.110  0.0961 -0.0701 -0.5094
16768W        W30182  17.313  13.722  15.043  0.0255 -0.0539 -0.1080
16769W        W30183   2.927  16.728  12.288  0.2039  0.1451  0.0885
16770W        W30184  14.984   4.534  14.838  0.3419 -0.3126 -0.0044
16771W        W30185   2.762  11.013   2.022 -0.2437  0.2062 -0.0439
16772W        W30186  11.424   4.749   2.225  0.1430  0.0992 -0.3301
16773W        W30187   5.308   2.167  15.841  0.0077  0.2471  0.2014
16774W        W30188   4.201   6.117  15.797  0.2478 -0.2895 -0.0249
16775W        W30189   4.451   0.327  12.895  0.1568 -0.1096  0.2064
16776W        W30190  15.559   6.959   1.544  0.1042  0.1511  0.0897
16777W        W30191   6.308  15.489   4.389 -0.5805  0.1525  0.1541
16778W        W30192  16.449  18.058   5.407  0.0491 -0.2070 -0.2739
16779W        W30193  11.740  15.692  15.262 -0.2478  0.2130  0.3707
16780W        W30194   6.882   0.019  12.866 -0.1020  0.0830 -0.0442
16781W        W30195  10.048  18.341  10.511  0.1344 -0.0009 -0.0225
16782W        W30196   0.971   4.377  11.972  0.0854  0.0168  0.0704
16783W        W30197   1.624   1.405  10.963 -0.2423 -0.0372 -0.0565
16784W        W30198   4.750  10.463   4.647  0.1575 -0.1777  0.5235
16785W        W30199   6.678  14.900   3.499  0.5277 -0.1736 -0.0473
16786W        W30200   9.000  11.838  13.476 -0.3685  0.1729  0.0371
16787W        W30201   0.600   0.308  11.611 -0.3593 -0.1922 -0.0411
16788W        W30202  16.257   9.123   2.165  0.1311 -0.1299 -0.1741
16789W        W30203  12.998  10.568  15.396 -0.2188 -0.1598  0.0488
16790W        W30204  10.863   7.171   3.286  0.3798 -0.0331 -0.0867
16791W        W30205  15.452   3.715   0.946  0.0835 -0.0696 -0.1253
16792W        W30206  15.909   5.963  15.309 -0.1526 -0.3046  0.0969
16793W        W30207   5.178   9.522   0.498  0.0348 -0.4299  0.0585
16794W        W30208  16.107   0.048  12.158 -0.1460 -0.2127 -0.2140
16795W        W30209   7.771   4.241  12.611  0.0845 -0.4981 -0.0093
16796W        W30210  14.322   3.093   3.220 -0.1221  0.1967  0.1693
16797W        W30211   9.215   3.732  15.280 -0.0340 -0.0642  0.1768
16798W        W30212   1.380  13.970  13.166 -0.0143 -0.0400  0.1757
16799W        W30213   5.814   0.198  15.492  0.2098 -0.2150 -0.3500
16800W        W30214   1.927  16.216   3.910  0.0705 -0.1023 -0.2611
16801W        W30215  10.891   0.376  10.243  0.2233  0.0446 -0.1918
16802W        W30216  10.717   8.654  13.885  0.1156  0.2314  0.0652
16803W        W30217  11.125  10.817  15.383 -0.0902 -0.3832  0.2116
16804W        W30218  13.386   5.707   0.449 -0.3410 -0.1353 -0.4531
16805W        W30219   1.293   5.494   5.343  0.2480  0.2111 -0.2463
16806W        W30220  10.454  12.642  10.180  0.2427  0.2238  0.0716
16807W        W30221   1.248  11.376  15.709 -0.1438  0.1471 -0.0352
16808W        W30222  11.667   9.897  13.158 -0.3921  0.1153 -0.1538
16809W        W30223   7.700  15.530   0.207 -0.0358  0.2026  0.1311
16810W        W30224   5.893  15.601  15.016 -0.0026 -0.0919  0.0489
16811W        W30225   9.499   1.402   4.843 -0.2061 -0.1951  0.1639
16812W        W30226   3.138  14.693  14.730 -0.1563  0.1665  0.0062
16813W        W30227   8.073   6.489   2.676  0.5114 -0.0212 -0.1358
16814W        W30228   6.477   2.399   0.826  0.0875  0.0966  0.0295
16815W        W30229   4.516  14.250  11.509  0.0087 -0.0108  0.1488
16816W        W30230  12.023   3.128  15.976 -0.0338  0.0677 -0.0703
16817W        W30231   4.489   6.060  10.262  0.2996  0.0206 -0.0139
16818W        W30232  13.194  15.798   3.457  0.1213  0.0804 -0.1203
16819W        W30233   9.531   4.884  12.752  0.1122 -0.1670  0.0130
16820W        W30234  12.565  16.495  11.729  0.1211  0.2145  0.1621
16821W        W30235   9.375   2.290  15.458 -0.2568 -0.2833 -0.1825
16822W        W30236   5.373   0.794  14.466  0.1679 -0.4836 -0.0576
16823W        W30237  10.628  13.130   4.847 -0.0735  0.0918  0.3824
16824W        W30238  12.986   7.596   6.408 -0.1070 -0.2047  0.3987
16825W        W30239  11.494  15.342   5.216  0.0488  0.0647  0.2489
16826W        W30240  10.746   6.054  11.514  0.0368  0.0774  0.0496
16827W        W30241   0.245   1.564  13.882  0.3183  0.1125  0.0466
16828W        W30242   7.741   4.559  11.551 -0.2064 -0.0430  0.1743
16829W        W30243   0.586   2.055   1.211 -0.1953  0.0032 -0.0481
16830W        W30244   5.334  17.294  15.349 -0.3095  0.1707  0.2697
16831W        W30245  15.193  15.117  10.265 -0.0024  0.0183  0.0631
16832W        W30246  13.268  15.262  11.795 -0.1259 -0.1437  0.0649
16833W        W30247  14.986  10.743   1.874 -0.0739 -0.2192 -0.0375
16834W        W30248   6.706   5.760  15.242  0.2307  0.0396  0.2991
16835W        W30249   5.195  15.708  11.097  0.2426  0.3492 -0.1720
16836W        W30250   4.616   9.410   3.818  0.2537  0.0251  0.2020
16837W        W30251   6.314   8.820   4.391  0.1563  0.2470 -0.2030
16838W        W30252   4.093   6.531  14.014  0.2440 -0.1471  0.0012
16839W        W30253   9.538   0.388  16.131  0.2754 -0.0417 -0.0283
16840W        W30254   4.308   1.455   1.662 -0.1811  0.1786  0.2283
16841W        W30255   3.441   5.293   0.987  0.0003  0.2920  0.0429
16842W        W30256   9.485  16.014   3.903  0.0741  0.0739  0.1410
16843W        W30257   1.237  18.166   3.731 -0.2197  0.1710 -0.0267
16844W        W30258   9.884  12.778  16.110 -0.1846 -0.0619 -0.0758
16845W        W30259   2.760  16.304   2.798  0.0363 -0.1768 -0.2423
16846W        W30260  17.840  15.950  11.765 -0.0856 -0.0818 -0.0435
16847W        W30261   2.505   6.588  15.317 -0.2016  0.1521 -0.2174
16848W        W30262   5.509   0.867  12.334 -0.1737  0.0515 -0.1921
16849W        W30263  16.008  12.068  11.896 -0.0685  0.3374 -0.1307
16850W        W30264   7.634  14.233   0.565 -0.1195 -0.2785  0.3387
16851W        W30265  16.344   2.696  12.126 -0.0781  0.1644 -0.2272
16852W        W30266   2.243  10.002   1.666 -0.0208  0.2674  0.0462
16853W        W30267  14.225  11.950   2.045  0.0938 -0.0856  0.0653
16854W        W30268   8.374   2.651  12.520  0.1524 -0.1875  0.0572
16855W        W30269   6.900   0.192   3.606 -0.0504  0.0998 -0.2664
16856W        W30270   1.485   7.140   5.732 -0.0389  0.1418 -0.1054
16857W        W30271   3.724   6.540   4.084 -0.2526 -0.1379  0.0049
16858W        W30272   9.144   3.074  13.078 -0.0315  0.0659  0.2517
16859W        W30273   5.129  13.975   0.145 -0.2177  0.1023  0.0305
16860W        W30274  17.013   6.989  10.769  0.1365  0.3218 -0.0467
16861W        W30275  16.859  11.629   5.364  0.2094 -0.3808  0.0409
16862W        W30276   8.536  16.839   1.052 -0.3120 -0.2708 -0.0689
16863W        W30277   4.866  18.380   2.048  0.2482 -0.3012  0.1338
16864W        W30278   7.563   2.446  16.211 -0.0523 -0.1872 -0.4022
16865W        W30279  17.740   1.451   2.695  0.1731  0.1513 -0.0192
16866W        W30280  12.002  14.757  11.214 -0.1531  0.2470  0.0984
16867W        W30281  12.902   4.041  15.809  0.0285 -0.0479 -0.0397
16868W        W30282  16.719  12.381  13.340  0.1197  0.1222  0.1543
16869W        W30283  18.230   5.372   0.995 -0.2738 -0.0128  0.1532
16870W        W30284   4.897  13.407   0.759  0.4659  0.0487  0.0602
16871W        W30285  16.787   4.110   0.272  0.0639  0.3811 -0.1996
16872W        W30286  13.155   0.342  13.995 -0.2704  0.3429 -0.1167
16873W        W30287   7.656   6.808  15.001 -0.0470  0.4065  0.0443
16874W        W30288   0.422   9.469  10.638 -0.1087 -0.0162  0.0012
16875W        W30289   1.808  15.910  11.285 -0.0651  0.1823  0.1066
16876W        W30290  10.610   7.990   1.935  0.0930 -0.5106  0.3058
16877W        W30291   7.938  10.378  11.445 -0.1730 -0.0793 -0.1127
16878W        W30292   9.216   6.510   1.373  0.2486  0.1971  0.0650
16879W        W30293  11.623   1.921   5.237 -0.3447 -0.3425 -0.0515
16880W        W30294  13.395   1.383   5.778 -0.1922 -0.0024  0.0755
16881W        W30295  15.029   6.226  15.455 -0.0991 -0.1488 -0.4524
16882W        W30296   1.424  16.722   2.126  0.1045 -0.3213  0.0397
16883W        W30297   1.130  14.509  11.809  0.1080  0.1791  0.1657
16884W        W30298  15.823   8.659   5.498  0.0194  0.0963  0.1168
16885W        W30299  11.079  12.993  14.433 -0.2563  0.3869  0.2045
16886W        W30300   6.360   9.753  15.005 -0.0014  0.0152  0.0665
16887W        W30301  11.397  15.319   2.114 -0.0225  0.1953 -0.2153
16888W        W30302   0.287  16.897   1.412  0.2202  0.0506  0.1190
16889W        W30303  10.640   6.080   4.709 -0.1446 -0.1424 -0.0929
16890W        W30304  15.539   9.292  16.002  0.0923 -0.1299 -0.0838
16891W        W30305   9.126   7.251   0.742  0.0937  0.0461 -0.5390
16892W        W30306  11.284   8.098   4.071  0.2425  0.0296  0.3041
16893W        W30307   6.163  18.227  14.153 -0.3048 -0.0251  0.2915
16894W        W30308   7.352  12.872   1.774  0.1648  0.1734  0.1190
16895W        W30309  13.966   5.936  11.128 -0.0325  0.3706  0.2075
16896W        W30310   7.328  15.715   3.574 -0.1765  0.1200  0.1125
16897W        W30311   7.950   3.309   6.217  0.0843 -0.2516 -0.2960
16898W        W30312   7.928  11.740   4.441  0.1839  0.1108  0.0829
16899W        W30313   3.571  11.470  13.914 -0.0008  0.4967  0.0329
16900W        W30314  10.130  13.388  14.746  0.2063 -0.0674 -0.2316
16901W        W30315  14.057   1.115  12.333  0.1161  0.1115  0.3906
16902W        W30316  17.143   6.173   2.006 -0.2971  0.1745 -0.0923
16903W        W30317   6.948  16.034   2.722  0.4517  0.2984 -0.2042
16904W        W30318  12.843  14.557   4.791  0.0195 -0.1178  0.2253
16905W        W30319   6.502  16.420   0.855 -0.3387 -0.1191  0.1301
16906W        W30320   5.017   9.482  14.354 -0.0666 -0.4163  0.0355
16907W        W30321  14.349  11.015  11.679  0.0231  0.1908 -0.0529
16908W        W30322   2.958  18.429   1.141  0.1087  0.0275 -0.0336
16909W        W30323  12.878   9.957  15.738  0.1816 -0.0149 -0.0750
16910W        W30324   6.020   6.028  11.963  0.2618 -0.2201 -0.3045
16911W        W30325   2.173   8.054   1.950 -0.0456 -0.3688  0.0745
16912W        W30326   1.427   0.017   4.173  0.0380  0.1795 -0.0894
16913W        W30327  14.021  13.377  12.952  0.1791 -0.3874 -0.0462
16914W        W30328   4.218   3.211  11.142  0.0835 -0.6268 -0.1612
16915W        W30329   3.434  14.396  13.244 -0.1017 -0.0008 -0.1042
16916W        W30330   1.399  12.711  11.782 -0.0630  0.0994  0.2593
16917W        W30331   1.556  10.308  10.411  0.0200 -0.1754 -0.1515
16918W        W30332  16.776  12.793  12.991  0.0423  0.1655 -0.3700
16919W        W30333  17.676  12.031   2.980 -0.0999 -0.1317  0.2460
16920W        W30334   2.620   7.825   5.372  0.0122  0.1786  0.0064
16921W        W30335   3.865   2.791  11.057 -0.3173  0.0539  0.0558
16922W        W30336  15.925   3.770   2.746 -0.0861  0.4812  0.4370
16923W        W30337  18.117  11.772   4.449 -0.1969 -0.2577  0.2274
16924W        W30338   7.863   3.095   0.695  0.0261 -0.1112  0.0010
16925W        W30339   1.246  16.488   3.070 -0.1402  0.2353 -0.2089
16926W        W30340   4.415  17.916  10.436  0.0394  0.1247 -0.0873
16927W        W30341   8.767   4.366  14.356  0.2181  0.0654  0.1217
16928W        W30342   1.222   8.565   4.439 -0.0630  0.0950  0.0304
16929W        W30343  17.321  11.275  15.677 -0.1634  0.1057  0.0400
16930W        W30344   0.770   5.607   2.897 -0.0877 -0.1881  0.3225
16931W        W30345  15.815  15.948  13.655  0.0331  0.2427  0.0017
16932W        W30346  16.532   2.717   5.614  0.0880 -0.1966  0.1604
16933W        W30347  16.623   4.350   1.393  0.4117 -0.0597 -0.2593
16934W        W30348  14.508   9.239   0.513  0.2585 -0.0237  0.1470
16935W        W30349  18.428  13.596  11.847  0.2200  0.1290 -0.1050
16936W        W30350   8.502   6.251  14.867  0.1012  0.1179 -0.1355
16937W        W30351  14.847   5.019  13.945 -0.0139 -0.1089  0.3668
16938W        W30352   5.045   0.160  15.590  0.3288 -0.0253  0.3586
16939W        W30353  17.230   2.788  10.155 -0.2834  0.0982 -0.3346
16940W        W30354  13.489  15.259   0.177  0.0482  0.1473 -0.0817
16941W        W30355   3.092  10.900  14.478 -0.1105 -0.1729  0.0644
16942W        W30356  11.948  10.470   3.564 -0.1585  0.0836  0.0668
16943W        W30357  11.384  12.038   2.605 -0.4469 -0.1846 -0.4108
16944W        W30358   2.067   9.554   3.001 -0.1347  0.3329  0.1021
16945W        W30359   9.552   9.754   3.300  0.0083  0.1731 -0.3065
16946W        W30360  15.981   6.980   3.722 -0.0987 -0.2477  0.2971
16947W        W30361  17.567  11.050   2.752  0.3933  0.1241 -0.1201
16948W        W30362  11.824  10.609  10.242  0.0465  0.1293 -0.2217
16949W        W30363   9.840  16.138   1.619 -0.0216 -0.0303 -0.1139
16950W        W30364   7.167   7.648  12.674 -0.1134  0.3051 -0.0615
16951W        W30365   2.562  12.211   2.166 -0.3314 -0.0792  0.0351
16952W        W30366  15.570   1.959   3.854  0.2763 -0.3110 -0.2812
16953W        W30367  12.107   4.564  13.109  0.2306 -0.2879 -0.1005
16954W        W30368  17.548  15.635  12.821 -0.3027  0.2497 -0.0806
16955W        W30369  12.610  10.497  12.790 -0.3563  0.0797  0.2339
16956W        W30370  11.076   5.664   3.890 -0.0919 -0.1679  0.0009
16957W        W30371   9.138  11.874   0.717  0.1770 -0.1725  0.1645
16958W        W30372  15.998  18.421   1.936 -0.2181  0.3206 -0.0291
16959W        W30373  16.512  18.182  11.440 -0.0230 -0.2057  0.0735
16960W        W30374   2.825  14.402   2.217 -0.0331 -0.1183  0.2562
16961W        W30375   3.066   2.611  11.245 -0.0372 -0.0038  0.0827
16962W        W30376  11.284  16.253   4.369  0.1357  0.1121 -0.1753
16963W        W30377  13.939   8.811  13.832 -0.0088  0.1877 -0.3688
16964W        W30378   8.395   2.411   4.163 -0.1199  0.1054  0.2994
16965W        W30379   1.422  16.208  11.539  0.0190 -0.0417  0.0521
16966W        W30380  10.328   8.420   1.090 -0.2045 -0.0066 -0.1624
16967W        W30381   3.420   3.429  14.281 -0.1291  0.0639 -0.0500
16968W        W30382  17.166   5.034   5.658  0.1287 -0.1265 -0.1172
16969W        W30383   5.882   2.271  15.922  0.0881 -0.2459  0.4169
16970W        W30384   8.753  12.898  13.578 -0.0488  0.1651 -0.1078
16971W        W30385   0.730  11.825   2.936  0.2160 -0.0067  0.0722
16972W        W30386   3.745  14.649  11.410 -0.2247  0.0704  0.1570
16973W        W30387   6.641  17.735  11.734  0.2449 -0.0414 -0.1377
16974W        W30388   6.442  16.023   3.427  0.1246 -0.2001  0.2225
16975W        W30389   6.718   4.082   2.564 -0.1164 -0.1170  0.2345
16976W        W30390   6.213   2.830   0.744 -0.0914  0.1478  0.0642
16977W        W30391   6.443   4.580   0.232 -0.4181  0.1426 -0.2729
16978W        W30392  12.574   6.341  11.161  0.1304 -0.1420 -0.1957
16979W        W30393  11.503  10.809  12.525  0.1086  0.0671  0.2173
16980W        W30394  10.979  13.107   0.469 -0.2370 -0.0553  0.1675
16981W        W30395   9.054   9.165  13.756  0.0790 -0.2055 -0.0597
16982W        W30396   7.017  14.061  16.161  0.0791 -0.2154  0.0204
16983W        W30397   7.689  15.345  12.254 -0.2598 -0.3194 -0.0209
16984W        W30398  12.700  14.507   2.773  0.0797 -0.1413 -0.1560
16985W        W30399  13.303   7.684   2.917  0.0847 -0.0543  0.1895
16986W        W30400  11.731  13.009  14.162 -0.0782 -0.1885 -0.0653
16987W        W30401   3.178  10.831  12.483 -0.0078  0.1355  0.1787
16988W        W30402   5.970   7.508  11.534  0.1627  0.0544 -0.0085
16989W        W30403   1.850  15.022   6.044 -0.2518 -0.0459 -0.1283
16990W        W30404   7.113  10.570  16.154 -0.3722 -0.0088  0.3256
16991W        W30405  18.267  17.483  15.075  0.2866  0.0355 -0.0119
16992W        W30406  16.112   5.247  14.139 -0.1242  0.0761 -0.2106
16993W        W30407  17.145   8.844  10.616 -0.0227  0.0969  0.1604
16994W        W30408  12.475   2.551  11.314  0.1271 -0.2780  0.0765
16995W        W30409  12.872   9.942  14.513 -0.1420  0.0028 -0.2051
16996W        W30410  12.592  18.427  13.564  0.1170  0.1988  0.1602
16997W        W30411  10.831   9.303   5.790  0.2180 -0.1785 -0.1113
16998W        W30412   5.839   8.211  13.874  0.0179  0.0430  0.0943
16999W        W30413   0.337   6.296   6.315  0.2259 -0.0397 -0.0022
17000W        W30414   5.770   4.434   5.833  0.0161  0.0012 -0.1187
17001W        W30415  15.459  11.194   2.551  0.1557  0.1052 -0.1686
17002W        W30416  16.755   2.773  15.873  0.2643 -0.1731  0.1022
17003W        W30417   6.390   3.197   5.311 -0.1350 -0.2840 -0.0815
17004W        W30418   5.415   9.881   3.856  0.0341  0.0551  0.0760
17005W        W30419   4.663   5.471  11.093 -0.1718 -0.2918  0.1031
17006W        W30420   6.811   8.382  13.402 -0.0933  0.1515 -0.0468
17007W        W30421   4.296   7.806   5.310 -0.1611 -0.0606 -0.1676
17008W        W30422   4.726   4.634   3.417 -0.0400 -0.0942 -0.0995
17009W        W30423  16.932  12.620   5.511  0.1213  0.1816  0.1065
17010W        W30424   3.347   8.698  15.536 -0.0560 -0.2061  0.0088
17011W        W30425  14.714  15.325   3.321  0.0815 -0.1613  0.1576
17012W        W30426   7.576   2.225  12.346  0.0100 -0.1993 -0.0962
17013W        W30427  10.914  11.252  13.006  0.1324  0.0019  0.3105
17014W        W30428   6.402   6.044   0.852 -0.0407 -0.1894  0.0555
17015W        W30429   0.497   0.217  10.670 -0.2765 -0.1812 -0.0760
17016W        W30430   9.907  18.265   3.654  0.3915  0.1994 -0.0829
17017W        W30431  17.170  17.689  13.714  0.4169 -0.1465  0.1139
17018W        W30432   8.407   0.545  14.597  0.1553  0.1425 -0.0573
17019W        W30433  15.045  13.465   2.444 -0.0665 -0.1402  0.0129
17020W        W30434   2.630   3.022  13.291 -0.0930  0.1421  0.1552
17021W        W30435  16.782  14.987   0.424 -0.1926 -0.1628 -0.0783
17022W        W30436  17.927   7.846   1.138  0.2702 -0.0987  0.1099
17023W        W30437  17.039  16.388  14.721  0.1051 -0.0976 -0.2258
17024W        W30438  15.232   9.912  14.041  0.1636 -0.3090  0.3428
17025W        W30439  17.333  18.127   4.815  0.0150 -0.0196 -0.0873
17026W        W30440  17.739  10.626   6.036  0.1762 -0.0379 -0.0535
17027W        W30441  15.019  10.207   2.485 -0.2166 -0.0019  0.0330
17028W        W30442  12.670  12.755   1.059 -0.2392  0.1729 -0.0086
17029W        W30443  10.581   3.894  10.795  0.0462 -0.0009  0.0575
17030W        W30444   7.359  15.840   1.373 -0.0275 -0.0485  0.0825
17031W        W30445  14.395   1.688  14.663  0.0597  0.1248 -0.2278
17032W        W30446   6.347   4.148  10.268 -0.1010 -0.1293 -0.0871
17033W        W30447  17.405  18.253   3.671 -0.1109  0.0824  0.2230
17034W        W30448   0.032  13.253   5.317  0.4027 -0.0905 -0.1241
17035W        W30449  12.140  13.808   4.767 -0.0513  0.0723  0.2775
17036W        W30450  16.358   7.059   3.377  0.0386  0.4217 -0.0122
17037W        W30451  17.912   8.314  13.789  0.0114  0.1140 -0.1880
17038W        W30452   5.656  15.136  11.712  0.0187  0.3102 -0.0990
17039W        W30453  11.649   6.506  14.378 -0.2489 -0.3712  0.1079
17040W        W30454  10.756  14.635   5.180 -0.0637  0.0686  0.1369
17041W        W30455  10.500   8.365  10.575 -0.0704  0.0397 -0.0565
17042W        W30456  16.858  11.041  14.179  0.0305 -0.2183  0.0792
17043W        W30457  13.867   0.120   0.301 -0.1544  0.2886 -0.1301
17044W        W30458  16.245  17.999  15.351 -0.2142 -0.2785  0.0404
17045W        W30459   1.281   1.398   3.796  0.1167  0.1255 -0.2991
17046W        W30460   6.079  10.587   0.650 -0.0121 -0.0395  0.2137
17047W        W30461  13.143   4.407   1.248  0.0714 -0.0680 -0.1762
17048W        W30462  11.479   3.897   2.504 -0.0824  0.2272  0.1577
17049W        W30463  18.495   3.178  15.829 -0.1259 -0.1951 -0.2718
17050W        W30464   2.788   1.275   0.919 -0.1520  0.1968 -0.1271
17051W        W30465   8.047   0.099   1.894  0.0315  0.1008 -0.0223
17052W        W30466  16.478   7.028   5.521 -0.0165  0.0515  0.3245
17053W        W30467   6.276   2.641   0.051 -0.1816 -0.0561 -0.1432
17054W        W30468  14.727   8.631  14.679  0.2217  0.0774  0.4066
17055W        W30469  15.428   9.033  13.073  0.1739  0.3352  0.1862
17056W        W30470  16.213  13.123   0.954 -0.0269 -0.1085  0.0946
17057W        W30471  17.621   5.958  16.101  0.2110  0.2531 -0.1382
17058W        W30472  17.328   3.929   6.141 -0.1438  0.0000  0.1112
17059W        W30473   6.463  16.994  10.579 -0.0726  0.1930  0.3817
17060W        W30474   5.318  16.274  14.676 -0.1132 -0.0321 -0.1831
17061W        W30475   1.618  15.080   1.570  0.1392 -0.0030  0.0168
17062W        W30476   9.435  10.887   2.592  0.3761 -0.0465 -0.0949
17063W        W30477  11.952  15.491   3.216 -0.2067 -0.0863 -0.0646
17064W        W30478   9.679   0.447   4.564  0.4289 -0.2254  0.1306
17065W        W30479  12.295   5.633  12.100  0.0632  0.1925  0.1145
17066W        W30480   9.161   5.836  16.008  0.2218 -0.2153  0.0884
17067W        W30481  14.887   2.418   2.829 -0.0230 -0.1628  0.1171
17068W        W30482   5.331   8.499   0.461 -0.1565 -0.0026  0.0751
17069W        W30483  15.860  16.789  11.959  0.2300  0.2185  0.0690
17070W        W30484  17.744   7.902  11.210  0.4260  0.2121  0.3076
17071W        W30485   3.414   0.009   5.215  0.1376 -0.0638  0.0554
17072W        W30486  11.511   7.189   3.459  0.3262 -0.1826  0.1603
17073W        W30487   7.666  17.370  12.492  0.1899 -0.0415  0.2409
17074W        W30488  15.767  11.335  13.182 -0.1479  0.1138 -0.0647
17075W        W30489   3.352   7.310  12.413  0.1966 -0.0746 -0.0226
17076W        W30490   9.277  10.443   0.941  0.1026  0.2348 -0.0427
17077W        W30491  11.743   7.501   1.546 -0.1781 -0.1365 -0.0628
17078W        W30492   7.036  12.756  15.363 -0.0764  0.2427 -0.3157
17079W        W30493   3.008  14.176   0.247  0.1087  0.1018 -0.1287
17080W        W30494   6.034  17.382  12.705 -0.0442 -0.0492 -0.1726
17081W        W30495  16.704  18.336  10.551  0.1272 -0.1525  0.0091
17082W        W30496  17.959  10.710   3.380 -0.0567 -0.1998  0.0292
17083W        W30497  12.543   9.124  12.739 -0.0777 -0.1205  0.0020
17084W        W30498  16.495   7.226  13.773 -0.3398 -0.0098 -0.0285
17085W        W30499   8.975   9.212  14.605 -0.2689 -0.4127 -0.1785
17086W        W30500  10.643   5.935  15.347  0.1133 -0.3334 -0.1043
17087W        W30501   2.453   2.104  14.208  0.1978 -0.0783  0.2726
17088W        W30502   8.816   6.665  14.313 -0.1375 -0.1053 -0.0571
17089W        W30503  10.394  12.991   3.172 -0.0558  0.1000 -0.0875
17090W        W30504  14.100  18.035  11.126  0.0863  0.1265 -0.1073
17091W        W30505   3.077  15.959   4.437  0.0336  0.0173 -0.3093
17092W        W30506  14.919  17.099   0.053  0.0425 -0.2127 -0.1899
17093W        W30507  12.871   2.873  13.433  0.1967 -0.1404  0.2275
17094W        W30508   3.780   2.684   0.179  0.0060 -0.0354  0.0480
17095W        W30509   1.461  16.869   3.305  0.3104  0.0112 -0.1010
17096W        W30510   2.586   5.889   0.816 -0.3040 -0.0163  0.2686
17097W        W30511  17.411   9.375   3.006 -0.0351  0.1286  0.1145
17098W        W30512   1.018   0.583  11.430 -0.1086  0.0836 -0.3602
17099W        W30513   4.624  14.006  10.204  0.0262 -0.0924  0.0123
17100W        W30514   7.393  13.142   5.637  0.1608  0.1115  0.1164
17101W        W30515   0.486   0.348   3.402 -0.3239 -0.1205 -0.0603
17102W        W30516  14.826   7.431  10.911  0.1298 -0.1930  0.0100
17103W        W30517  12.140   9.511  10.263 -0.0761 -0.1927  0.0597
17104W        W30518  17.054   9.884  11.838  0.0509 -0.4743 -0.2881
17105W        W30519   1.631   6.853   5.170  0.2295  0.5656  0.1458
17106W        W30520  16.946  17.228   4.848  0.2738  0.1776 -0.2556
17107W        W30521   3.694   0.924   3.355  0.1369  0.1750 -0.0629
17108W        W30522   8.378  14.961   1.681 -0.4596  0.2088 -0.3085
17109W        W30523  17.100  16.595  10.896 -0.1006 -0.0403  0.0460
17110W        W30524   7.596   8.276  14.671 -0.1909  0.1350 -0.0214
17111W        W30525   1.785   2.992  14.750  0.2027 -0.0567 -0.2645
17112W        W30526   8.949   0.357   5.555 -0.1615  0.4045  0.2599
17113W        W30527  17.653   3.450  15.620 -0.3157  0.1987  0.1080
17114W        W30528  10.808   5.908   6.871 -0.0361  0.2612 -0.0527
17115W        W30529   2.464  10.746   2.384  0.0131  0.4594 -0.0739
17116W        W30530   4.471   8.881   2.552  0.1607 -0.0655 -0.3248
17117W        W30531   8.697  16.757  11.516  0.0343 -0.1943  0.2053
17118W        W30532  14.115   3.909   4.169 -0.3672  0.0263 -0.1080
17119W        W30533  17.941   2.235  12.077  0.2322 -0.1617 -0.3160
17120W        W30534   5.909  17.066  10.722  0.3243  0.3423 -0.1513
17121W        W30535   0.327   4.976  12.964 -0.0628  0.3235 -0.0074
17122W        W30536   6.909   0.321  13.262 -0.2390 -0.0061  0.0017
17123W        W30537   5.284  15.137  10.495 -0.1295  0.1135 -0.0466
17124W        W30538  12.859  12.320   1.422 -0.1791 -0.2143 -0.0286
17125W        W30539   9.770   3.549  13.438 -0.0265 -0.3945  0.0240
17126W        W30540   7.146   4.021   3.381 -0.0268  0.0694  0.1096
17127W        W30541  11.211  13.592   0.296 -0.3058  0.0636 -0.0897
17128W        W30542   0.785   8.077  12.945 -0.2221 -0.1452  0.0529
17129W        W30543  12.755   7.014   2.368  0.1263  0.3240  0.0920
17130W        W30544   4.578   1.607  14.943 -0.0539  0.3703  0.1358
17131W        W30545   2.457  14.446   9.617 -0.0227  0.2893 -0.0036
17132W        W30546   6.923  11.109  13.588  0.1128  0.5358  0.2068
17133W        W30547   2.984   7.758   3.771 -0.1383  0.3089 -0.0388
17134W        W30548   5.553  13.448  12.363 -0.2252  0.1397 -0.0355
17135W        W30549  13.830  11.373   5.933 -0.0957 -0.0715 -0.0654
17136W        W30550   5.971   2.026   2.378  0.3455  0.0696  0.0338
17137W        W30551  13.391  16.476   0.086 -0.0432 -0.0866  0.0456
17138W        W30552   7.477  15.421   1.044  0.1047  0.0640 -0.0297
17139W        W30553  11.443  17.301   0.722  0.0642 -0.0005  0.1616
17140W        W30554  16.050  16.060   2.043 -0.0482 -0.3077 -0.0191
17141W        W30555  17.861  18.093  11.215 -0.1262 -0.0894 -0.2282
17142W        W30556  11.918   7.162  13.491  0.1602 -0.0065  0.0637
17143W        W30557  13.768  17.153  11.694  0.3324 -0.0707 -0.1493
17144W        W30558   6.514  18.330   4.324 -0.2321 -0.0359  0.2900
17145W        W30559   8.417  15.346  11.347 -0.0646  0.1284 -0.2216
17146W        W30560   0.613  13.004  11.510 -0.0491 -0.3399  0.2574
17147W        W30561   9.883  16.208  15.267 -0.0470  0.1268 -0.2930
17148W        W30562  14.778   8.538   3.655 -0.0578  0.0408 -0.2129
17149W        W30563   7.409  14.399   3.650  0.2971 -0.0925 -0.1001
17150W        W30564  17.765   9.509   0.851  0.2445 -0.0315 -0.2309
17151W        W30565   3.926   1.182   1.465 -0.1147  0.0251  0.0012
17152W        W30566  13.186  18.314   5.324 -0.0580 -0.3046  0.0632
17153W        W30567   8.158   2.318   0.984  0.2506 -0.2224  0.3932
17154W        W30568   9.255   0.064   3.291  0.1809  0.0674 -0.3887
17155W        W30569   9.363   5.012   1.341  0.3092  0.0159  0.0986
17156W        W30570  14.286  13.212   3.057  0.3020  0.0611  0.0168
17157W        W30571  12.432   8.078   0.960  0.1610 -0.0235  0.0469
17158W        W30572   4.014  13.878  13.370 -0.1368 -0.2875  0.2726
17159W        W30573  13.722   6.338  13.978 -0.0538  0.0868 -0.0161
17160W        W30574  15.251   9.061   3.946 -0.1631  0.0787  0.0528
17161W        W30575  18.274   0.749  12.799 -0.0542  0.0539  0.0548
17162W        W30576  18.067   8.482   1.446 -0.2655  0.0868  0.4901
17163W        W30577  10.800   6.070   2.498  0.1448  0.1412 -0.0906
17164W        W30578  12.143   9.586   4.005  0.1669  0.0653  0.0890
17165W        W30579   6.067   2.127   1.886  0.2998 -0.1580 -0.1225
17166W        W30580   2.402   3.340   6.194  0.0843  0.2342 -0.0410
17167W        W30581   2.593  15.242   4.970 -0.2869  0.1671  0.3105
17168W        W30582  14.448   9.955   5.573  0.0644  0.2540 -0.0356
17169W        W30583  16.671   1.799   5.059  0.1573  0.1067  0.0293
17170W        W30584   2.245  15.404   1.226  0.0685  0.0564  0.0861
17171W        W30585  10.156  12.400  10.487 -0.3405 -0.0268 -0.0521
17172W        W30586  10.549   4.655   0.340  0.0875 -0.0063 -0.0414
17173W        W30587   2.946  15.030   2.820 -0.0494 -0.0250  0.0272
17174W        W30588  12.189  17.329  15.841 -0.1972  0.0889  0.2412
17175W        W30589   6.555   8.734   4.889 -0.0746 -0.1502 -0.2066
17176W        W30590  16.365   8.657   5.428  0.2243 -0.1165 -0.0068
17177W        W30591   2.300   7.572  14.523  0.1493 -0.1334 -0.0325
17178W        W30592   1.671  17.662  15.277  0.0938 -0.2053  0.2241
17179W        W30593  13.994   2.742   3.108 -0.1328  0.0020  0.0166
17180W        W30594   3.075   4.668   4.439 -0.1759 -0.0952  0.0341
17181W        W30595  18.279   6.164  15.296 -0.1096 -0.5379  0.2405
17182W        W30596  15.353  18.522  16.187 -0.1860  0.1812  0.1845
17183W        W30597  18.278   9.248   1.677 -0.0835 -0.2542 -0.1727
17184W        W30598   5.957   7.594  10.395 -0.0272  0.1121  0.3881
17185W        W30599   8.396   8.678   0.293  0.1853 -0.3138 -0.0619
17186W        W30600   0.385  17.313   5.157  0.3017 -0.0780 -0.1448
17187W        W30601   2.621   3.799  13.520 -0.3432 -0.0346  0.0393
17188W        W30602   9.572  18.120   3.302 -0.0367 -0.2688 -0.0049
17189W        W30603  14.225   5.207   3.460 -0.0982 -0.0906 -0.1880
17190W        W30604  14.046  12.879  15.414  0.3688 -0.1536  0.0600
17191W        W30605  17.276   3.788   0.259  0.1537  0.0344  0.1831
17192W        W30606  16.288   2.013  14.888  0.2425  0.2667  0.0689
17193W        W30607   9.447  15.721   1.751  0.0384 -0.1156  0.1048
17194W        W30608   3.252  11.620  14.286 -0.1528 -0.0490  0.0348
17195W        W30609  11.837   9.507  12.845 -0.1458 -0.1222 -0.1172
17196W        W30610  17.202  16.931  14.624  0.0242 -0.1802 -0.3896
17197W        W30611  14.006   0.841  14.738  0.1607  0.1427 -0.0394
17198W        W30612   4.361  14.253  13.518  0.0543 -0.1368 -0.0233
17199W        W30613  16.550   1.366  13.074 -0.1313  0.5748 -0.1566
17200W        W30614  16.129   2.890  13.955  0.0089  0.3719 -0.2902
17201W        W30615  14.868   2.569   3.762 -0.3184  0.1744  0.1308
17202W        W30616   5.309  11.332  14.725 -0.1547 -0.0120  0.1258
17203W        W30617   8.281   7.579   0.583  0.1612 -0.0045  0.2491
17204W        W30618  15.837   9.225   1.149  0.0347 -0.0738  0.1037
17205W        W30619   1.068   1.283  15.049  0.0217  0.1182 -0.0001
17206W        W30620  13.642   2.616   2.801 -0.0096  0.2560  0.0168
17207W        W30621   9.016   5.494  13.074 -0.1471 -0.0915  0.0791
17208W        W30622  14.595  15.717  11.823  0.2768 -0.0748 -0.1410
17209W        W30623  12.284   3.691  11.853  0.0087  0.2006 -0.0550
17210W        W30624  12.774   2.406  12.785 -0.0334 -0.2745 -0.2370
17211W        W30625   4.141  13.589   4.977  0.0796 -0.3406  0.0952
17212W        W30626   6.107  16.119   0.834  0.0151 -0.2326 -0.0160
17213W        W30627   5.823  11.258   1.766  0.2535 -0.0026 -0.0626
17214W        W30628  16.396   8.465   0.966 -0.0262 -0.0357 -0.2291
17215W        W30629  12.600  16.889  14.417  0.0789 -0.1198  0.0186
17216W        W30630  15.409  16.154  13.375  0.2048 -0.0666  0.2336
17217W        W30631  13.862  15.471  11.277 -0.0843  0.0705  0.3727
17218W        W30632  15.873  10.013   6.007 -0.1672  0.0869  0.0613
17219W        W30633  12.999  16.661   4.708 -0.0040 -0.0833  0.1812
17220W        W30634   9.427   3.360  15.576 -0.4638 -0.1251 -0.0838
17221W        W30635   0.772   3.062  13.347 -0.1165  0.0778 -0.1751
17222W        W30636  12.328   4.146   5.984  0.0823 -0.2151 -0.1613
17223W        W30637   9.754  11.235   4.172 -0.0854  0.0558  0.1550
17224W        W30638   3.745   8.081   4.369 -0.2379  0.2966  0.0840
17225W        W30639  12.279   7.895  13.754 -0.0292 -0.3078 -0.0781
17226W        W30640   4.600   6.282  16.042 -0.2189 -0.2800 -0.2992
17227W        W30641  18.096   1.317  12.213 -0.1047 -0.0514 -0.0735
17228W        W30642   1.699  17.157  15.022  0.0432 -0.1113 -0.2329
17229W        W30643  17.449  14.720  12.202  0.2382  0.2338 -0.3335
17230W        W30644  13.111  12.188  11.652  0.1610 -0.0932  0.2635
17231W        W30645   7.589   2.720   2.719  0.0179  0.1944 -0.0716
17232W        W30646   6.803  13.152  12.319 -0.3594 -0.0505 -0.1718
17233W        W30647  10.532   7.642  12.231 -0.1588  0.2078  0.0756
17234W        W30648   9.315  11.696   4.927 -0.2838  0.0745 -0.1186
17235W        W30649   3.927  12.391   4.936  0.1194  0.1192  0.0182
17236W        W30650   2.629   4.259  11.051  0.1971 -0.1769  0.3469
17237W        W30651  10.159   9.652   2.130  0.2200  0.1138  0.3004
17238W        W30652  15.345   1.118   2.646  0.3568  0.0066 -0.4875
17239W        W30653  16.016   5.980  13.962 -0.1078 -0.2250  0.1806
17240W        W30654  15.505   5.381   1.059  0.0476 -0.1937  0.1439
17241W        W30655  16.726  14.610  15.026 -0.3308 -0.0746 -0.2275
17242W        W30656  17.247   4.100   3.357 -0.0833  0.2164  0.0983
17243W        W30657  16.842   3.640   0.035 -0.1203 -0.1364 -0.1462
17244W        W30658   1.471   7.690   3.398 -0.3451 -0.1540 -0.0884
17245W        W30659  13.832   3.896   4.998  0.2501 -0.0667 -0.1825
17246W        W30660   9.171  10.237   5.492 -0.1446  0.1890  0.2106
17247W        W30661   2.352  17.963   4.989  0.1049  0.2126  0.0290
17248W        W30662   5.347   0.453  10.868 -0.2176 -0.1718 -0.2696
17249W        W30663   6.209   5.760  15.167  0.3551 -0.2584  0.2049
17250W        W30664   9.267   1.436  14.969 -0.0924 -0.0669  0.0377
17251W        W30665   0.166   6.123   0.702 -0.1010  0.0020  0.0002
17252W        W30666  10.500  13.926  10.366 -0.0174 -0.2430  0.0371
17253W        W30667   3.757   8.020   2.872  0.1886 -0.1568 -0.1393
17254W        W30668   3.750  11.378   2.611  0.1347 -0.1297 -0.0681
17255W        W30669  10.794  18.254   0.707 -0.1628 -0.2705 -0.0783
17256W        W30670  10.217   3.094   2.318  0.0588  0.2989  0.1120
17257W        W30671   1.580  11.717   5.117  0.1478  0.2055 -0.2398
17258W        W30672  10.375  14.256  13.699 -0.3511 -0.1320 -0.2245
17259W        W30673  12.676   5.964  11.986 -0.0317 -0.0472  0.1787
17260W        W30674   4.886  14.119   4.815 -0.1668 -0.1122  0.2186
17261W        W30675  16.971  15.181  15.776  0.0375  0.4455 -0.0001
17262W        W30676   0.495  17.636  13.248 -0.0076 -0.1747  0.2301
17263W        W30677   1.091   2.440  14.385 -0.1199  0.0228 -0.2233
17264W        W30678   0.260   4.579   2.314 -0.0289 -0.1740  0.1795
17265W        W30679   3.565   4.297  14.766 -0.1179 -0.2127 -0.1182
17266W        W30680   4.536   5.930  14.583 -0.1463 -0.0936 -0.3948
17267W        W30681   8.300   5.120   4.899 -0.1856  0.0105  0.0497
17268W        W30682  14.730  14.102  14.418  0.1708 -0.2548  0.3564
17269W        W30683   4.990  18.464   3.614  0.2802  0.1525  0.1295
17270W        W30684  16.120  16.008   2.566  0.2048  0.2192  0.0047
17271W        W30685  17.057   4.346   6.089  0.1433 -0.0037  0.0217
17272W        W30686   3.700   7.440  11.716 -0.2016  0.0293  0.3068
17273W        W30687  18.040  14.278  13.264  0.0143  0.2318 -0.1380
17274W        W30688  11.275  12.632   3.202 -0.3759  0.1971 -0.2234
17275W        W30689   5.839   3.148   3.491  0.4781 -0.0389  0.2425
17276W        W30690   7.952   3.617   4.269  0.1828  0.1962  0.2172
17277W        W30691  15.797   9.661  14.332  0.0423  0.0729 -0.0302
17278W        W30692  15.020  11.767  14.819 -0.0950 -0.1916 -0.0134
17279W        W30693   8.039   4.369   6.087 -0.1629  0.0964  0.1061
17280W        W30694  12.683   9.257   5.896  0.0518  0.5211  0.3787
17281W        W30695  18.513   6.758  11.963 -0.1911 -0.3746 -0.0593
17282W        W30696   4.593   5.384  13.953  0.1843 -0.1788  0.2969
17283W        W30697  17.923   5.249  14.103  0.1658  0.2413  0.1673
17284W        W30698  12.047  17.256   5.033 -0.1054 -0.0416  0.3836
17285W        W30699  13.298   3.074  15.988  0.3274 -0.7121  0.2196
17286W        W30700  16.006   1.315  11.644 -0.1795 -0.1322  0.1487
17287W        W30701  11.497  17.588   3.804  0.1397  0.2904 -0.0188
17288W        W30702  11.085   5.383   1.680  0.2618 -0.0433 -0.0449
17289W        W30703  17.303   8.920   1.154  0.0200  0.1252  0.0934
17290W        W30704   6.145   5.049   3.818 -0.1212  0.4438 -0.0084
17291W        W30705  15.649   5.403  14.412  0.1024  0.2035 -0.1255
17292W        W30706   6.572   5.105   4.356  0.3014 -0.1439 -0.0243
17293W        W30707   0.741  11.463  13.514  0.0356  0.1469  0.2507
17294W        W30708   4.876   5.279   4.606  0.1495 -0.2142 -0.2676
17295W        W30709   2.908   3.665  15.240  0.2861 -0.0651 -0.0802
17296W        W30710  16.604   4.286  10.744 -0.0882  0.2624 -0.1792
17297W        W30711   8.844  10.361   0.539 -0.0644 -0.0982 -0.3507
17298W        W30712   0.363   9.741  13.646 -0.3138  0.1054  0.1594
17299W        W30713  18.209   8.024   0.646 -0.2722 -0.0568  0.2204
17300W        W30714  13.910   1.485   5.708 -0.0951  0.1175  0.2281
17301W        W30715   2.493   5.461   0.259 -0.0836 -0.0487 -0.1060
17302W        W30716   8.865  10.690   3.530 -0.1219  0.2880  0.2814
17303W        W30717  11.373  13.850   9.809 -0.2750  0.0792  0.3806
17304W        W30718   3.783   0.620  15.962 -0.0922 -0.0561  0.1816
17305W        W30719  16.032  18.239  14.958 -0.2647 -0.1135 -0.1472
17306W        W30720  13.318  15.817   4.761  0.3051 -0.2812 -0.2833
17307W        W30721   1.843   5.627  10.678  0.1109 -0.4070  0.2380
17308W        W30722  16.095  15.123  11.536 -0.1071  0.1615  0.1207
17309W        W30723   2.183  15.294  10.586 -0.5038 -0.1710 -0.3561
17310W        W30724   8.852   3.077  15.790  0.1809 -0.0813  0.0076
17311W        W30725  12.000   8.619  11.737  0.1340 -0.2303 -0.3971
17312W        W30726   2.411   2.837   2.947 -0.0408  0.1865  0.0360
17313W        W30727  12.538   8.312   3.065  0.0228 -0.2608  0.1723
17314W        W30728   0.146   7.335   4.521 -0.2880  0.1994 -0.3970
17315W        W30729  10.397   1.561   5.037  0.0038  0.1287  0.0314
17316W        W30730   1.111  12.927   3.801 -0.0688  0.3835 -0.0480
17317W        W30731   5.581   0.302  16.267  0.0561  0.0294  0.2767
17318W        W30732   9.547   6.511   5.944  0.0477  0.1564 -0.1304
17319W        W30733   3.655   1.111   4.056 -0.0694 -0.0811 -0.1987
17320W        W30734   8.215   7.737   6.124 -0.1570  0.1030 -0.2088
17321W        W30735   8.089  12.812   5.368  0.0645 -0.1019  0.3784
17322W        W30736  15.798   4.597   0.782  0.0205  0.3130 -0.0969
17323W        W30737  18.203  16.696   5.168 -0.2988  0.1058 -0.0995
17324W        W30738   5.254   0.251   1.915  0.3786  0.1358 -0.1896
17325W        W30739   7.230  10.668  13.319 -0.2181  0.3201  0.1169
17326W        W30740  15.762   7.781  13.633 -0.1101  0.1125  0.0682
17327W        W30741  17.229   2.573  15.714 -0.0429  0.0682  0.1787
17328W        W30742   2.722   9.189   5.455 -0.2315  0.1733  0.0250
17329W        W30743   2.113   6.673   5.429  0.0987  0.0636 -0.2994
17330W        W30744  11.470   1.091  11.464 -0.0624 -0.4142 -0.0573
17331W        W30745   5.992  18.494   4.274 -0.1991 -0.2076  0.1917
17332W        W30746   7.279   0.393   3.886  0.2709  0.5226  0.0486
17333W        W30747   9.171   2.601   4.613  0.0595  0.2552  0.2508
17334W        W30748  13.579   3.882  10.950 -0.2933  0.1794  0.0374
17335W        W30749  18.461   0.056  14.049  0.3101  0.4354 -0.0657
17336W        W30750  16.889   5.376   4.249 -0.4852 -0.0342 -0.0893
17337W        W30751   7.332   4.173  10.578 -0.1066  0.3484 -0.0686
17338W        W30752  12.496  12.943  14.610 -0.1419  0.1111  0.0530
17339W        W30753  11.419   9.071   0.061 -0.2016  0.1336 -0.0837
17340W        W30754   7.143   0.795  15.152  0.0160 -0.1193 -0.5162
17341W        W30755  10.641  17.866   2.783 -0.1484 -0.0770  0.5197
17342W        W30756   3.821   6.829  12.745  0.2270  0.0127 -0.3386
17343W        W30757  17.091  10.214  13.042 -0.2263 -0.1341 -0.0373
17344W        W30758   5.828  17.644   0.581 -0.1755  0.2121  0.0155
17345W        W30759   7.916   4.519  15.454 -0.0727  0.0684 -0.1829
17346W        W30760   8.863  11.840   5.073  0.2314 -0.1037 -0.1015
17347W        W30761   8.261  13.149  13.071  0.0913 -0.2460 -0.1451
17348W        W30762  12.105   8.514   3.199  0.2782 -0.0547 -0.0108
17349W        W30763   8.029  12.539  10.514  0.0082 -0.0354 -0.2133
17350W        W30764  13.062  13.755   3.228  0.0614  0.0983  0.3312
17351W        W30765  10.322   1.736  11.705 -0.3684  0.0080  0.1388
17352W        W30766   6.962  18.205   3.482  0.1156 -0.0757 -0.1856
17353W        W30767  10.108   0.928   3.258  0.0760  0.0866  0.3474
17354W        W30768  11.214  13.842  15.048  0.1168 -0.0049 -0.1062
17355W        W30769   7.474   4.951  10.132 -0.1571  0.1360 -0.1247
17356W        W30770  17.893   3.953  15.577  0.1034  0.0526 -0.1938
17357W        W30771  12.186  11.081   1.593  0.1433  0.0885 -0.1625
17358W        W30772  15.259  10.333  13.734  0.0613 -0.2355  0.1881
17359W        W30773  13.327   5.332  10.305  0.2137 -0.0099  0.1498
17360W        W30774   1.189  10.667  13.174  0.2442 -0.1380  0.1350
17361W        W30775  10.067   5.211   4.546 -0.0109 -0.2274 -0.2193
17362W        W30776  13.028  11.352   5.064  0.0416  0.1976  0.0668
17363W        W30777  18.082   8.101  11.519 -0.1064  0.0241 -0.1833
17364W        W30778  14.884  17.719   1.427 -0.1548  0.1188 -0.2767
17365W        W30779  15.147   1.181  11.237  0.0006  0.1652 -0.0181
17366W        W30780  17.182  14.644  14.183 -0.1333  0.0394  0.0719
17367W        W30781  13.185   2.569   0.973  0.0690 -0.0061  0.0454
17368W        W30782   1.535  11.077  13.387  0.0810  0.1573 -0.2915
17369W        W30783   4.068  17.944  14.435  0.0916 -0.0066  0.3991
17370W        W30784   0.031  15.818  12.443 -0.1369  0.0218  0.1721
17371W        W30785   0.357  11.462  15.460  0.2956  0.0962 -0.2371
17372W        W30786   2.456  10.361   0.874  0.0427  0.0469 -0.2183
17373W        W30787  14.345  16.582   3.778 -0.1156  0.0123  0.3337
17374W        W30788   3.259   9.430   1.812 -0.1273  0.2236  0.0551
17375W        W30789   9.309   4.218   4.479 -0.1812  0.0750 -0.2195
17376W        W30790   0.122   5.487   2.733 -0.4024  0.0691  0.3407
17377W        W30791  13.553   9.684   1.615 -0.1479  0.0620  0.2256
17378W        W30792   6.832  10.264   1.668  0.0211 -0.2799  0.0166
17379W        W30793  10.471  17.006   5.754 -0.1044  0.2519 -0.2907
17380W        W30794  14.093  11.648  12.763  0.0585 -0.1893 -0.0162
17381W        W30795  15.540   6.309  16.147 -0.4973 -0.0374  0.0728
17382W        W30796   9.912  14.389   4.130 -0.3362  0.1638  0.0809
17383W        W30797  12.829  14.994   0.884  0.2051 -0.2415 -0.2786
17384W        W30798  11.181   3.302  14.778  0.1284 -0.0820 -0.2099
17385W        W30799   6.402  15.386  14.691  0.0492  0.0943 -0.4619
17386W        W30800   9.512  16.646  13.155  0.2797 -0.0416 -0.2075
17387W        W30801  17.648   0.490  11.253  0.0191 -0.2496 -0.4064
17388W        W30802   5.768  18.138   5.170  0.0407  0.2904 -0.0072
17389W        W30803  14.672  12.572   5.695  0.1926  0.2328 -0.2105
17390W        W30804  16.044   7.544   3.308 -0.0229  0.2023  0.1459
17391W        W30805   8.147   0.835   0.556 -0.0988 -0.0860 -0.2433
17392W        W30806   4.131  15.814   1.008  0.2205  0.1550 -0.1239
17393W        W30807  13.477   8.282   5.671  0.0014  0.0589  0.4925
17394W        W30808  12.807   9.459   4.159 -0.3541  0.0409  0.0479
17395W        W30809  14.993  10.444  14.987  0.2680  0.0173  0.0176
17396W        W30810   9.341   6.511  12.617  0.0515  0.1763  0.1277
17397W        W30811  10.682  15.481  12.325  0.0335  0.0704  0.3101
17398W        W30812   9.838   9.662  14.029 -0.4033 -0.0450 -0.1175
17399W        W30813   9.744  10.225   3.214 -0.2172 -0.0126 -0.0011
17400W        W30814   4.021  15.505  14.191  0.0073 -0.2209  0.1362
17401W        W30815   3.963  16.716   4.089 -0.1937  0.0640  0.0321
17402W        W30816  16.974  14.505   4.750  0.0138  0.0545  0.0526
17403W        W30817  17.514   2.281  15.358 -0.0504 -0.1718 -0.0809
17404W        W30818  11.659  12.718   3.671  0.2551  0.2244 -0.1088
17405W        W30819   3.487   1.617   1.745  0.0741 -0.2362 -0.0021
17406W        W30820   8.938  15.278   3.464 -0.0532 -0.0958 -0.0820
17407W        W30821   1.935   3.195   5.321  0.0056  0.0524 -0.1960
17408W        W30822  13.916   8.330   4.487  0.1294  0.1170  0.1877
17409W        W30823  16.116  14.289  13.380 -0.1163  0.1453 -0.0295
17410W        W30824  14.365   9.134  12.025 -0.1767  0.1494 -0.0258
17411W        W30825   5.750  14.776  10.914  0.2314  0.3418 -0.0460
17412W        W30826   4.273  12.030   2.955 -0.1935 -0.0592  0.0151
17413W        W30827   1.832  13.531   5.524  0.4520  0.2523  0.0348
17414W        W30828  12.978   8.167  11.083 -0.0683  0.0968 -0.1958
17415W        W30829   3.968   8.190  15.092  0.1541 -0.0712 -0.0795
17416W        W30830  11.433  12.579  14.194 -0.2597 -0.2595  0.1929
17417W        W30831   3.916   9.347   1.306  0.1146 -0.1446  0.0741
17418W        W30832   8.389  15.379  14.240 -0.3385 -0.2355  0.3307
17419W        W30833   3.077   7.934  15.947 -0.0416 -0.1128  0.0727
17420W        W30834   3.758  15.748   3.632  0.3683 -0.0647 -0.1258
17421W        W30835   6.075   1.922  13.848 -0.2582 -0.0016 -0.4568
17422W        W30836   6.587   8.016   0.866 -0.0391  0.1278 -0.1278
17423W        W30837  13.329   2.164   2.966  0.2578  0.0657 -0.0509
17424W        W30838  10.169   5.635   3.622  0.0682  0.2266  0.0924
17425W        W30839   6.248   7.520   3.989  0.0347  0.4265  0.0620
17426W        W30840   2.384   1.634  15.223  0.2444 -0.0078  0.1757
17427W        W30841   5.505   4.316  11.517 -0.0105  0.0653  0.0147
17428W        W30842  16.588  17.488  12.928 -0.0508 -0.1440  0.5572
17429W        W30843   2.845   4.629  12.741  0.3384 -0.1039  0.1271
17430W        W30844   1.736  12.655  14.365 -0.1533  0.3318 -0.0813
17431W        W30845   9.473   2.061  11.188 -0.2180 -0.0502  0.1214
17432W        W30846   3.164  11.429   4.188  0.2777 -0.0168  0.3263
17433W        W30847  13.351  15.881  13.794 -0.0787  0.0005  0.1491
17434W        W30848  12.491   6.437  13.218 -0.0414 -0.0405 -0.0914
17435W        W30849   9.097  10.769   5.691 -0.0913  0.0041 -0.0151
17436W        W30850   4.455  12.148  14.648  0.3135  0.0552  0.0233
17437W        W30851   2.797   2.413   5.789 -0.1369  0.2061  0.2163
17438W        W30852   2.276  12.135   4.200 -0.0919 -0.0726  0.0558
17439W        W30853   0.104   5.179  15.499 -0.0480 -0.1241 -0.1312
17440W        W30854   4.198   7.054  12.293  0.0938  0.0656  0.0577
17441W        W30855   6.192  11.108   4.707  0.1609 -0.2712  0.2926
17442W        W30856  17.063   1.887   2.034  0.3787  0.0775 -0.1535
17443W        W30857   1.101   8.405  16.058  0.3203  0.1008 -0.0853
17444W        W30858   6.634   8.462   4.112  0.0356 -0.0850 -0.3409
17445W        W30859  16.741  11.290   1.007  0.3506  0.0482 -0.0073
17446W        W30860  13.972   8.638   5.529 -0.1651 -0.0096 -0.0869
17447W        W30861   2.763  11.959   4.050  0.1358 -0.3836 -0.1080
17448W        W30862  15.663  10.790   2.833 -0.1869 -0.1080 -0.0712
17449W        W30863  15.154   0.435  13.758 -0.1571  0.1190 -0.4018
17450W        W30864   0.287  11.417   3.901 -0.0137 -0.2278 -0.0152
17451W        W30865  14.345  16.566   5.665 -0.0050  0.1962 -0.0522
17452W        W30866   8.202   2.146   4.535  0.2251 -0.0197  0.0790
17453W        W30867  14.825  17.426  10.808 -0.3492 -0.1131 -0.0613
17454W        W30868   0.010  11.791  11.348  0.0819  0.1098  0.0153
17455W        W30869   4.447  16.543  10.398  0.2057 -0.4741 -0.0190
17456W        W30870  18.171   4.714   2.888  0.1999  0.1730 -0.2038
17457W        W30871  16.492  15.034  15.062  0.0589  0.0548  0.0897
17458W        W30872  15.213   6.351  11.384 -0.2703 -0.3283  0.1662
17459W        W30873   0.485   5.677   3.358  0.0545 -0.0762 -0.0755
17460W        W30874   2.904  18.136  11.718  0.2384 -0.0081 -0.1940
17461W        W30875   8.824   0.007   3.517 -0.0481 -0.0807  0.1252
17462W        W30876   0.888   1.445   1.758 -0.1544 -0.0569  0.0613
17463W        W30877  15.603   3.602   9.702  0.3906 -0.3863 -0.3329
17464W        W30878  14.242   4.232  10.556  0.2544 -0.1349  0.3034
17465W        W30879  16.068  13.179   3.549  0.0672 -0.1741  0.0046
17466W        W30880  12.358   7.547   0.043  0.1843  0.0828 -0.6831
17467W        W30881  16.079  17.790  10.811  0.0165 -0.3937  0.0794
17468W        W30882   5.236   6.321   3.835 -0.0518 -0.1934  0.0578
17469W        W30883   4.347   7.777   1.975 -0.2463 -0.0556  0.2152
17470W        W30884  14.265   8.007  14.009  0.0489 -0.2300  0.1086
17471W        W30885  13.069   3.043   4.303  0.1489  0.0552 -0.0028
17472W        W30886  11.526   3.534  11.866  0.0940  0.2285 -0.0331
17473W        W30887  16.762   5.300   3.252  0.0993 -0.0755  0.1497
17474W        W30888   5.430  15.093   4.474  0.0306 -0.0092 -0.2038
17475W        W30889   2.315   3.797   2.780  0.0020  0.0059  0.1949
17476W        W30890  12.155   5.947   0.265  0.1225 -0.2947 -0.0721
17477W        W30891   6.358  12.254   9.946  0.0744 -0.1222  0.0938
17478W        W30892  10.656  10.296  14.904 -0.1377  0.1634 -0.2527
17479W        W30893   5.669   6.249  10.978 -0.1651 -0.2464 -0.1749
17480W        W30894   8.149  11.579  16.125  0.1595 -0.0020  0.1726
17481W        W30895  13.884   7.644  16.197  0.1875  0.1036 -0.3163
17482W        W30896  18.233   7.166  12.200 -0.0434  0.1082 -0.1277
17483W        W30897  14.162   3.374   2.358 -0.0151 -0.0570  0.0254
17484W        W30898   9.004  12.974  11.351  0.1275  0.3554 -0.3727
17485W        W30899   8.267   9.038   0.755 -0.1161 -0.2000  0.0406
17486W        W30900  15.605  10.684   1.374 -0.0764 -0.0892 -0.1701
17487W        W30901  11.049   0.920  15.314  0.3005  0.2228 -0.1446
17488W        W30902   9.732   7.243   3.338  0.1329 -0.2177  0.0845
17489W        W30903  12.814  12.898  13.854  0.0262  0.0577 -0.4389
17490W        W30904   0.961   8.167   0.291  0.0056 -0.1038 -0.0601
17491W        W30905   0.146   6.685   3.202  0.1274 -0.1265  0.1101
17492W        W30906  12.635  14.995   5.127 -0.3221  0.0493 -0.0076
17493W        W30907   0.447  11.957   4.784  0.1351  0.0319  0.0152
17494W        W30908   5.049  12.873   1.761  0.3831 -0.0740  0.3229
17495W        W30909   1.235  13.695  15.049  0.1107  0.1089 -0.3907
17496W        W30910   8.947   6.772   4.360 -0.0158  0.0069 -0.0661
17497W        W30911  13.107  18.390  13.753 -0.0007 -0.1877  0.2326
17498W        W30912   6.485  14.387  14.159  0.0178  0.2540  0.1258
17499W        W30913  12.190   1.219   2.030  0.2172  0.2266 -0.0388
17500W        W30914  17.286   5.101  10.291  0.1287 -0.0341 -0.1742
17501W        W30915   4.341  16.931   5.262  0.0877  0.3309  0.0192
17502W        W30916  13.499   4.008  12.739 -0.1367  0.1119 -0.1853
17503W        W30917  14.317   8.249   4.835 -0.0790 -0.0878  0.1170
17504W        W30918  11.278   8.222  11.559  0.0789 -0.2005 -0.0067
17505W        W30919   3.102  17.648  12.642  0.1963 -0.1008 -0.0742
17506W        W30920  17.135   9.780  15.945  0.0018 -0.0176 -0.0361
17507W        W30921  10.863  17.751  10.403  0.1934  0.0686  0.4128
17508W        W30922   4.461   2.163   0.682 -0.3154  0.2053 -0.1280
17509W        W30923   1.972  15.017   5.589 -0.0024 -0.2478 -0.0979
17510W        W30924  16.324  12.781  14.186  0.2066  0.0244  0.1386
17511W        W30925   5.040   7.018  16.167  0.0738 -0.0561  0.2302
17512W        W30926   1.800  17.760  13.048  0.1810  0.1558 -0.2068
17513W        W30927   2.770  12.669   4.610  0.4578 -0.1121  0.1410
17514W        W30928   5.424   4.981   5.782 -0.0205  0.1242  0.0575
17515W        W30929  12.105  15.832   0.442 -0.1054  0.3100  0.2892
17516W        W30930  12.477   7.695   1.414 -0.1320  0.1911  0.1293
17517W        W30931   2.967  18.175  12.611  0.1780 -0.0917  0.0187
17518W        W30932  17.501  10.623  15.056  0.0783 -0.0299  0.2594
17519W        W30933  10.440   2.866  10.962 -0.0769 -0.4097  0.1435
17520W        W30934   3.249  15.384  13.524 -0.1584 -0.0432 -0.1878
17521W        W30935   5.332   2.081   1.619 -0.0451 -0.1098  0.0797
17522W        W30936  16.118  14.206  12.847  0.2425  0.3911 -0.2167
17523W        W30937  12.241   6.777  11.957 -0.4237  0.1516  0.0857
17524W        W30938  11.684   9.738  10.158  0.0296  0.0816 -0.0805
17525W        W30939   3.739  13.959   3.467 -0.4631 -0.3111  0.0061
17526W        W30940  12.329  18.415   2.294 -0.0299 -0.4896 -0.0310
17527W        W30941  10.995   6.949  11.781 -0.2583 -0.3610 -0.0282
17528W        W30942  14.020  18.045  13.167 -0.0090  0.0999 -0.0335
17529W        W30943  15.080   6.711  11.061  0.0971  0.1105 -0.0586
17530W        W30944  13.397   6.541  11.892  0.2352  0.0678 -0.2702
17531W        W30945  12.173  13.006  15.959 -0.1793 -0.0004  0.2518
17532W        W30946  15.897  16.277   3.433  0.1328 -0.0766  0.1150
17533W        W30947   9.777   9.109   4.266  0.0759  0.2113 -0.1185
17534W        W30948   8.380  13.640   5.664 -0.0843 -0.3047  0.0587
17535W        W30949   1.025   4.807  14.476  0.1370 -0.2083  0.1677
17536W        W30950   6.185   4.583   1.131  0.0610  0.1233  0.3742
17537W        W30951  17.097  10.559  14.309  0.1875 -0.3303 -0.0514
17538W        W30952   2.929  10.014  12.432 -0.0357 -0.2924 -0.0493
17539W        W30953   2.635   7.011   3.269  0.0551 -0.1130  0.0144
17540W        W30954  14.867  13.487  13.937 -0.1463  0.1696 -0.4773
17541W        W30955   2.570   0.310  15.779  0.2206 -0.3245  0.0952
17542W        W30956  17.955   7.051  13.240  0.2296 -0.0383 -0.1477
17543W        W30957  12.876   8.285  15.015  0.1208  0.1327 -0.0305
17544W        W30958   0.069  16.965  12.071  0.0339  0.1495  0.1750
17545W        W30959   4.882  17.515   3.305 -0.0020  0.2587 -0.1619
17546W        W30960   4.037   3.094   1.483 -0.0166  0.1846  0.3515
17547W        W30961   5.134   4.530   2.017 -0.4321  0.2059  0.0224
17548W        W30962   9.519   7.963  14.128  0.0178  0.0869 -0.0414
17549W        W30963  11.398   7.556   3.914  0.1428  0.3291  0.1683
17550W        W30964   2.433   1.164   3.400 -0.2658  0.0269  0.1617
17551W        W30965   5.659   9.414   2.422  0.0465 -0.0028  0.2011
17552W        W30966  15.364   0.790   5.016 -0.1453  0.0761 -0.0118
17553W        W30967  15.303   5.425  13.064  0.0185  0.5334  0.1309
17554W        W30968  10.995   1.675   0.128  0.3316  0.2421 -0.2017
17555W        W30969   2.814   5.068  11.227  0.2827  0.1623  0.0835
17556W        W30970   2.302  16.048  14.946  0.0828 -0.1879  0.2371
17557W        W30971   7.676   0.122   2.911  0.0924 -0.0479 -0.0053
17558W        W30972   4.805  17.935   3.764 -0.0469  0.0055 -0.2509
17559W        W30973   7.697   1.341  12.951 -0.2871 -0.1712 -0.1254
17560W        W30974   8.783   4.951  15.961 -0.2076  0.1376  0.0445
17561W        W30975  12.134  15.227  11.372 -0.1503  0.0383 -0.2499
17562W        W30976   1.037   7.676  14.734  0.2566  0.0385 -0.0837
17563W        W30977   5.636  10.245  14.927 -0.0727  0.0419 -0.0111
17564W        W30978   8.908   6.375  11.095 -0.1326  0.1845  0.0432
17565W        W30979   6.659  17.934  15.128 -0.2133  0.1203 -0.2501
17566W        W30980   7.975   0.106  13.582  0.0969 -0.0863 -0.0565
17567W        W30981   5.611   4.411   0.626  0.0289  0.0168  0.0230
17568W        W30982   9.983   0.211   5.282 -0.2297  0.1908 -0.0008
17569W        W30983   8.518   0.646  12.307 -0.1006  0.1217 -0.0203
17570W        W30984  11.694  18.410   2.714  0.1377 -0.0327  0.2408
17571W        W30985   0.351  17.157  15.659 -0.0117  0.1594  0.0258
17572W        W30986  14.516   6.550   4.486  0.0438 -0.0014  0.0369
17573W        W30987   6.226   5.863   4.279 -0.1256  0.2023  0.0575
17574W        W30988   2.539  11.378   4.819  0.0696  0.0978 -0.2040
17575W        W30989   2.361  11.328   1.861 -0.0036 -0.1765 -0.2803
17576W        W30990  12.914  12.138   4.560 -0.1635 -0.2274 -0.1784
17577W        W30991   5.557   3.281   6.464  0.0990  0.2898 -0.1834
17578W        W30992   5.219  12.196  14.316 -0.3953 -0.1200 -0.0488
17579W        W30993  11.210   3.413   4.034 -0.0355  0.1254  0.3447
17580W        W30994   6.750   2.748  10.987 -0.1728 -0.1058  0.3028
17581W        W30995   4.596  16.400   3.548  0.2191 -0.1053  0.1949
17582W        W30996   2.894   4.160   0.265 -0.1356 -0.0127 -0.1342
17583W        W30997  12.954   5.024  15.726  0.0419 -0.0888  0.0643
17584W        W30998   4.150  14.284   0.041  0.1173  0.0517 -0.3452
17585W        W30999   5.570  10.739  11.450  0.1206 -0.0383 -0.0467
17586W        W31000   4.081  13.494   0.408  0.1828 -0.2691  0.3355
17587W        W31001   5.433  17.103  10.335 -0.0927 -0.0420  0.1400
17588W        W31002  16.221  16.893   5.377  0.0138  0.1194 -0.1050
17589W        W31003  13.495  14.916  13.936 -0.1248  0.2002  0.0385
17590W        W31004  17.821   9.925  16.128 -0.0823  0.2679  0.0801
17591W        W31005  11.315   1.465  14.637 -0.1091  0.2110  0.4097
17592W        W31006   5.210   5.032  11.600 -0.4037 -0.3337 -0.0852
17593W        W31007   1.000  10.500  15.063 -0.0749  0.2888 -0.1635
17594W        W31008  11.871   6.092   2.012 -0.0899 -0.1186 -0.0669
17595W        W31009  12.382   9.993   2.938 -0.1038  0.0141 -0.1021
17596W        W31010   2.342   5.098  15.309  0.1126  0.1879 -0.0775
17597W        W31011   3.307   2.612   1.022  0.3473  0.0683 -0.0794
17598W        W31012   5.574   8.537  11.891 -0.0467  0.1449 -0.1755
17599W        W31013  16.554   8.410  10.982 -0.1214 -0.1387 -0.3362
17600W        W31014   8.234   6.059   4.301 -0.0548 -0.0141  0.2857
17601W        W31015   1.931   9.956   3.323 -0.0418 -0.0198  0.0977
17602W        W31016   3.053   9.880   4.744  0.4033  0.2370  0.4142
17603W        W31017  13.729  12.884  10.873  0.2852  0.0775 -0.1629
17604W        W31018  13.775  16.342   4.543 -0.4506 -0.2210  0.1214
17605W        W31019  16.060  13.858  15.844  0.0257 -0.1314  0.0394
17606W        W31020  13.542   5.794  14.197  0.0533 -0.1076 -0.1504
17607W        W31021   1.835   2.651   0.175 -0.2176 -0.1069  0.3068
17608W        W31022  12.914   2.938  12.035 -0.3043  0.3293 -0.1580
17609W        W31023  18.193   8.153   5.812  0.2251 -0.5223  0.0026
17610W        W31024  13.652   4.485  11.823 -0.0987 -0.0567  0.1499
17611W        W31025   0.973  10.806   4.079 -0.0483  0.2746  0.0372
17612W        W31026   2.640   7.966   2.790  0.0565 -0.2934 -0.0641
17613W        W31027   0.554   1.056  12.123 -0.1419  0.2592 -0.2701
17614W        W31028  11.479  16.166  12.542 -0.0881 -0.2373 -0.0206
17615W        W31029   8.042   2.762  11.282  0.1404  0.0818  0.2141
17616W        W31030  10.686  10.800  13.038 -0.0688 -0.0796  0.1464
17617W        W31031   4.200   0.313   3.928 -0.0376  0.0202  0.0503
17618W        W31032   4.745  12.703  10.451  0.0846  0.0639 -0.0716
17619W        W31033  11.228   2.605   1.323  0.3234 -0.1962 -0.1580
17620W        W31034  15.073  17.576   0.244 -0.2595 -0.1491 -0.2704
17621W        W31035  10.487   4.979  15.809  0.0201  0.5112 -0.3427
17622W        W31036  15.937   3.590   1.101 -0.0885  0.0065  0.1188
17623W        W31037   5.548   7.091  12.896  0.2993 -0.2664 -0.0285
17624W        W31038   5.744  11.214   0.596  0.2866  0.0961  0.2235
17625W        W31039  14.979   4.634  14.291  0.0443 -0.3372  0.1319
17626W        W31040  18.128  17.650   5.324  0.2461  0.0010  0.2509
17627W        W31041   8.279  16.756  15.544  0.1784  0.0242 -0.1735
17628W        W31042  14.888  12.562  12.099  0.0028  0.1152 -0.0928
17629W        W31043  15.651   0.573   4.520 -0.0887  0.0870  0.1392
17630W        W31044   1.639  10.243  14.565  0.3447 -0.0458 -0.2380
17631W        W31045  10.938   3.106  15.204 -0.1387 -0.2029  0.0111
17632W        W31046  12.524   6.370  10.665 -0.5267  0.0531 -0.2579
17633W        W31047   7.937  17.938   4.670  0.0428  0.3590 -0.1087
17634W        W31048   7.668   8.968   4.928 -0.0038  0.2108 -0.0538
17635W        W31049  16.581  17.600   2.509  0.1419  0.1286 -0.2518
17636W        W31050  13.331  13.440   0.079 -0.0071  0.0008  0.0965
17637W        W31051   9.786   1.322  15.019  0.3423 -0.1306 -0.1454
17638W        W31052  14.142   7.822   1.808 -0.1085  0.0536  0.0934
17639W        W31053  13.270  12.325   5.024 -0.0553 -0.1014  0.0125
17640W        W31054  14.022  10.404   1.073  0.0359  0.0086  0.0477
17641W        W31055   9.898  12.854   9.744 -0.1470 -0.1278 -0.0456
17642W        W31056  10.093   6.612   5.750 -0.1963 -0.2773  0.4188
17643W        W31057  17.901   8.939   5.261  0.1332 -0.2508  0.1609
17644W        W31058   5.400  12.317   4.582  0.0617  0.1782 -0.0544
17645W        W31059   0.684   3.664  11.281 -0.1935  0.0341  0.2535
17646W        W31060  10.334  17.025  12.167  0.2118  0.0836  0.2395
17647W        W31061  15.824  12.654   5.503  0.0968  0.0658  0.0770
17648W        W31062   2.560  18.363   2.395  0.3146 -0.1545  0.2384
17649W        W31063  11.509   4.232   4.946 -0.1666  0.0786  0.0214
17650W        W31064   2.746   0.320  14.691  0.1791 -0.2190 -0.1235
17651W        W31065  14.855   9.124   0.198  0.4000 -0.0564  0.0202
17652W        W31066   3.464  17.834  15.590  0.2020 -0.1038  0.0186
17653W        W31067  10.294   9.098  14.323 -0.2075 -0.2076 -0.1569
17654W        W31068   9.459   7.345  13.273 -0.1573  0.2766 -0.0256
17655W        W31069  14.195   1.895   5.267  0.1907  0.0996  0.1313
17656W        W31070  15.137  10.635   1.028  0.0369 -0.2494 -0.3848
17657W        W31071  16.699   7.397  12.900  0.0428 -0.0715  0.6530
17658W        W31072  10.703   6.474  11.900  0.0655  0.3002  0.2129
17659W        W31073  17.611   0.162   1.610  0.2384 -0.0411 -0.2084
17660W        W31074   7.115  15.728  12.505 -0.2069  0.1233  0.3268
17661W        W31075   5.646  15.404   3.145 -0.6223 -0.3301 -0.1268
17662W        W31076   1.634   4.753  11.773 -0.0507  0.0866  0.2144
17663W        W31077   9.398   2.054   4.195  0.0894  0.1325  0.1330
17664W        W31078   0.301   3.610  12.793  0.0970 -0.0417  0.2221
17665W        W31079   9.454   2.398   5.771 -0.2312  0.0944  0.0071
17666W        W31080   5.127   4.549  13.850 -0.0037  0.1223 -0.4598
17667W        W31081   3.880  17.531   2.476  0.0483 -0.0515  0.0883
17668W        W31082   5.571   2.481  13.012 -0.0650  0.1237 -0.1185
17669W        W31083  11.766  10.762   1.545 -0.2163 -0.1275 -0.0963
17670W        W31084  14.919   9.819   0.862  0.0125 -0.2708  0.3942
17671W        W31085  15.556   0.610  11.921 -0.3045 -0.0034 -0.1463
17672W        W31086   4.344  17.204  11.044  0.0797 -0.1590  0.1547
17673W        W31087  13.573   1.187  13.994 -0.0913 -0.0363  0.3841
17674W        W31088   8.256  12.160  13.827  0.2422  0.1346  0.4811
17675W        W31089   7.545  12.160   2.029  0.1333  0.0608  0.0031
17676W        W31090   0.305  16.080  14.201  0.0375  0.0398  0.4023
17677W        W31091   8.054   1.910  11.702 -0.0898  0.1742  0.1716
17678W        W31092  15.289  10.824   0.475 -0.0369  0.1158  0.0567
17679W        W31093  12.376  11.690  16.237  0.0227  0.0357 -0.1363
17680W        W31094   8.810   7.645  14.414  0.1075  0.0656 -0.2476
17681W        W31095  10.502   7.812  11.445 -0.0103 -0.0704 -0.0213
17682W        W31096   6.020  12.672  10.676  0.3514 -0.1247 -0.0652
17683W        W31097  15.160  14.593   0.775  0.0368 -0.2076 -0.2774
17684W        W31098   6.944  16.466   5.054  0.2729 -0.0396  0.2608
17685W        W31099   4.592   1.243  12.660  0.3920  0.0691  0.1869
17686W        W31100   8.331   5.349  12.209 -0.0194 -0.3468  0.1278
17687W        W31101  13.957  14.015   0.784 -0.3771  0.1724 -0.1124
17688W        W31102   4.936   8.520  12.139 -0.1321 -0.2564  0.2021
17689W        W31103   0.086  17.984  10.570  0.0604 -0.1189  0.0901
17690W        W31104  18.036   3.097   4.806 -0.4823  0.1461  0.0296
17691W        W31105   2.786   8.947   4.481  0.3433 -0.0399 -0.0749
17692W        W31106  14.335   4.732   0.700  0.1532  0.1450  0.0087
17693W        W31107  14.206   9.680  14.082  0.0189 -0.0639  0.2562
17694W        W31108   6.264  10.346   4.572  0.0593  0.2194 -0.0302
17695W        W31109   0.289   7.759  10.381  0.0630  0.1765 -0.2895
17696W        W31110  13.337  18.318  15.541 -0.1935 -0.2300  0.0770
17697W        W31111   5.974   0.872  16.037  0.0013 -0.1251 -0.1233
17698W        W31112   2.954  16.378   4.026 -0.1641 -0.0005 -0.1913
17699W        W31113  10.152   8.197   6.079 -0.0669  0.2878 -0.0832
17700W        W31114   5.205   6.902   3.857 -0.1956 -0.2094 -0.2997
17701W        W31115  11.415  12.255   3.542  0.1255 -0.2023  0.0894
17702W        W31116   1.846   4.898  15.476  0.1069  0.0663 -0.0597
17703W        W31117  13.028  17.666   1.706 -0.0712 -0.0720 -0.0313
17704W        W31118  17.670   4.147   3.863 -0.0394 -0.3061 -0.3900
17705W        W31119   2.980   7.891   4.280  0.0478 -0.1518 -0.1354
17706W        W31120   0.587   3.611  12.011  0.0508 -0.2071  0.0790
17707W        W31121  14.883  11.692   5.533  0.0211  0.3667  0.1044
17708W        W31122  17.168   2.778  13.419  0.0191 -0.0743  0.0393
17709W        W31123  11.807   9.978   4.242 -0.1941 -0.1237 -0.1843
17710W        W31124  10.806   4.575  11.338  0.3159 -0.2793 -0.2921
17711W        W31125   0.510  17.335   3.970  0.0591 -0.0723  0.1441
17712W        W31126   2.693   7.522  14.200 -0.1874  0.0037  0.1137
17713W        W31127   6.177   7.337   2.125  0.0776  0.0176  0.4845
17714W        W31128   6.902   0.386  13.821  0.0528  0.1773  0.1039
17715W        W31129   7.828   7.518   0.321  0.0531  0.2128 -0.1646
17716W        W31130  14.495   3.569  15.122 -0.2248  0.2517  0.2455
17717W        W31131   7.296   4.016   0.198  0.0342  0.2530 -0.0124
17718W        W31132  14.579   6.778   5.985  0.1702 -0.2261  0.3635
17719W        W31133   1.619   6.570  12.086 -0.5909  0.2659 -0.0439
17720W        W31134   9.578  17.099  13.902 -0.2127 -0.1222  0.0253
17721W        W31135  10.872  14.434   2.816 -0.1426 -0.1862  0.2945
17722W        W31136   2.100   8.235  13.982 -0.2533  0.3033  0.2160
17723W        W31137   0.247  15.927   5.926 -0.0165  0.0436 -0.2557
17724W        W31138   4.433   5.785   4.713 -0.0721 -0.1499 -0.0175
17725W        W31139   9.102   2.095   4.673 -0.0125 -0.2284  0.2696
17726W        W31140  10.593   6.038  12.107  0.2381 -0.3697 -0.2387
17727W        W31141   4.744   7.741   1.635  0.4691 -0.0516  0.0624
17728W        W31142   0.497  16.308   1.938  0.0487 -0.0528 -0.0473
17729W        W31143  13.309  14.612   5.048  0.1106 -0.3220  0.0745
17730W        W31144   5.987   6.854  13.073 -0.2326  0.1483 -0.0516
17731W        W31145   9.534  10.646  13.613 -0.1034  0.2092  0.1077
17732W        W31146  11.072   1.330  10.664 -0.1563 -0.1002  0.1235
17733W        W31147   7.369  10.897  12.859 -0.1371 -0.0082 -0.2031
17734W        W31148   8.107   9.957  15.240 -0.0903 -0.0418 -0.1103
17735W        W31149  13.561  17.404  10.773 -0.1381 -0.0052 -0.2623
17736W        W31150  12.683  18.002   0.031  0.1735 -0.1190 -0.0524
17737W        W31151   0.661   0.248  13.058 -0.0532 -0.1406  0.0095
17738W        W31152  10.913  16.637  16.134 -0.1469  0.1492  0.0331
17739W        W31153   5.354   8.760   2.472  0.2175  0.0514 -0.1666
17740W        W31154   1.424  14.934  14.495  0.0842 -0.4876  0.1979
17741W        W31155  14.582  15.880   3.129 -0.0582 -0.1225  0.1586
17742W        W31156   8.159   2.014   0.224 -0.2290  0.2378  0.1398
17743W        W31157  16.608   5.220  14.235  0.4319 -0.3192  0.3931
17744W        W31158   0.480  18.184  11.220  0.0385  0.1034 -0.0607
17745W        W31159   5.414   5.433  14.284  0.3270  0.2169 -0.0757
17746W        W31160   9.336  16.868   1.804 -0.0056 -0.1362  0.3464
17747W        W31161   7.644   3.794   0.469 -0.0429  0.0710 -0.3688
17748W        W31162   6.852   0.658   3.819 -0.0649 -0.0049 -0.0564
17749W        W31163   6.534   8.545   6.067  0.1380 -0.1017  0.2228
17750W        W31164   8.275   8.530  13.330  0.1159  0.0005 -0.1025
17751W        W31165   4.360  16.298   3.078 -0.0056  0.1167 -0.0286
17752W        W31166   5.678  17.515   4.579 -0.0438 -0.0284 -0.0377
17753W        W31167  10.224   8.676   6.208 -0.4092 -0.1198 -0.0579
17754W        W31168  18.219   7.100  11.652 -0.1194 -0.2885 -0.2171
17755W        W31169   4.916  14.874   3.742 -0.0641 -0.1488 -0.1356
17756W        W31170   5.378  11.870  15.696  0.2373  0.1147 -0.1646
17757W        W31171   0.988  15.761   4.564  0.3278 -0.3700 -0.0111
17758W        W31172  11.113  11.902   2.992 -0.1353 -0.1407 -0.0533
17759W        W31173  11.026   9.182  13.067 -0.1558  0.0380 -0.0207
17760W        W31174   1.357   9.163   0.259  0.2053  0.2728  0.2164
17761W        W31175   0.849   0.806  10.562 -0.1180 -0.1881  0.0008
17762W        W31176  14.326   2.305   0.825 -0.5973 -0.1407  0.0515
17763W        W31177  16.655   8.680  15.861 -0.3061 -0.0365  0.2473
17764W        W31178  17.602   7.420  13.463 -0.0048  0.0902 -0.1353
17765W        W31179  16.498  14.400   4.953  0.2910  0.0553  0.1419
17766W        W31180  17.949  11.819  15.113  0.3707 -0.0139 -0.1806
17767W        W31181   1.122  14.037  10.939 -0.0050  0.0272 -0.1650
17768W        W31182  12.997   6.276   0.518 -0.1360  0.2638 -0.1446
17769W        W31183   9.581   1.868   0.534 -0.0045  0.1243  0.1802
17770W        W31184   4.253   2.378   0.201 -0.0277 -0.0210 -0.1737
17771W        W31185  11.405   9.291  14.069 -0.1106  0.0058  0.0293
17772W        W31186   0.702  17.228  10.746  0.1883 -0.1587 -0.1896
17773W        W31187  17.531   2.714   5.588 -0.0799  0.1265  0.1855
17774W        W31188   0.890  14.003  13.313 -0.4026 -0.0719  0.1483
17775W        W31189   6.553   7.229  15.158 -0.2236  0.0873 -0.0516
17776W        W31190  10.097   8.539   2.984  0.1125  0.0800 -0.2193
17777W        W31191  10.150   6.275  12.814 -0.0202 -0.0472 -0.0027
17778W        W31192  12.005  11.816  10.224 -0.1548 -0.3057 -0.1761
17779W        W31193   8.689   2.901   4.323 -0.0489 -0.2262  0.1080
17780W        W31194   9.768   8.578   3.417 -0.1290 -0.0552  0.2354
17781W        W31195   4.131  16.349  14.695 -0.1126  0.3838  0.0805
17782W        W31196  18.205  16.511   4.674  0.0798 -0.1852  0.0430
17783W        W31197   4.991   9.094   3.671 -0.0133 -0.0502 -0.0364
17784W        W31198  16.547  11.672   6.076  0.1935 -0.1792  0.3891
17785W        W31199   6.606  15.231   4.010  0.1390  0.1976  0.1617
17786W        W31200   5.533  16.234   4.532 -0.0559 -0.3037 -0.1632
17787W        W31201   7.854   7.070  11.357  0.2945 -0.0269  0.1373
17788W        W31202  17.343   2.614  11.058  0.0309  0.0222 -0.0985
17789W        W31203   1.674   7.848   1.830 -0.0082  0.0490 -0.2285
17790W        W31204   9.771  10.242   3.715 -0.0019 -0.4029  0.0052
17791W        W31205  11.678   9.470   0.187 -0.2735  0.3663 -0.0668
17792W        W31206   1.044  15.694   3.569  0.3183  0.0612  0.0532
17793W        W31207   9.506  17.915   1.869  0.1935  0.0699 -0.2942
17794W        W31208   5.385   5.875   4.092  0.0897  0.1373  0.5718
17795W        W31209  16.126   8.640  12.270 -0.1996 -0.0726 -0.1871
17796W        W31210  10.101   3.581   2.022 -0.0556 -0.0921 -0.0594
17797W        W31211   2.873   8.414   0.170  0.1306  0.1340 -0.2431
17798W        W31212   6.586   8.716  15.530  0.0333 -0.3318 -0.2066
17799W        W31213  13.454   2.677  10.372 -0.0816 -0.2269  0.2705
17800W        W31214   1.345   0.594   4.038 -0.3333  0.2792  0.0706
17801W        W31215   6.910   3.588  11.593  0.2773  0.1277 -0.0920
17802W        W31216   1.726  14.533  15.934  0.0597 -0.0385 -0.4115
17803W        W31217   9.605  11.652  16.048 -0.1598 -0.0039 -0.1283
17804W        W31218  13.097   0.904  10.983 -0.2414  0.0500  0.0333
17805W        W31219   1.318   8.615  10.480  0.2702  0.0043  0.1473
17806W        W31220  12.479   4.685   6.083 -0.2261 -0.1934  0.3247
17807W        W31221   7.638   3.113  12.304 -0.0125 -0.1013  0.1049
17808W        W31222   9.781  10.383  14.531  0.2594 -0.1344 -0.0215
17809W        W31223  10.806   0.943   2.363  0.2116 -0.2502 -0.1752
17810W        W31224   6.345  14.116   4.992 -0.0488  0.1652 -0.0105
17811W        W31225  18.247  18.453  10.530  0.1612 -0.3494 -0.1189
17812W        W31226   5.178  17.391  11.714  0.0729 -0.2682 -0.1256
17813W        W31227  14.082  11.496  12.137 -0.1636  0.1738  0.3979
17814W        W31228   1.882   5.584   4.013  0.0564  0.1819  0.0800
17815W        W31229  10.335   1.068   2.451  0.5176  0.1811  0.0382
17816W        W31230   5.513   7.482  14.151  0.1927  0.0481  0.1629
17817W        W31231  18.399   1.963  15.727 -0.3764 -0.1456  0.3639
17818W        W31232   1.950   0.439   4.848 -0.1025  0.2193  0.0337
17819W        W31233   0.621  14.494   2.517  0.1452 -0.0192 -0.0399
17820W        W31234  17.251   5.205   0.766 -0.0587 -0.4058 -0.1161
17821W        W31235   4.602   3.742  16.214 -0.0251 -0.0503 -0.0393
17822W        W31236   0.679   0.829  13.103  0.3023  0.1290  0.1680
17823W        W31237  11.975  14.330  13.057  0.0452 -0.0685 -0.3420
17824W        W31238   0.309  10.771  13.590 -0.0031 -0.3006 -0.1647
17825W        W31239   4.842  15.387   3.134  0.2662  0.0406  0.1240
17826W        W31240  13.048  11.879   0.953 -0.1393  0.1336  0.1884
17827W        W31241  12.086  18.178  13.269 -0.1479 -0.0755  0.2064
17828W        W31242   5.899  13.958  11.586 -0.0644  0.2268  0.1525
17829W        W31243   9.977  14.564  14.491 -0.3306  0.1041 -0.1222
17830W        W31244  15.872   0.833   2.921 -0.3323  0.2682  0.1106
17831W        W31245   1.922   4.209  10.794  0.4038 -0.0319 -0.0123
17832W        W31246   7.522   1.032  14.092 -0.0352 -0.3688  0.2093
17833W        W31247  16.808  17.923  16.268  0.0570  0.2896 -0.4218
17834W        W31248   3.434   7.051  13.979 -0.1411 -0.3219  0.0977
17835W        W31249   0.102  12.921   4.734  0.0234 -0.1111  0.0715
17836W        W31250  10.918  18.452   1.613 -0.1552  0.0830 -0.0879
17837W        W31251   5.389   7.435  15.487 -0.1519 -0.0270  0.0133
17838W        W31252   4.970   6.427   5.351  0.2025  0.0318  0.0280
17839W        W31253   8.813   6.758   6.541  0.4069  0.2646 -0.2352
17840W        W31254   2.392  11.504  11.709  0.0161  0.1115  0.0334
17841W        W31255   5.173  18.004   3.419  0.0945  0.2180 -0.0746
17842W        W31256   3.618  13.414  11.854 -0.1743  0.1191 -0.2058
17843W        W31257   8.615   0.012  12.765 -0.2914  0.3179  0.0347
17844W        W31258  15.304  17.268  15.891 -0.2676  0.1029 -0.2581
17845W        W31259   9.776  16.617   4.122 -0.1408  0.1215 -0.3121
17846W        W31260   8.112   0.357   4.210  0.1778  0.1660 -0.1160
17847W        W31261   1.840   0.927   5.476  0.0173  0.3403 -0.1753
17848W        W31262   6.424   8.554   0.049  0.0739 -0.2222 -0.2977
17849W        W31263   3.470   3.898   0.822 -0.4434 -0.0150 -0.1904
17850W        W31264  13.998   1.086   2.107  0.0754 -0.3668 -0.1701
17851W        W31265  15.668   8.828  14.663 -0.0106 -0.1933  0.1292
17852W        W31266  10.207  12.940  14.643  0.0318 -0.2632  0.0283
17853W        W31267  14.955   1.566  15.594 -0.0027 -0.3501 -0.1653
17854W        W31268  12.244   9.272   0.949  0.1415 -0.1296 -0.2257
17855W        W31269  10.942   5.326  15.768  0.3372  0.1482 -0.0509
17856W        W31270   9.401   2.973  14.142  0.0143  0.1969  0.1341
17857W        W31271   0.032   4.894   4.680  0.0639 -0.1963  0.2085
17858W        W31272   3.327  16.754  12.848  0.2026  0.1568  0.2177
17859W        W31273   1.371   3.111   3.800 -0.0360 -0.1547  0.3739
17860W        W31274  14.472   9.542  15.786  0.0886 -0.1008  0.1639
17861W        W31275   9.998   6.809   1.733  0.3247 -0.2067  0.0251
17862W        W31276  18.443   8.469  15.295 -0.2951  0.2817 -0.1813
17863W        W31277   5.962  14.440   4.635  0.1357  0.0028 -0.1626
17864W        W31278  12.646  12.895  16.177 -0.2000  0.0615  0.0393
17865W        W31279   6.013  17.593   3.236  0.0429 -0.0332 -0.1451
17866W        W31280  10.305   9.579  14.244  0.1128 -0.0177  0.0166
17867W        W31281   2.248   7.042  14.420  0.0870  0.0130 -0.2468
17868W        W31282   2.421  12.706  13.875 -0.1442  0.2266  0.1344
17869W        W31283  14.228   1.827  15.443 -0.1251 -0.2712  0.1410
17870W        W31284   5.072   2.338  15.305  0.0436 -0.0450 -0.4441
17871W        W31285   4.107   1.452  12.750  0.3332 -0.0260 -0.3194
17872W        W31286   9.821  11.323  14.624  0.1002  0.1070  0.0859
17873W        W31287  15.507   3.179  12.768 -0.2909 -0.2494  0.0357
17874W        W31288   0.914  11.380  14.566  0.0183  0.0400  0.0043
17875W        W31289   2.880  13.462  13.238  0.0983 -0.2313  0.2577
17876W        W31290  12.182   0.949  14.301 -0.0510  0.3081 -0.0751
17877W        W31291   5.716   3.653  15.115 -0.1963  0.3018 -0.0936
17878W        W31292   4.777   7.172  10.679 -0.1483  0.0158 -0.0991
17879W        W31293  17.895  11.492   2.997 -0.1692 -0.3038 -0.2706
17880W        W31294   9.772  10.134  10.799 -0.0862  0.2497  0.1011
17881W        W31295  13.805   2.361   0.382 -0.2381 -0.4781  0.1108
17882W        W31296   8.985   3.052   1.717  0.1024  0.0006 -0.0632
17883W        W31297  11.949   4.896   4.196 -0.5447  0.0033  0.0080
17884W        W31298  13.936   2.259  15.048 -0.0727  0.0483 -0.2298
17885W        W31299   1.748  16.817  13.159 -0.0332  0.0852  0.1289
17886W        W31300  12.342  14.102  13.380 -0.0760  0.4165 -0.2762
17887W        W31301   8.128  12.585   3.083 -0.1177  0.1971  0.1201
17888W        W31302   3.551   0.633  12.410  0.1286  0.1078  0.0253
17889W        W31303   4.710   3.291   0.719 -0.0484  0.0137 -0.0394
17890W        W31304  13.794   0.109  12.162 -0.0204 -0.0864  0.0234
17891W        W31305  16.314  12.896  12.170  0.2913 -0.0514 -0.0628
17892W        W31306  17.924   7.882   4.180  0.0328  0.0239 -0.1876
17893W        W31307  16.041  17.782  11.768  0.1380 -0.0431  0.1335
17894W        W31308   4.111   4.450  10.487 -0.0931 -0.2177  0.0777
17895W        W31309   0.737  14.930   4.057  0.0073 -0.0449 -0.0982
17896W        W31310  11.120   7.633   3.237  0.2202  0.1495 -0.2148
17897W        W31311   9.790   6.294   2.312  0.1420  0.0459 -0.1573
17898W        W31312   5.743  13.372  12.919  0.0426 -0.0229  0.0912
17899W        W31313  15.763   9.742  15.816  0.1077 -0.4315 -0.0817
17900W        W31314  18.067   2.917  15.718  0.0798  0.0568  0.3418
17901W        W31315   5.343   8.649  12.361 -0.1573 -0.2389 -0.0331
17902W        W31316   1.331   2.203  13.425 -0.2712 -0.2464 -0.2199
17903W        W31317   7.753  17.715  12.866 -0.0243  0.2595  0.3755
17904W        W31318   7.870  15.670   1.255  0.0732  0.0249  0.0580
17905W        W31319   2.297  14.842  12.784 -0.0275 -0.2502 -0.1264
17906W        W31320  12.509  13.817  16.176 -0.0260 -0.1285 -0.4486
17907W        W31321  12.793   7.804  15.206 -0.1658 -0.1356  0.1549
17908W        W31322  11.189   5.999  13.898 -0.0129  0.4297  0.1633
17909W        W31323  11.409   8.207  11.102  0.0967  0.0159 -0.0321
17910W        W31324   6.783  12.583  14.993  0.0190 -0.2027  0.0414
17911W        W31325  12.674   9.683   9.808  0.1367  0.0269  0.0753
17912W        W31326  11.383   1.616  12.516 -0.0796  0.3396 -0.0578
17913W        W31327   3.937  11.253  14.955  0.1324 -0.2621  0.2181
17914W        W31328  11.849  16.642  15.282  0.3325 -0.1455 -0.0956
17915W        W31329   5.553  14.321   4.174  0.0606  0.2500  0.0586
17916W        W31330   3.327   6.305   5.858  0.2939 -0.2321 -0.0128
17917W        W31331   8.828   5.194  13.486  0.3040  0.2577  0.0737
17918W        W31332   1.396  16.526   5.434  0.0059 -0.0850  0.0213
17919W        W31333  11.286   1.073  15.813  0.1947 -0.0633  0.0808
17920W        W31334  16.764  13.181  11.185 -0.0415 -0.0899  0.0837
17921W        W31335   1.149   1.283   2.296  0.1213  0.1881 -0.0084
17922W        W31336  17.120  10.053  15.381 -0.0976 -0.2065  0.0036
17923W        W31337   5.489   8.437  13.623 -0.0157 -0.0972 -0.4788
17924W        W31338   2.504   0.017   1.932  0.3418  0.2324  0.0940
17925W        W31339  14.804   0.338  12.395 -0.0261  0.3556 -0.5040
17926W        W31340   7.664  10.032  13.898  0.1125  0.0314 -0.0186
17927W        W31341   2.052   7.475   4.131  0.1707 -0.3479 -0.2006
17928W        W31342   9.017  13.699  13.842 -0.0241 -0.3404  0.2719
17929W        W31343   2.874  13.718   5.470 -0.2189 -0.0469 -0.0992
17930W        W31344  17.059   4.361  14.765 -0.0176  0.4896 -0.0328
17931W        W31345  13.460   9.571   5.970 -0.2017  0.1132 -0.3604
17932W        W31346  16.998  18.358   1.917 -0.0354  0.1272 -0.2298
17933W        W31347  15.095  11.383   3.972  0.2036  0.0800 -0.1067
17934W        W31348  16.738  10.678  10.332 -0.0545 -0.0334 -0.0898
17935W        W31349   4.519  17.351   1.266  0.4100 -0.1633  0.1226
17936W        W31350  14.034   6.029   5.634  0.0799 -0.3018  0.2263
17937W        W31351   7.229   0.818   1.229 -0.1990  0.2513  0.1788
17938W        W31352  17.485  17.945  13.363 -0.2421 -0.1462  0.0165
17939W        W31353   6.401   9.510   0.279  0.1523 -0.3000  0.3385
17940W        W31354   1.579   1.443   5.295  0.1708  0.2865  0.0586
17941W        W31355  10.034   6.937  14.030 -0.3883  0.1473  0.2115
17942W        W31356  13.707   5.191   4.673  0.1834 -0.2530  0.0130
17943W        W31357   8.874   7.607   2.052  0.2811 -0.1066 -0.1641
17944W        W31358  17.729  17.837  12.397 -0.1742  0.1441  0.0913
17945W        W31359   7.897  10.490   1.611  0.1614  0.1521  0.2050
17946W        W31360  15.750   5.012   2.494  0.0015  0.0433 -0.1359
17947W        W31361   7.044   5.994   0.822 -0.0534  0.3906  0.1638
17948W        W31362   3.449  12.362  16.188  0.0022 -0.2504  0.0470
17949W        W31363  13.858  16.386  10.441  0.1778  0.0595  0.0914
17950W        W31364   3.761   2.489  14.166 -0.0625  0.4735 -0.1668
17951W        W31365  15.802  12.415  12.212  0.0147 -0.1250 -0.0505
17952W        W31366  12.295  10.876  12.952  0.1172 -0.1026  0.1011
17953W        W31367  16.754   3.225   5.627  0.5044 -0.2548  0.2331
17954W        W31368   6.848   6.277   5.510  0.0789 -0.0854  0.1860
17955W        W31369   1.287  17.377  16.170  0.0529  0.0458 -0.1377
17956W        W31370  17.886  14.762  13.230  0.0519  0.1131 -0.0847
17957W        W31371  17.239   0.440  14.810  0.0467 -0.4529  0.1432
17958W        W31372  16.708   4.795   3.023  0.1323 -0.1639  0.3367
17959W        W31373   3.770   5.929  15.047  0.1950 -0.0338  0.2203
17960W        W31374  17.797   2.853  11.359 -0.0372 -0.1027 -0.1420
17961W        W31375  17.063   3.437   3.703  0.0337  0.0529 -0.1755
17962W        W31376  11.081  11.835   5.830 -0.0460  0.0324 -0.2896
17963W        W31377  16.205   5.501   4.537  0.1617  0.0294 -0.1070
17964W        W31378  14.892   1.040   0.557  0.0986 -0.0134  0.2173
17965W        W31379   7.384  11.500  15.862 -0.0986 -0.1349  0.0692
17966W        W31380   9.236   9.712  14.753  0.0864  0.0844 -0.0995
17967W        W31381   1.109   8.583   2.297  0.2271  0.0415 -0.0203
17968W        W31382   3.209  13.381  15.362  0.3012  0.0749  0.2187
17969W        W31383   1.757  13.301   4.789  0.0129 -0.5288 -0.1143
17970W        W31384  18.376   2.492  14.842 -0.2845 -0.0922 -0.0431
17971W        W31385  11.516   8.319   0.463 -0.1983  0.2213  0.2810
17972W        W31386   1.686   7.108   3.982 -0.2038 -0.1225  0.1423
17973W        W31387   6.432  11.981   5.030 -0.0662 -0.0221 -0.0071
17974W        W31388   1.997  14.761  14.739  0.6068  0.0768  0.3628
17975W        W31389  15.495   7.396  13.886 -0.0455  0.0876 -0.0756
17976W        W31390  15.635   5.687  13.969  0.2162  0.0362  0.2706
17977W        W31391   4.842  18.368  11.488 -0.0466 -0.0026  0.0501
17978W        W31392  14.304   0.085  12.309  0.2668  0.1864 -0.0808
17979W        W31393  11.699  16.546   1.390 -0.0259 -0.1436 -0.4376
17980W        W31394   1.735   9.788   2.346  0.4075 -0.0922 -0.1621
17981W        W31395  18.316  10.462   2.320 -0.0541 -0.0479 -0.2597
17982W        W31396  14.859  16.689   1.547  0.0724 -0.2054  0.3195
17983W        W31397   8.507   3.274   5.665 -0.1326  0.0957  0.1630
17984W        W31398   9.895  11.759   1.230 -0.0876  0.0565 -0.0276
17985W        W31399   3.968   3.098  10.666  0.1539  0.3685  0.2027
17986W        W31400  17.339   3.000  11.978  0.0662 -0.4139  0.0218
17987W        W31401  14.317   9.619   2.264  0.0750  0.2540  0.4485
17988W        W31402   0.804  18.064   4.377  0.1150 -0.0485  0.2629
17989W        W31403   6.739   0.447  15.242 -0.1549  0.1612  0.0708
17990W        W31404   1.326  18.484  15.374  0.3745  0.1830  0.0440
17991W        W31405   5.871  13.447   2.287 -0.0705 -0.1290  0.0696
17992W        W31406  12.088   9.393   6.054  0.0065  0.1091 -0.1542
17993W        W31407  17.224  14.263  11.254  0.0673 -0.1122  0.1699
17994W        W31408  14.525   7.206  14.997 -0.0469 -0.2309 -0.1730
17995W        W31409   3.446   1.003   5.729 -0.0415  0.0459 -0.0188
17996W        W31410  10.899   7.443   0.284  0.0694  0.4273 -0.0192
17997W        W31411   4.569   2.499   1.742  0.0610 -0.2914 -0.0073
17998W        W31412   6.122   2.402  14.182  0.1805  0.0226 -0.1062
17999W        W31413   2.207   3.279  11.327  0.3013 -0.0586  0.4403
18000W        W31414  17.825   6.217   3.363 -0.0655 -0.0310 -0.1666
18001W        W31415  13.977   1.944  14.078 -0.2277  0.4718  0.1646
18002W        W31416   1.941  10.372  14.999 -0.2222 -0.0348  0.1949
18003W        W31417   2.396  10.569  11.926  0.0640 -0.1836  0.3919
18004W        W31418  13.497  14.795  16.207 -0.2910 -0.1709  0.2005
18005W        W31419  17.460   9.222  10.837  0.7107 -0.3056 -0.2666
18006W        W31420  16.511   1.017  10.812 -0.2720  0.4119  0.3622
18007W        W31421   0.799  13.463  11.754  0.0127  0.0067  0.0027
18008W        W31422   5.145   9.907  12.403 -0.2316  0.2828 -0.0441
18009W        W31423  18.213  17.963   4.890  0.0019 -0.1332  0.0901
18010W        W31424   9.986   2.375   3.349  0.3494  0.0747 -0.1732
18011W        W31425  11.531   6.188   2.394 -0.1376 -0.0336  0.2133
18012W        W31426  11.278   5.643  12.201  0.0027 -0.0692 -0.2134
18013W        W31427  17.304  17.304  10.529 -0.1649 -0.0969 -0.2005
18014W        W31428  13.169  12.873   3.419  0.0245 -0.1658  0.3633
18015W        W31429  17.684   0.876  16.094  0.2608 -0.1340  0.0297
18016W        W31430   6.532   9.517   2.037 -0.4033 -0.0831  0.0231
18017W        W31431   4.287   1.396  11.268 -0.0490  0.0979 -0.0239
18018W        W31432  11.932   7.273   5.366 -0.0218  0.1765  0.2049
18019W        W31433  16.743   1.660   1.096 -0.0358 -0.1516  0.0741
18020W        W31434  15.148  12.562   5.591 -0.2345  0.0423  0.1873
18021W        W31435  17.337  13.706   0.017  0.2813 -0.2210  0.2068
18022W        W31436   2.576  18.409   4.042  0.0383  0.0060 -0.1109
18023W        W31437  12.051   9.843  14.016 -0.1484 -0.0447 -0.0192
18024W        W31438  10.585   0.076  15.340 -0.2164  0.0426 -0.1743
18025W        W31439   1.936  11.699  15.513  0.0249 -0.4201  0.1538
18026W        W31440   6.315   2.819  13.557  0.0295 -0.1342  0.0078
18027W        W31441   7.948  14.014  11.718  0.0434  0.0556  0.0271
18028W        W31442  11.380  17.611  12.935 -0.3126  0.0922  0.1012
18029W        W31443   3.011  17.145  13.681  0.2050 -0.1411  0.0394
18030W        W31444   3.555   2.392  14.652 -0.0294  0.3805  0.0508
18031W        W31445  13.672   7.934   0.718  0.1595  0.3396  0.0242
18032W        W31446   5.712   3.552   4.417 -0.1094 -0.0977  0.0301
18033W        W31447   7.490   7.620  13.879 -0.0493 -0.0348 -0.2359
18034W        W31448   3.035   9.218  15.693 -0.0237 -0.2199 -0.2705
18035W        W31449   7.743  18.241  14.234  0.2617 -0.0538  0.0255
18036W        W31450   5.275  16.849   0.761 -0.0966 -0.1097 -0.3423
18037W        W31451  16.786   1.090   2.377 -0.3701 -0.0928  0.4732
18038W        W31452   9.846  15.829  11.431  0.1954  0.1252 -0.4682
18039W        W31453  12.525   0.896   1.050  0.0617  0.0587  0.1722
18040W        W31454  16.548   7.614  16.272 -0.1716 -0.0180  0.2036
18041W        W31455  17.177  10.499   4.191  0.1657  0.1009  0.3787
18042W        W31456   7.751   8.172  15.120 -0.0787 -0.0975 -0.2523
18043W        W31457  12.530   7.334   6.176 -0.0796  0.1520 -0.0534
18044W        W31458   6.706   2.529  14.309 -0.0290 -0.1561 -0.1119
18045W        W31459  10.618   0.392  13.396 -0.0413 -0.2686 -0.1009
18046W        W31460  11.929   1.881  13.227 -0.0510  0.3861  0.2116
18047W        W31461  15.813   9.269   4.260  0.1141 -0.2703  0.3166
18048W        W31462  16.349   5.462   3.519  0.1037  0.0658  0.3708
18049W        W31463  14.621   5.144   0.138  0.1085  0.1308  0.2316
18050W        W31464  11.804   8.858   2.890  0.0095  0.1075 -0.0949
18051W        W31465  10.690   9.883   5.582 -0.0243 -0.1166 -0.0190
18052W        W31466  13.274  13.529  14.208  0.0896 -0.1563 -0.4035
18053W        W31467   5.917  14.362  13.236 -0.1397 -0.3431 -0.1441
18054W        W31468   4.674  16.565  13.810 -0.0135  0.1304  0.4105
18055W        W31469   0.209   0.660  11.293 -0.1938 -0.0733 -0.0496
18056W        W31470   6.178  14.747   1.562 -0.2392 -0.2874  0.2523
18057W        W31471  16.098  10.054   3.348 -0.0531 -0.0284  0.0694
18058W        W31472  11.540   2.722   1.669  0.1622  0.0901 -0.1606
18059W        W31473   2.441  12.658  10.504  0.1122 -0.0351  0.2541
18060W        W31474  16.875  16.115  10.672 -0.0152  0.1679 -0.1038
18061W        W31475   4.525  15.525   4.913  0.2011 -0.0902 -0.0094
18062W        W31476   0.413   8.190   3.436 -0.1451  0.1640  0.0320
18063W        W31477   6.733   5.656   0.623  0.1790  0.1487  0.2385
18064W        W31478   4.146  18.148   4.464  0.1789 -0.1758 -0.2750
18065W        W31479   6.687   4.680   2.168 -0.0227  0.3093 -0.3032
18066W        W31480   9.623  12.902   2.412  0.0517  0.4104  0.0635
18067W        W31481  15.729   9.215  12.474  0.4273 -0.0710 -0.0589
18068W        W31482   0.489   1.302   4.067  0.0959  0.2237 -0.1831
18069W        W31483  14.265  15.556  10.834 -0.0328  0.0444 -0.6112
18070W        W31484  11.557  10.663   2.266  0.1617 -0.0754 -0.2441
18071W        W31485  12.351   2.763  13.593  0.0149  0.1562  0.4830
18072W        W31486   7.631  12.400   1.263 -0.0197 -0.0554  0.2240
18073W        W31487  12.732  17.034   0.503 -0.1218 -0.2313 -0.0108
18074W        W31488   9.464   7.986   3.987  0.0997  0.1069 -0.0111
18075W        W31489   6.570   6.342  12.482  0.3399  0.1130 -0.2791
18076W        W31490   9.683  11.702   3.985 -0.5776 -0.0546 -0.2801
18077W        W31491  15.900   7.940   3.560  0.0161 -0.0360 -0.0898
18078W        W31492   3.008   0.946   2.147  0.0254  0.2812  0.3225
18079W        W31493  18.185   0.717   3.787 -0.0188 -0.1028  0.0710
18080W        W31494   8.794   5.413  12.124  0.2421  0.3398 -0.3542
18081W        W31495   7.698   3.866   9.853 -0.0221 -0.0256 -0.0080
18082W        W31496  17.764  15.296  11.080 -0.2158  0.2168  0.0710
18083W        W31497  16.898   4.256  15.649 -0.2854 -0.1375 -0.1620
18084W        W31498   8.823   6.283   2.212  0.0316  0.2052 -0.0006
18085W        W31499  16.516   9.697  13.679 -0.1989  0.3083  0.0045
18086W        W31500   7.490   8.174   4.298 -0.1848  0.1006 -0.1845
18087W        W31501   3.573  16.690  14.784  0.0353 -0.1163 -0.0324
18088W        W31502  14.301   6.834  13.174 -0.0487  0.1463 -0.0694
18089W        W31503  18.064  16.741  13.327 -0.0099 -0.2712  0.1848
18090W        W31504  13.925   1.480  11.925  0.4125  0.3000 -0.2583
18091W        W31505  12.580   5.436   1.717  0.0613  0.0340  0.4487
18092W        W31506  11.774   9.974  11.834  0.1811  0.0210 -0.2513
18093W        W31507  15.992  13.095   2.111 -0.2809 -0.0287  0.0949
18094W        W31508   4.596  17.952   3.336 -0.1219 -0.0747  0.3181
18095W        W31509   4.011   0.069  12.922 -0.0634 -0.3757 -0.1154
18096W        W31510  14.036  15.779  12.046  0.1329 -0.0340 -0.0977
18097W        W31511   3.438  13.520   3.532 -0.3144  0.2736  0.2317
18098W        W31512   8.405   9.169   1.302  0.1123 -0.2020  0.1100
18099W        W31513  10.168   2.873  12.302  0.0062 -0.0133 -0.0427
18100W        W31514  13.578  17.796   1.504  0.0413 -0.0538  0.0011
18101W        W31515  13.629   2.212   2.529  0.1601  0.1904 -0.0927
18102W        W31516  12.015   4.317  14.819  0.4502 -0.2314  0.0791
18103W        W31517   3.949  16.212  12.430 -0.0248 -0.2526 -0.0784
18104W        W31518   7.230  17.256   1.686 -0.0504  0.2825 -0.0365
18105W        W31519   0.869  13.970   2.348  0.2347 -0.1586  0.0853
18106W        W31520  17.121   0.327   1.779 -0.0338  0.0549 -0.2097
18107W        W31521  14.780  13.472   3.930 -0.2078 -0.0702 -0.0176
18108W        W31522  15.777  15.486  12.419  0.0806 -0.0412 -0.2266
18109W        W31523   2.503   0.989   2.419  0.2091 -0.0583 -0.1190
18110W        W31524  13.725   3.850  10.460 -0.0687 -0.0020 -0.0007
18111W        W31525   0.817  15.928   4.127 -0.2358  0.1237  0.0592
18112W        W31526  18.009  14.497  10.913  0.0339  0.2476 -0.0158
18113W        W31527  17.306   4.761  14.630 -0.2075  0.1044 -0.1733
18114W        W31528  14.673   6.302   4.078  0.0659 -0.0223 -0.0311
18115W        W31529   3.396  15.014   5.283  0.1454  0.0253  0.0238
18116W        W31530   4.431  10.059   1.192  0.0076 -0.0934  0.1938
18117W        W31531   9.625  13.713   5.625 -0.2748 -0.0855  0.1144
18118W        W31532  12.947   6.088   5.561 -0.1587  0.0579  0.1506
18119W        W31533   5.985   6.208   5.612 -0.0025  0.0774  0.0832
18120W        W31534  10.309  15.975  10.579 -0.3399 -0.3504  0.2995
18121W        W31535   7.224  13.755  10.156  0.0602  0.0105  0.2303
18122W        W31536   7.842  16.935   4.517  0.0264 -0.1142 -0.1768
18123W        W31537   0.712  11.242   5.072  0.3406  0.2023  0.2094
18124W        W31538   9.968   7.864  11.494 -0.0947 -0.0131 -0.0678
18125W        W31539  10.315   1.066   0.232  0.0246  0.1301 -0.1904
18126W        W31540   5.428   0.616   0.509 -0.1141  0.0746 -0.2375
18127W        W31541   2.283   3.050  12.803 -0.0589 -0.1933  0.1244
18128W        W31542   6.335   2.532  15.778  0.0231  0.1390 -0.1111
18129W        W31543   6.784   0.575   1.969 -0.0081 -0.1661  0.1647
18130W        W31544   1.903   1.833   5.416 -0.1776  0.2960 -0.1817
18131W        W31545  10.988   6.208  13.475 -0.3928 -0.2347 -0.1629
18132W        W31546   0.412  14.598  10.986 -0.3705 -0.1792  0.1347
18133W        W31547  10.191   2.514   2.346  0.0170  0.1060  0.1560
18134W        W31548  15.892   9.106  12.953 -0.4486  0.0982  0.1088
18135W        W31549   9.789  17.671  15.990 -0.0581 -0.1820 -0.0929
18136W        W31550  10.853   4.570   4.246 -0.0724 -0.0804  0.0785
18137W        W31551   2.462  17.254   4.576  0.1021  0.1744  0.1272
18138W        W31552   9.904  12.211   4.501  0.1635  0.0602  0.2336
18139W        W31553  17.870   0.119   1.165 -0.1409  0.2053 -0.1921
18140W        W31554   4.773  13.169  16.149 -0.0786  0.2438  0.0256
18141W        W31555   7.097   3.066  12.192 -0.2374 -0.0385  0.1994
18142W        W31556   9.196  16.682   2.979 -0.0719  0.3399 -0.1008
18143W        W31557  16.709   3.216   2.461 -0.2517  0.0039 -0.0568
18144W        W31558   9.590   1.759  14.040 -0.2360  0.2930 -0.2018
18145W        W31559   0.053   8.075   2.396 -0.1503 -0.0788  0.2054
18146W        W31560  13.990  14.112  11.455  0.0526  0.0874 -0.2651
18147W        W31561   2.273   8.598   0.876  0.0957 -0.0568 -0.2704
18148W        W31562   1.449  14.676  10.754  0.0243 -0.2226  0.0893
18149W        W31563  10.169   4.071   0.866 -0.1969 -0.4505 -0.0724
18150W        W31564   6.085  11.557   2.170  0.0281 -0.1600 -0.1540
18151W        W31565   1.701  12.252  11.779 -0.1114  0.0203  0.0018
18152W        W31566   9.162  11.120   3.545  0.0781 -0.0734 -0.0013
18153W        W31567   4.835  14.830   3.089  0.1514 -0.1725 -0.1522
18154W        W31568  13.720   8.486  11.999 -0.0079  0.0507 -0.3551
18155W        W31569   4.079  12.568   4.366 -0.1355 -0.3026  0.0159
18156W        W31570   4.021   4.409   2.730  0.1066  0.2372 -0.0211
18157W        W31571  12.279   8.657  14.329  0.1221  0.1005 -0.0939
18158W        W31572   7.428  10.829   3.106  0.2986  0.0915 -0.2856
18159W        W31573   1.132   1.924  12.021  0.2554  0.2751 -0.1239
18160W        W31574   0.677   9.237  14.407 -0.4929  0.1700  0.0760
18161W        W31575  15.202   6.783  13.052  0.0620 -0.2732 -0.0327
18162W        W31576  11.140  18.034  14.838 -0.1543 -0.2201  0.2069
18163W        W31577   3.319   4.452   4.079 -0.3293 -0.2096  0.0045
18164W        W31578   8.463  13.430  12.638  0.1115  0.0803  0.4039
18165W        W31579  15.834   5.992   2.705 -0.0723  0.2245 -0.1669
18166W        W31580  12.082  15.315  13.320  0.1138  0.1648 -0.1796
18167W        W31581  17.576  16.461  11.880 -0.0628  0.2027 -0.1197
18168W        W31582  16.747   6.546  13.536  0.1550  0.7273  0.1800
18169W        W31583   5.130  12.730   4.722 -0.1969 -0.1733  0.0320
18170W        W31584   9.174  11.930  14.181  0.0621 -0.1697 -0.0023
18171W        W31585   4.173  12.602   1.896 -0.1376 -0.1935 -0.0046
18172W        W31586   7.630   7.085   5.340 -0.1080  0.0233  0.1221
18173W        W31587   3.102   5.880   5.608 -0.2555  0.1346  0.2713
18174W        W31588  16.218   1.997   0.152  0.1624  0.2143 -0.2924
18175W        W31589   2.216   3.217   1.136  0.2082 -0.4419 -0.0565
18176W        W31590  12.911  13.607   1.761 -0.1738  0.1282 -0.1910
18177W        W31591   0.208  13.220  10.481  0.3327  0.1584 -0.1052
18178W        W31592   5.350   1.290  14.435 -0.0417  0.0529 -0.1612
18179W        W31593  13.128   5.698  11.880  0.0737  0.0095 -0.0889
18180W        W31594   7.739  11.123   6.084  0.1040  0.0154  0.2120
18181W        W31595   4.143  16.767   1.908 -0.1844  0.0382  0.2853
18182W        W31596   5.899  13.523  13.354 -0.3116  0.1798  0.0169
18183W        W31597  15.207   5.056   0.093 -0.3292 -0.1937  0.1562
18184W        W31598   0.349   2.569  13.736  0.1388  0.2425 -0.2326
18185W        W31599   7.378   6.660   2.526  0.1157 -0.0592 -0.1358
18186W        W31600   8.419   0.440   2.975 -0.1570  0.4670  0.1144
18187W        W31601   2.705  13.318  15.072 -0.2988 -0.0929  0.1702
18188W        W31602   1.691   6.539   4.797  0.0842  0.3420 -0.3633
18189W        W31603   6.401   2.302   1.390 -0.2820  0.1322  0.2742
18190W        W31604   1.563   4.577   5.850  0.0540  0.2089  0.1696
18191W        W31605  15.557  14.302   4.713 -0.1529  0.0979 -0.1142
18192W        W31606   4.071   1.223   0.701 -0.0632 -0.0449  0.1049
18193W        W31607   1.964   9.181  14.086 -0.0967 -0.3215 -0.0545
18194W        W31608   0.360  13.495  12.045  0.0073  0.2088  0.3471
18195W        W31609   9.428  14.457  14.509  0.2415 -0.2028  0.0602
18196W        W31610  18.025   5.840   6.073 -0.0397 -0.3305 -0.3189
18197W        W31611  12.752   2.427  13.260  0.0216  0.0328 -0.1392
18198W        W31612   5.722  11.180   2.257  0.0110  0.1166  0.1119
18199W        W31613  15.799  16.540   4.195  0.3156  0.0868  0.2580
18200W        W31614   8.914  12.187  13.083 -0.0498 -0.1325 -0.1098
18201W        W31615   1.870   0.355   0.785  0.0930 -0.0027 -0.1978
18202W        W31616   5.238   3.834  15.327 -0.0969  0.0334  0.1739
18203W        W31617  11.819  13.512  14.495 -0.0814  0.0531 -0.1966
18204W        W31618  16.605   5.185   3.865 -0.2794  0.3436  0.0546
18205W        W31619   4.208  15.658  10.886 -0.0486 -0.0257 -0.0178
18206W        W31620   1.526  13.960  11.265 -0.2975  0.0764  0.0657
18207W        W31621  17.694   3.830   2.023 -0.2814 -0.3185  0.1716
18208W        W31622  14.145   9.587  12.307 -0.1768 -0.1041 -0.1442
18209W        W31623   7.465  11.252   1.871  0.1295 -0.0072 -0.0202
18210W        W31624   6.003  14.993  14.520 -0.2197 -0.6072  0.1943
18211W        W31625  16.085  16.011   1.520  0.0722 -0.1646  0.0417
18212W        W31626   4.808   0.415  12.578 -0.1806 -0.3178  0.2983
18213W        W31627  17.411   5.488  16.218 -0.0827  0.1168 -0.2677
18214W        W31628   0.581  13.617   4.472  0.1880 -0.4199  0.1306
18215W        W31629   3.436   6.277  15.344  0.0760  0.0767 -0.2328
18216W        W31630   6.350   5.046   1.970  0.2816  0.2463 -0.1357
18217W        W31631  12.888   5.192   4.051 -0.1517  0.2442 -0.1955
18218W        W31632   0.148   9.852   0.446  0.1336  0.0249  0.0644
18219W        W31633  13.113  10.093  11.876 -0.1807 -0.3989  0.0731
18220W        W31634   3.604   9.808   1.358 -0.1632  0.1420  0.0313
18221W        W31635  15.091   7.174   3.241 -0.2601  0.2542 -0.1017
18222W        W31636  18.409  13.851  16.021 -0.2260 -0.0554 -0.1350
18223W        W31637   1.659  16.236   3.025  0.0902  0.2875 -0.3176
18224W        W31638  11.528   1.173   3.064  0.5804  0.1911  0.5119
18225W        W31639   0.885  17.243   4.370 -0.2573  0.1251 -0.2274
18226W        W31640   6.712   4.331  12.999  0.2026 -0.1947 -0.1084
18227W        W31641  14.112   0.498  10.921  0.1412  0.0552 -0.2430
18228W        W31642   6.835   1.605  13.331 -0.1366  0.0737  0.2995
18229W        W31643   4.247   4.198  14.476  0.1314  0.0621  0.0920
18230W        W31644  10.210  17.015   0.726 -0.1518 -0.1933 -0.1818
18231W        W31645  11.720   8.127  14.878  0.4564  0.2781  0.3994
18232W        W31646   4.763  10.299   3.081  0.0387  0.0915 -0.0667
18233W        W31647   9.574  12.692   4.567 -0.1060  0.0081 -0.1177
18234W        W31648  17.238  12.687   3.923  0.1276  0.0401  0.0699
18235W        W31649   4.165   6.289   0.068  0.3171  0.1411  0.2268
18236W        W31650  10.928   6.806  10.557  0.0619  0.0022 -0.3019
18237W        W31651  11.914   5.797   2.746 -0.2433  0.2963  0.3422
18238W        W31652  18.276   6.424   1.891  0.2972  0.1072  0.0053
18239W        W31653   6.825  12.344  10.067  0.0595  0.2353  0.0301
18240W        W31654  14.098  14.309  10.824  0.0776 -0.4394 -0.0801
18241W        W31655   4.413  18.446  13.253 -0.0464  0.3187  0.3499
18242W        W31656  16.531   2.906  15.420  0.2094  0.3981  0.1845
18243W        W31657   0.535   7.757  13.240 -0.0097 -0.1830 -0.0511
18244W        W31658  17.065  16.268   1.128 -0.1745  0.3309  0.1325
18245W        W31659  11.360   9.591  13.297  0.1198 -0.3812  0.0796
18246W        W31660   3.379   8.141  10.591 -0.1407  0.1240 -0.2351
18247W        W31661   7.351  11.783   1.754 -0.0525 -0.0119 -0.2241
18248W        W31662  14.980  18.445   1.679 -0.2843 -0.1597 -0.2190
18249W        W31663  13.485  11.454   4.918  0.1387 -0.0875  0.4090
18250W        W31664   7.627  12.180  14.964  0.3599 -0.2999  0.1291
18251W        W31665  16.224   0.575  12.220  0.2563 -0.1477 -0.0755
18252W        W31666   0.372   5.692   4.236  0.0235 -0.2993  0.1689
18253W        W31667   1.505   4.291   6.580  0.0991  0.0479 -0.0889
18254W        W31668  11.279  12.700  10.358 -0.0008  0.2557  0.0847
18255W        W31669   4.084  12.556  15.594 -0.1457 -0.2802 -0.1910
18256W        W31670   4.446  16.546   1.622  0.1068  0.0353 -0.0713
18257W        W31671   4.460  15.722  13.093 -0.0573  0.2986  0.1200
18258W        W31672   2.530   3.255  16.151 -0.2604  0.0711 -0.0314
18259W        W31673  17.535   9.499  16.008  0.2721  0.0619  0.0395
18260W        W31674   8.962   1.498   6.178 -0.2865 -0.1594 -0.2234
18261W        W31675   5.788   4.943   4.967  0.1340 -0.2688  0.1724
18262W        W31676   4.838   2.076   3.178 -0.1554 -0.1256 -0.0872
18263W        W31677   7.984   1.439  11.500  0.0268 -0.0853 -0.0067
18264W        W31678  16.734  10.330  14.672  0.0961  0.1850  0.2304
18265W        W31679  14.930   8.342   1.212  0.0269 -0.1965  0.0561
18266W        W31680  14.932   4.857  12.134  0.0692 -0.0128  0.1036
18267W        W31681   3.067   8.183   6.111 -0.1578 -0.0760  0.1235
18268W        W31682   1.305  13.687  10.397  0.0481 -0.0134 -0.3533
18269W        W31683   3.410  13.901   5.224 -0.1167  0.3494  0.1553
18270W        W31684  12.374  10.949   6.657 -0.1736 -0.0016  0.2746
18271W        W31685  15.849  15.308   4.334  0.1276 -0.1452 -0.1953
18272W        W31686  13.961   0.573   2.004 -0.1185  0.0426  0.1323
18273W        W31687  10.131  18.411   4.531  0.0696 -0.1086 -0.1914
18274W        W31688   0.788  17.153  13.481  0.0778  0.2365 -0.1480
18275W        W31689  15.736   1.269   2.383 -0.1926  0.0350  0.2503
18276W        W31690   6.108   6.954   0.743 -0.1171  0.1572 -0.0110
18277W        W31691   1.108   2.674  13.091  0.2568 -0.0271  0.2717
18278W        W31692  10.413  11.158   5.771  0.0659  0.0523 -0.0379
18279W        W31693  12.618   5.989  14.848  0.4818 -0.2741 -0.3500
18280W        W31694  13.829   7.084   0.128  0.2493  0.0261 -0.1411
18281W        W31695   5.197  12.202  13.673 -0.1672  0.2001 -0.0820
18282W        W31696  12.095  10.348   3.090 -0.1288 -0.1770  0.0579
18283W        W31697   8.355  13.131   0.396  0.1339  0.0182 -0.4208
18284W        W31698  11.095  11.838  16.084 -0.2408 -0.1324 -0.3320
18285W        W31699   8.166   0.800   4.511 -0.1533 -0.1198  0.2941
18286W        W31700  16.068   5.323  15.887 -0.0388  0.2844 -0.2486
18287W        W31701  17.597  17.109   1.840  0.2535  0.3481 -0.2000
18288W        W31702  10.293   0.856  15.410  0.2619  0.1311  0.1136
18289W        W31703   0.415   8.465   0.130 -0.0132  0.0948  0.1249
18290W        W31704   0.075  15.156   4.875 -0.2567 -0.0248 -0.0666
18291W        W31705  10.338  15.192  10.006  0.0833  0.0443 -0.2223
18292W        W31706  13.920  13.706  13.587 -0.1404 -0.1884 -0.1540
18293W        W31707   6.416   7.219   0.472  0.0691 -0.2918 -0.0774
18294W        W31708   1.884   9.023  11.816 -0.0005 -0.0471  0.0549
18295W        W31709  13.853   0.586   5.308 -0.0589 -0.1805  0.2919
18296W        W31710  18.201   1.313  15.437 -0.1425 -0.0963  0.2906
18297W        W31711  16.891  11.036   5.617  0.1884 -0.0449  0.2265
18298W        W31712  12.634   1.424   4.322  0.3583 -0.0738  0.0775
18299W        W31713   8.329  10.813  13.051  0.1128 -0.2482  0.1390
18300W        W31714  13.048   0.720   1.064 -0.1602 -0.0200  0.0265
18301W        W31715  17.444  11.524  16.129  0.1959 -0.2905 -0.2624
18302W        W31716  18.020  16.250  14.899 -0.0851 -0.2193  0.2793
18303W        W31717  12.195   2.793   5.749  0.2195  0.0341 -0.2570
18304W        W31718   1.859   8.304   1.630  0.0929 -0.1006 -0.0242
18305W        W31719   2.452  13.602   4.498 -0.1435  0.1481  0.2953
18306W        W31720   6.948   4.349   4.027 -0.1609  0.2346  0.3690
18307W        W31721  11.542   6.124  12.003 -0.0189 -0.0669 -0.1042
18308W        W31722  17.432   1.693   5.790 -0.0690  0.0136  0.2154
18309W        W31723   2.111  14.137  16.019  0.1075 -0.1775  0.1015
18310W        W31724   2.278  15.355  13.466 -0.2127  0.3381 -0.0749
18311W        W31725   7.762  14.070   1.923 -0.2489  0.0383 -0.0827
18312W        W31726  13.149  10.622   5.580  0.0615 -0.0224  0.1102
18313W        W31727  17.942  15.387  15.698  0.4031  0.2014 -0.0259
18314W        W31728   4.908  15.649   4.571  0.0743  0.0346 -0.0932
18315W        W31729  15.085   7.125   3.800  0.1522 -0.1356 -0.1797
18316W        W31730   4.220  10.719   5.801  0.1776  0.1371 -0.0896
18317W        W31731   9.876  11.263   1.113 -0.2011 -0.2058 -0.4001
18318W        W31732  16.626  10.131   3.047 -0.2206 -0.0802  0.1794
18319W        W31733  14.219   3.147   3.713 -0.3538 -0.0781 -0.0889
18320W        W31734   4.456   6.666   4.448  0.0252 -0.1130  0.3277
18321W        W31735  16.361   9.054   1.194 -0.1722 -0.0265  0.1007
18322W        W31736   5.537   7.286   5.755  0.0082  0.0567  0.3395
18323W        W31737  10.204   2.983   5.621  0.1630 -0.1806 -0.0174
18324W        W31738   0.334  16.296   2.546 -0.0061 -0.0190 -0.0937
18325W        W31739   4.091  17.695  13.446 -0.1609 -0.1723 -0.1830
18326W        W31740  14.336  16.249  13.575 -0.0494 -0.1099  0.0523
18327W        W31741   8.879  15.699   0.636  0.4381  0.0297 -0.0284
18328W        W31742   7.712  17.342  10.753 -0.3947  0.2178 -0.3040
18329W        W31743  17.013  10.186  11.025 -0.0339 -0.2519 -0.0302
18330W        W31744   1.899   2.760   2.928  0.0726  0.2043 -0.0841
18331W        W31745  18.496  17.006  13.065 -0.2625  0.0072  0.0872
18332W        W31746   5.418   0.108  14.121  0.1788 -0.1095 -0.2273
18333W        W31747   0.331   1.956  13.293  0.0001  0.2302  0.0284
18334W        W31748   5.649   8.822   3.322  0.1619  0.2520 -0.2685
18335W        W31749   0.092   6.591   5.642  0.1690  0.1567  0.1886
18336W        W31750  10.976  11.518   1.787  0.0865 -0.1459 -0.0699
18337W        W31751  10.535   9.736   4.337  0.2507 -0.3172  0.2188
18338W        W31752   3.405   4.332  10.380 -0.2729  0.1833 -0.1478
18339W        W31753   5.989   1.577  10.821 -0.1870  0.0618 -0.2860
18340W        W31754  10.946  13.091   4.301  0.1826 -0.0056 -0.2815
18341W        W31755  12.355   9.467  13.824 -0.0520 -0.0336 -0.1782
18342W        W31756  13.265   7.016  10.469  0.1695  0.0216 -0.3281
18343W        W31757   6.885  13.194   2.747  0.0581  0.2018  0.1702
18344W        W31758  12.532  15.569  13.329 -0.0084  0.0228  0.0911
18345W        W31759  18.498   4.039   4.489  0.0279  0.0480 -0.0743
18346W        W31760  11.116   1.302   1.957  0.0123  0.1099 -0.3722
18347W        W31761   9.818  18.298  11.207 -0.0327  0.0558 -0.2044
18348W        W31762   9.464  14.027  15.838 -0.1423  0.3450  0.1557
18349W        W31763   4.497  10.143   0.656 -0.1368  0.1041 -0.0447
18350W        W31764  12.216  17.406   2.103  0.4011  0.1719 -0.1461
18351W        W31765  16.011   4.246   2.642 -0.0466  0.0974 -0.0418
18352W        W31766   8.248   1.708  16.153 -0.0151  0.0045  0.2590
18353W        W31767  14.077   5.327   0.826 -0.1584 -0.2230  0.1447
18354W        W31768   1.839   6.451  13.982 -0.1968  0.1259 -0.1246
18355W        W31769   3.849  15.471   2.685 -0.0482  0.1622 -0.0982
18356W        W31770   1.690   8.058  13.775 -0.0054 -0.2186  0.2387
18357W        W31771  13.126  16.768   5.589 -0.1164 -0.1075 -0.1506
18358W        W31772  11.601   4.511   4.274 -0.3103 -0.0232 -0.0744
18359W        W31773   4.239  18.148  12.729  0.1358  0.2446  0.0169
18360W        W31774  11.892   6.356  12.483 -0.2247 -0.0729  0.0838
18361W        W31775   6.354   3.746  13.903  0.1618  0.2328 -0.1474
18362W        W31776  17.869   9.637   1.932 -0.2224 -0.0672  0.0223
18363W        W31777  13.773   2.982   2.400  0.1408 -0.0245 -0.1930
18364W        W31778   8.054  11.517   0.719 -0.0568  0.0821  0.1506
18365W        W31779   8.853  12.510   9.901 -0.0588 -0.0049 -0.2576
18366W        W31780   4.486   1.191  13.134 -0.0663 -0.0456 -0.1450
18367W        W31781   0.529   3.185  12.825  0.0564 -0.3956 -0.2035
18368W        W31782  14.374   7.428  14.303  0.2786  0.2973  0.1717
18369W        W31783   6.070   6.203   2.889  0.1011  0.0766  0.2273
18370W        W31784  13.787   9.627   0.499 -0.0471 -0.0962  0.2649
18371W        W31785  16.961   8.191   4.835 -0.1026  0.1746  0.0554
18372W        W31786   0.327  11.760  13.557  0.1060  0.1362  0.2452
18373W        W31787   3.889   1.144  10.231 -0.0224  0.2237  0.1317
18374W        W31788  18.054  10.329  14.295  0.1217 -0.3500 -0.0172
18375W        W31789   3.226   2.585  14.363  0.1363  0.0821 -0.0830
18376W        W31790  10.054   2.830   1.089 -0.0272  0.0916 -0.0046
18377W        W31791  18.132   2.129  16.200 -0.1866 -0.2579  0.0994
18378W        W31792   8.568  16.424  13.143  0.2743 -0.1137 -0.0128
18379W        W31793   4.860   1.295   1.123  0.0150 -0.1473  0.1243
18380W        W31794   8.038   5.371  10.939  0.1094  0.2701 -0.0180
18381W        W31795   2.091  15.438  14.422 -0.0500 -0.0158 -0.2758
18382W        W31796  11.041   3.704  12.498 -0.3036  0.0847  0.0792
18383W        W31797   7.563   5.474   2.051  0.1303 -0.1788 -0.1541
18384W        W31798  15.731  18.430  14.414  0.0290 -0.3098 -0.0449
18385W        W31799   1.406   4.369   2.566 -0.0130  0.2446 -0.0086
18386W        W31800  13.987  14.828  16.086  0.0940 -0.0833 -0.2782
18387W        W31801   9.010   8.701  15.165 -0.0929  0.1099  0.3308
18388W        W31802   4.534   8.977  12.155 -0.0649  0.2430  0.3130
18389W        W31803  15.247   3.494  11.521  0.2156 -0.2114  0.0734
18390W        W31804  13.950  16.057  13.274 -0.0508  0.0392  0.3218
18391W        W31805  15.084   2.847  14.291 -0.1957 -0.0768  0.1482
18392W        W31806  10.292   8.026   5.516 -0.1568 -0.2536 -0.4969
18393W        W31807  17.562  16.133  13.958  0.0242  0.0159 -0.0005
18394W        W31808   3.677   0.080   2.812  0.0901 -0.1488  0.2644
18395W        W31809   8.092  16.008  10.260  0.3505 -0.2730 -0.1486
18396W        W31810   9.123  13.780  10.224 -0.4520  0.2473  0.1242
18397W        W31811  17.581  14.821   1.916 -0.2039  0.0325 -0.0178
18398W        W31812   6.697  17.004   4.311 -0.2492  0.1815  0.0009
18399W        W31813  13.136   1.111  15.443  0.1245 -0.3517 -0.1306
18400W        W31814  17.385  10.137  13.460  0.0286 -0.3670  0.0946
18401W        W31815  12.120   1.856  14.225  0.1478 -0.2520 -0.0752
18402W        W31816   0.578  11.875  15.760 -0.3462  0.1343  0.2115
18403W        W31817   7.587  10.780   2.512 -0.0660 -0.0931  0.2862
18404W        W31818   6.573   3.136   1.578 -0.1371  0.1493  0.0481
18405W        W31819   4.174   2.390  10.972  0.2446 -0.1499 -0.0280
18406W        W31820  17.851   5.097   4.087 -0.0641 -0.0539 -0.0775
18407W        W31821   8.775  17.026   4.923 -0.2548 -0.1634  0.2344
18408W        W31822   3.154  14.357   9.885  0.1654  0.2729 -0.2122
18409W        W31823  11.364   6.497   0.711 -0.3160 -0.1324  0.0120
18410W        W31824   6.482   2.632  12.732 -0.2040  0.1515  0.3164
18411W        W31825   8.955   3.787  13.138  0.1690 -0.0450  0.2138
18412W        W31826  15.870  12.069   3.487 -0.0865 -0.0573  0.1593
18413W        W31827  16.514  11.809  10.948 -0.2016 -0.0550  0.1652
18414W        W31828   6.155   3.238  13.097  0.0269 -0.0271 -0.0490
18415W        W31829  13.658  11.214   1.635 -0.0010 -0.0924  0.0020
18416W        W31830  16.140  11.294   4.734 -0.0092 -0.3075  0.0700
18417W        W31831  13.583  10.997  13.626 -0.1809  0.1837 -0.1892
18418W        W31832  16.113   4.949  13.648  0.1910  0.0347  0.1160
18419W        W31833   8.882  16.621   4.332  0.4435  0.0626  0.1856
18420W        W31834   6.199   5.399   0.520 -0.1505 -0.0999 -0.1349
18421W        W31835   3.966   5.821  13.189  0.1601  0.0610 -0.1816
18422W        W31836  10.284  14.689   3.224  0.0122 -0.0232 -0.2277
18423W        W31837   7.928  17.668   1.244  0.3372  0.1644  0.1299
18424W        W31838  18.328   3.959  11.096 -0.4272 -0.4137 -0.0125
18425W        W31839   9.249  10.190   0.078  0.0803 -0.3390 -0.1459
18426W        W31840  14.110   2.944   1.020  0.1887  0.2555  0.0905
18427W        W31841   5.263  15.709  10.241 -0.0978  0.0722 -0.4347
18428W        W31842  10.560   3.551   2.112 -0.2713  0.1289 -0.1951
18429W        W31843   0.373  13.226   4.301  0.2965  0.2351  0.1358
18430W        W31844  13.278   6.100   2.615  0.4186 -0.3273  0.2348
18431W        W31845  17.301  16.273   6.180  0.5093 -0.0156  0.1168
18432W        W31846  12.755   0.176  14.952  0.0532  0.1655  0.1494
18433W        W31847  13.789   8.212   1.886 -0.1391  0.2168  0.0648
18434W        W31848   1.936   6.969   1.877 -0.0651  0.2198 -0.3026
18435W        W31849   8.876  16.889  10.405 -0.2086 -0.3088 -0.1118
18436W        W31850  14.544  11.602   3.001  0.2161  0.1171 -0.2718
18437W        W31851   6.507  11.736  14.112 -0.1969  0.1471  0.0927
18438W        W31852  13.883  17.155   0.003  0.1199  0.1090  0.0308
18439W        W31853   7.918  11.294  12.140  0.0459  0.1915  0.1674
18440W        W31854   9.286  17.488  14.540  0.1534  0.1733 -0.1187
18441W        W31855   0.810  12.175  10.511 -0.3456 -0.1225  0.3979
18442W        W31856   7.265  17.207  11.527 -0.3987  0.2932 -0.0842
18443W        W31857  16.129  17.994  14.363 -0.0389  0.1274  0.0024
18444W        W31858  12.243  14.434  10.811 -0.3138 -0.1178 -0.1381
18445W        W31859   2.631   3.675  11.406  0.1576 -0.1394  0.1198
18446W        W31860   8.855   5.006  12.975  0.1958 -0.0076  0.0621
18447W        W31861   6.356   6.901   1.933  0.1232  0.4692  0.5206
18448W        W31862  10.666   8.828  12.980  0.0382  0.0512  0.0670
18449W        W31863  17.654   3.009  13.742 -0.3342 -0.0432 -0.4483
18450W        W31864  13.427  11.446  13.910 -0.1197 -0.2513 -0.0173
18451W        W31865   8.291  17.560   4.614  0.0792 -0.0911  0.2584
18452W        W31866  17.294  11.691  11.218  0.1556 -0.1654 -0.2000
18453W        W31867  15.875  11.076   4.352  0.1189 -0.0634  0.2507
18454W        W31868   1.218   3.644   3.097  0.0700  0.0536  0.1930
18455W        W31869   9.416   4.570   1.086 -0.3209  0.1256  0.3404
18456W        W31870   7.201   3.751  13.944  0.0006  0.1239  0.2351
18457W        W31871  16.745   3.060  14.633  0.2539  0.2883 -0.1307
18458W        W31872   3.982  13.798  16.090 -0.0136  0.1615  0.1967
18459W        W31873  17.481   3.710   9.872  0.1193  0.5402  0.1968
18460W        W31874   4.916  16.223   1.109  0.1225  0.1110  0.2853
18461W        W31875   3.348   2.468   5.074  0.0623  0.3034 -0.2536
18462W        W31876  14.305  17.712  15.020 -0.0709 -0.1895  0.2604
18463W        W31877   3.012   3.688  14.068  0.0054 -0.0695 -0.0941
18464W        W31878   6.816   4.921   1.685 -0.0724  0.0832  0.3089
18465W        W31879  13.076   9.259   2.532  0.1225 -0.1062  0.0060
18466W        W31880   6.730   1.562   4.224  0.0858  0.1315  0.1004
18467W        W31881   7.565   4.317  14.693  0.2043 -0.3343  0.4804
18468W        W31882   6.117  14.186  15.192  0.0194 -0.0436 -0.3589
18469W        W31883   2.306  17.980  11.287 -0.3279 -0.0286 -0.0031
18470W        W31884   7.658   2.177  14.412  0.2248  0.0897  0.0292
18471W        W31885  14.769   9.943   3.982  0.2486 -0.2055 -0.0930
18472W        W31886  14.146   3.544   3.241 -0.1741 -0.1555  0.1707
18473W        W31887   8.367   9.713  16.227  0.1002 -0.0670 -0.3723
18474W        W31888   0.329   4.935  13.917 -0.3283  0.0955  0.1531
18475W        W31889   1.470   3.913  13.592  0.0992  0.0318  0.0981
18476W        W31890   6.379   7.618   5.127 -0.1298 -0.0781 -0.1772
18477W        W31891  11.170  17.224   3.014 -0.0669 -0.2372  0.1809
18478W        W31892  12.718   0.796  13.536 -0.1337  0.3220 -0.1971
18479W        W31893   7.334   4.896   3.375 -0.1744  0.3894  0.0414
18480W        W31894   0.436  14.967   3.205  0.2012 -0.1436 -0.0536
18481W        W31895  14.085   2.732   0.004 -0.0086 -0.0838 -0.2172
18482W        W31896  10.468   2.932  15.944  0.0754  0.0815  0.2249
18483W        W31897  12.546   7.859  15.881 -0.3959  0.1139  0.0496
18484W        W31898   5.945   5.554  13.526 -0.0105 -0.1001  0.2377
18485W        W31899  15.461   2.066   3.412  0.2047 -0.2148 -0.0290
18486W        W31900  15.715  14.109  15.573 -0.0632 -0.2667  0.0134
18487W        W31901  11.349  16.412  11.374 -0.1379  0.2133 -0.1030
18488W        W31902   7.074   0.221  10.018  0.3295  0.1110  0.2033
18489W        W31903  10.808   8.599  12.451  0.2284  0.1776  0.2029
18490W        W31904  13.191   1.498  15.852 -0.0570 -0.3295  0.2293
18491W        W31905   2.918  15.095  15.689 -0.1340  0.1589  0.2883
18492W        W31906  13.462   1.090   1.765  0.0478 -0.2100  0.1047
18493W        W31907   2.055  12.042  13.259 -0.0196  0.0853  0.1379
18494W        W31908  11.065   7.819  11.433  0.3715  0.1253 -0.0531
18495W        W31909   7.358   8.965   3.883 -0.4358  0.1629 -0.4328
18496W        W31910   6.153  16.533  10.637 -0.1516  0.3747 -0.2355
18497W        W31911  15.189  13.001   2.598 -0.0351 -0.3085 -0.3018
18498W        W31912  18.048   7.468  13.716 -0.1868  0.0561  0.3199
18499W        W31913   4.420  12.909  10.976 -0.2418  0.0075 -0.2839
18500W        W31914  13.453   5.461   1.446 -0.1573 -0.0138 -0.0860
18501W        W31915   1.506   7.641  11.458 -0.1775 -0.2120 -0.2313
18502W        W31916   0.349  17.583   2.429 -0.1986  0.1458  0.0723
18503W        W31917   3.522   9.241  13.606  0.0204  0.2835 -0.1108
18504W        W31918   4.559   1.705   2.935  0.0755 -0.1741  0.0479
18505W        W31919  11.253  15.543  15.229 -0.0142  0.3096  0.2170
18506W        W31920   2.832  12.287   1.686 -0.0014  0.1604 -0.0243
18507W        W31921  14.521  14.952   1.227  0.0355  0.1764  0.2789
18508W        W31922  15.192   4.608   2.571 -0.5378  0.1022 -0.1076
18509W        W31923   2.072   6.884  12.348  0.3109 -0.0683  0.2953
18510W        W31924  15.604  12.216  14.207 -0.0667  0.0350 -0.1117
18511W        W31925   7.580  15.588  13.471  0.1121 -0.2293  0.0626
18512W        W31926   3.731   0.312  14.733 -0.1109  0.0203 -0.1777
18513W        W31927   1.702   5.336  15.665  0.0541 -0.0506 -0.2850
18514W        W31928  16.184  14.585   0.093 -0.0777 -0.0913  0.0256
18515W        W31929   5.737   5.019  14.628 -0.0260  0.2164  0.0530
18516W        W31930  13.262  15.553   2.790  0.1008  0.1208  0.0818
18517W        W31931  15.555  14.319  11.702 -0.1465  0.2501 -0.0947
18518W        W31932   7.652  11.505  11.586  0.2654  0.3801 -0.0067
18519W        W31933   6.670  13.386  14.471  0.0203 -0.1450  0.0868
18520W        W31934   1.400   1.195  14.659 -0.3281  0.1498  0.0649
18521W        W31935   6.501   2.548   4.690 -0.2022  0.0771  0.2748
18522W        W31936   1.297  16.014   3.224  0.0789  0.2456  0.0851
18523W        W31937   0.941  15.642  14.625  0.0032  0.0970 -0.1449
18524W        W31938  12.053   4.361   4.087  0.1340  0.3096 -0.0393
18525W        W31939  14.096   0.452  15.515 -0.0616  0.1031  0.0314
18526W        W31940  11.389  13.204  10.452  0.1927 -0.1484  0.2192
18527W        W31941  12.978  17.403   0.229  0.5397  0.1912  0.3069
18528W        W31942   4.786   2.628   3.064  0.0506  0.2677  0.1118
18529W        W31943   8.932  10.045  12.734  0.0224  0.4406 -0.0404
18530W        W31944   4.221  16.063  10.442 -0.2398 -0.2571 -0.1437
18531W        W31945   3.570   3.179   1.581 -0.0368 -0.3631  0.0046
18532W        W31946   7.696  15.308   2.422  0.0594  0.0172 -0.1562
18533W        W31947   0.450  18.100  12.449 -0.3321  0.1547  0.1082
18534W        W31948   6.398   5.025  15.093  0.0335 -0.0555  0.0986
18535W        W31949  16.361  14.109   5.396  0.0432  0.1650  0.1688
18536W        W31950   3.697  10.130   0.270  0.3206  0.0913 -0.0039
18537W        W31951  14.848  11.135  13.582  0.0804  0.1819  0.0036
18538W        W31952  14.794   1.310   4.918 -0.0050  0.0840 -0.0140
18539W        W31953  13.144   7.245  10.888  0.0109  0.1826  0.2513
18540W        W31954  12.548   0.249   5.991 -0.0064  0.0998 -0.0142
18541W        W31955  10.742   8.964   2.980  0.1163 -0.0535  0.0597
18542W        W31956  13.113  11.052  12.672  0.0974 -0.0964  0.1837
18543W        W31957  13.133   5.956  15.555 -0.2743 -0.0614 -0.2804
18544W        W31958  16.049   0.829  11.343 -0.3691 -0.0345  0.0384
18545W        W31959  10.459  17.443   4.500  0.1882  0.0418  0.1253
18546W        W31960   2.809  18.252   3.041 -0.1759 -0.0084 -0.1662
18547W        W31961   0.700  11.598   5.815  0.2681  0.0410 -0.1673
18548W        W31962   7.244   4.524   4.618 -0.1472  0.0575  0.1000
18549W        W31963   9.167  12.323  13.685  0.3748  0.0669 -0.2058
18550W        W31964   4.816   8.807  11.312 -0.0370 -0.2012 -0.0501
18551W        W31965  10.157  11.680   4.816  0.0814 -0.5697 -0.0305
18552W        W31966   4.772   3.366  14.300 -0.1498  0.2100 -0.0642
18553W        W31967  15.280  18.227   2.200  0.0359 -0.3485 -0.0454
18554W        W31968   2.332   7.143  15.437 -0.2493  0.1851 -0.1943
18555W        W31969  16.786   4.616  11.915 -0.0712 -0.5122 -0.0899
18556W        W31970  10.784   1.266  10.203 -0.0038  0.3478 -0.2995
18557W        W31971   9.164  12.648   3.867 -0.1276 -0.3194  0.0984
18558W        W31972   1.186  16.131  13.098  0.0444  0.1539 -0.0103
18559W        W31973   4.732   0.051   1.496  0.6582 -0.0650  0.2400
18560W        W31974   6.635  11.863  14.907 -0.1409 -0.2730  0.0464
18561W        W31975  14.054   6.787   1.770  0.2784 -0.1469  0.0839
18562W        W31976   6.080   4.132   3.543  0.2389 -0.0712 -0.0661
18563W        W31977  15.828   8.613  15.111  0.2383 -0.2143 -0.0248
18564W        W31978   9.754   7.319  12.022  0.1646  0.1924  0.1650
18565W        W31979  13.643   9.196  14.904  0.3306  0.1217  0.2784
18566W        W31980  12.539   5.941   5.307  0.0986 -0.0372  0.4571
18567W        W31981   1.015   1.060   0.962 -0.0426  0.2791  0.2635
18568W        W31982  11.723   6.985   1.556 -0.0796 -0.1956 -0.1715
18569W        W31983  13.994  13.326   1.378 -0.2856 -0.1091  0.1420
18570W        W31984   7.775   3.585   1.306 -0.1728 -0.0312  0.0236
18571W        W31985   5.184   8.899  15.768 -0.1374  0.0757 -0.4479
18572W        W31986   1.643   8.847  15.064  0.1404 -0.2322 -0.1751
18573W        W31987  12.536   1.837   0.986  0.1516 -0.0528 -0.2467
18574W        W31988   2.089   4.511   2.169 -0.1605 -0.0563 -0.1335
18575W        W31989  10.661  13.284   5.705  0.2494  0.1556  0.1396
18576W        W31990  13.954   8.929   1.221  0.0550  0.0051 -0.1842
18577W        W31991   3.827  12.693   3.514  0.2954 -0.1804 -0.0790
18578W        W31992   5.623  15.597   2.712 -0.0967  0.2358  0.4113
18579W        W31993  15.363  17.535  13.846  0.1008 -0.0941  0.0734
18580W        W31994   6.125   0.533   5.607 -0.2397  0.1342 -0.0165
18581W        W31995   2.025  12.013   3.066  0.0218 -0.1416  0.0011
18582W        W31996   6.319   6.448  12.094  0.0221 -0.1109  0.2075
18583W        W31997   3.606  13.526  10.165 -0.2817 -0.0247  0.1502
18584W        W31998   8.912  14.583   3.351  0.1787  0.4153 -0.0133
18585W        W31999  10.796   9.517  15.604  0.2498  0.3396  0.2097
18586W        W32000  13.436  13.624   1.967 -0.0285  0.0595 -0.0456
18587W        W32001  16.195  17.087  10.889  0.3651  0.1399 -0.1182
18588W        W32002  10.447   3.799   2.562 -0.0404 -0.1068 -0.0538
18589W        W32003  16.905  17.531   1.280 -0.0259  0.0628 -0.1774
18590W        W32004   1.832   4.659   0.670  0.4978 -0.1935 -0.1773
18591W        W32005   2.897   8.441   2.571  0.1633 -0.0959  0.0159
18592W        W32006   6.086   3.671   2.319  0.4066  0.0164 -0.0954
18593W        W32007   0.172   6.165  14.568  0.4920 -0.1295  0.2210
18594W        W32008   6.657  17.748   4.467  0.0800 -0.1640  0.3022
18595W        W32009  12.625  18.238   5.153  0.3751  0.1082  0.1864
18596W        W32010  11.226  13.006  15.179 -0.1519 -0.0969 -0.4064
18597W        W32011   1.567  10.811  15.848 -0.0964 -0.3009  0.0655
18598W        W32012   3.315   3.484  13.757 -0.0627  0.0089  0.1264
18599W        W32013  15.501   6.349   5.822  0.2047 -0.3686 -0.0064
18600W        W32014  15.775  13.439  14.304  0.0098 -0.0341  0.1407
18601W        W32015  17.061   5.379   3.743  0.1217 -0.0526  0.2439
18602W        W32016   9.149   3.143   5.317 -0.2557  0.2177 -0.2863
18603W        W32017   4.445  12.382  15.170 -0.1117  0.0656 -0.1434
18604W        W32018   4.365  15.588   2.737  0.3764  0.2030  0.2562
18605W        W32019   8.026   9.390  15.937 -0.0927  0.1377  0.0862
18606W        W32020   5.008   8.404   4.941 -0.2394  0.0703 -0.1673
18607W        W32021  15.469  17.660   3.256  0.1773  0.1958 -0.0775
18608W        W32022   0.488  16.761  13.483  0.1966 -0.1425 -0.1289
18609W        W32023  16.235  12.273   3.202  0.0917 -0.0756 -0.0791
18610W        W32024  10.012   7.628   5.459 -0.1776  0.2275 -0.2006
18611W        W32025  11.124  13.662  10.439 -0.0022  0.0784 -0.1510
18612W        W32026  11.610   9.309   3.060 -0.0435  0.0826  0.2135
18613W        W32027   3.782  18.238  15.548 -0.1760  0.0091 -0.0020
18614W        W32028   9.208   3.439  12.757 -0.0014  0.1989  0.1379
18615W        W32029  12.658  13.589   3.964  0.2585 -0.1255 -0.2273
18616W        W32030  12.588   6.496   1.545 -0.0012  0.0856  0.0614
18617W        W32031   9.346   1.128   0.247 -0.1859 -0.0226  0.2021
18618W        W32032   4.996  14.799   1.901 -0.2441 -0.1842  0.0473
18619W        W32033  12.511  14.030  10.759 -0.2635  0.1313  0.1562
18620W        W32034   2.613   8.896  11.134  0.2683  0.2723 -0.2735
18621W        W32035   6.847  11.400  12.039  0.2344 -0.0556  0.1437
18622W        W32036   9.595   2.796   0.172 -0.1687 -0.1141  0.2458
18623W        W32037   3.296  13.346   2.685 -0.1536  0.0261  0.1594
18624W        W32038   8.073  14.518  11.395  0.1272  0.2180 -0.0427
18625W        W32039   1.008  10.621   1.625  0.0377  0.0686  0.0921
18626W        W32040  15.093   6.150   2.183  0.0887 -0.0161  0.0001
18627W        W32041  14.755  14.421  13.515  0.0974 -0.3115  0.0768
18628W        W32042   6.231  12.451   3.643 -0.1309 -0.2878 -0.4574
18629W        W32043  15.794   0.782   1.585  0.1080  0.1755  0.0939
18630W        W32044   3.524   1.006   2.353 -0.0753 -0.2612 -0.0086
18631W        W32045   8.297   2.207   2.738  0.1287  0.0547 -0.2340
18632W        W32046  10.232   3.244  11.335  0.1078  0.1551 -0.0128
18633W        W32047   9.987   0.029   1.081 -0.0301  0.1024 -0.1585
18634W        W32048   7.355   8.068  11.157 -0.0381 -0.0437  0.2151
18635W        W32049  14.044  11.550  11.175 -0.0469  0.2289  0.0911
18636W        W32050  12.335  17.393  15.068  0.1734 -0.0945  0.0731
18637W        W32051   1.456  12.544   4.348 -0.4293  0.0663 -0.1797
18638W        W32052   5.929  12.165   2.642  0.1615  0.4087  0.0819
18639W        W32053  18.192   9.055  14.341  0.0025 -0.2731 -0.1905
18640W        W32054   1.035   2.563   0.731 -0.0556  0.1035  0.3681
18641W        W32055  10.616   0.767   1.252  0.0071  0.0991 -0.2183
18642W        W32056   8.176  16.312  14.319  0.2131  0.2415  0.0220
18643W        W32057  13.286   9.369  14.128  0.0295  0.1858  0.0500
18644W        W32058  13.991   8.063   3.962 -0.2196 -0.0204 -0.0845
18645W        W32059   6.738  17.352   0.267  0.2640  0.3147 -0.1765
18646W        W32060   0.192  15.859   0.039 -0.0785  0.1411 -0.1224
18647W        W32061   6.085  13.006   2.763  0.0273 -0.5463 -0.0947
18648W        W32062  17.744  18.293  15.266  0.0436  0.1974  0.0203
18649W        W32063   0.210  13.751   4.159 -0.2286 -0.0620  0.1505
18650W        W32064   1.968   9.669  13.938 -0.1062  0.0287 -0.2048
18651W        W32065  12.955   8.260   5.586  0.3274  0.3049 -0.1235
18652W        W32066   1.427   4.983  13.480  0.0747  0.1423  0.1598
18653W        W32067  11.715   8.052   4.460 -0.1690 -0.1310  0.0002
18654W        W32068   5.487  13.197  15.691  0.1320  0.6562  0.1857
18655W        W32069   2.365  11.919  11.378 -0.1718 -0.2094  0.1288
18656W        W32070   4.620  15.936  14.534  0.4614 -0.0728  0.2137
18657W        W32071  16.976  16.639   2.573 -0.0886  0.1955 -0.1564
18658W        W32072  17.388   5.202   4.064  0.0952 -0.1097 -0.3734
18659W        W32073   4.036   7.459   5.547 -0.0357 -0.0894  0.0835
18660W        W32074  14.263   3.960   4.684  0.0719  0.0271  0.0666
18661W        W32075   4.333   3.319  13.954 -0.0186 -0.4442  0.1022
18662W        W32076  15.231  15.309   2.596 -0.0388  0.2552 -0.0911
18663W        W32077   7.849  16.307  16.143  0.0700 -0.3831 -0.2354
18664W        W32078  17.499   8.070  13.989  0.3413 -0.3241 -0.0071
18665W        W32079  13.224  16.878  15.035  0.0984  0.2815  0.0898
18666W        W32080  10.304   6.502  10.748 -0.1610 -0.0396  0.2759
18667W        W32081  18.059  12.277  15.295  0.3335 -0.0949  0.1267
18668W        W32082   8.892  15.714  11.506  0.0591  0.0056  0.0124
18669W        W32083  18.477  13.736  15.454  0.1841  0.2196 -0.0431
18670W        W32084  17.987   0.525  10.834  0.3209  0.3037 -0.1376
18671W        W32085   9.487  11.997  13.831 -0.4530 -0.2497 -0.0772
18672W        W32086  10.865   7.167  14.601 -0.0704  0.1025 -0.3361
18673W        W32087  11.221   7.373   6.126 -0.0304  0.0774  0.0669
18674W        W32088   0.986  17.527   1.659 -0.2476 -0.0508 -0.2930
18675W        W32089   2.514  16.565   3.292 -0.0970  0.1064 -0.2293
18676W        W32090   2.048  11.005  13.107 -0.0200  0.0164 -0.1372
18677W        W32091   1.809   3.350   4.485 -0.0098 -0.0733 -0.1354
18678W        W32092   4.652  18.467   5.822 -0.0973  0.1843  0.1697
18679W        W32093   0.661   5.744  11.549  0.2041 -0.1013 -0.2062
18680W        W32094   6.698  15.554   1.847  0.2919 -0.2695 -0.0095
18681W        W32095  12.730   8.292  16.005 -0.1299 -0.0092  0.2226
18682W        W32096  16.793  16.855  11.625  0.1034 -0.0370  0.1392
18683W        W32097   2.036  14.015   5.394  0.0287  0.0767  0.0059
18684W        W32098   6.627   7.152  10.835 -0.0868  0.1217 -0.0419
18685W        W32099   8.489  12.156   5.380  0.0125 -0.1928  0.0468
18686W        W32100  17.045  13.982  15.944  0.2149 -0.0875  0.1725
18687W        W32101  14.700   4.887   0.956 -0.4264  0.0593  0.1808
18688W        W32102  13.100  14.650  15.567 -0.0116  0.1641 -0.1255
18689W        W32103  17.713   5.707   2.581  0.1825  0.2137 -0.3588
18690W        W32104   3.044   7.437   5.546 -0.0046  0.0029 -0.1576
18691W        W32105   7.289   2.811  14.372  0.4872  0.1439 -0.0630
18692W        W32106   8.073   5.464   1.682  0.0595 -0.2136  0.1541
18693W        W32107   2.318   0.239   3.760  0.1654 -0.1592  0.1220
18694W        W32108  17.544  13.924  11.525  0.2121 -0.2479 -0.1796
18695W        W32109   0.657  16.333   0.315 -0.0788 -0.0610  0.2188
18696W        W32110   2.499  16.945   6.469 -0.1340  0.0389 -0.2553
18697W        W32111   5.805  17.102  15.084  0.0943  0.0076  0.1950
18698W        W32112   6.914   6.927   3.444 -0.3954  0.2324 -0.0700
18699W        W32113   2.401   2.174   5.473 -0.2156 -0.1550  0.2950
18700W        W32114   8.994  15.213   2.642 -0.1354 -0.0565 -0.0780
18701W        W32115  10.033  15.956  15.650  0.1290  0.0009 -0.1221
18702W        W32116   0.397  17.334  11.319 -0.1492  0.0294 -0.2330
18703W        W32117  15.991  10.146   4.558  0.0589 -0.1884 -0.0113
18704W        W32118  17.434  17.053  12.678  0.1273  0.0068 -0.0053
18705W        W32119  17.115   6.110  11.701  0.3014 -0.4908 -0.1217
18706W        W32120  13.855   6.724   0.508 -0.3306  0.1938  0.1321
18707W        W32121   4.433  16.135   2.616  0.0175 -0.0365  0.1535
18708W        W32122  15.803   7.753   0.487 -0.0448 -0.0219  0.2764
18709W        W32123   4.397  15.484   1.361 -0.1141 -0.2120  0.2485
18710W        W32124   4.682  14.496   3.510 -0.0385  0.1012  0.0985
18711W        W32125  11.980   2.784  12.807  0.1405 -0.1248 -0.1263
18712W        W32126  10.095  17.954  13.859  0.0926 -0.2240 -0.1830
18713W        W32127  10.945  18.022  15.340 -0.2671 -0.2642 -0.2703
18714W        W32128  14.860  14.688  11.725 -0.0700 -0.3292  0.0054
18715W        W32129   0.444   6.452   2.850  0.0788  0.1928  0.0114
18716W        W32130   9.065   5.978  11.415  0.1239 -0.0097 -0.1209
18717W        W32131  16.965  11.247   1.480  0.4080 -0.1680  0.0249
18718W        W32132   1.817  12.011  16.247 -0.1102 -0.2971  0.1322
18719W        W32133   7.845   8.815   1.041  0.2002  0.0462 -0.2281
18720W        W32134   6.288   0.360  10.808  0.0335  0.1607 -0.0507
18721W        W32135  12.323  15.375   2.478  0.0245 -0.0997 -0.1616
18722W        W32136   4.642   8.285   4.240  0.0448 -0.0330  0.1851
18723W        W32137  13.829   9.674  15.147 -0.0080  0.1186  0.1729
18724W        W32138   4.546  17.334   5.001  0.0597  0.0751  0.0918
18725W        W32139   6.792  12.763   1.476  0.0566  0.0576 -0.2472
18726W        W32140  17.514  11.866   1.681 -0.2189  0.1057  0.0307
18727W        W32141  17.927   2.616  14.542  0.1158  0.2884 -0.2203
18728W        W32142   8.341  13.270  15.118 -0.1542 -0.2801  0.0381
18729W        W32143   3.755  18.202  11.310  0.1198 -0.0760 -0.1639
18730W        W32144  15.746  14.553  13.160  0.1286  0.2206  0.1383
18731W        W32145   9.201  12.699   2.458 -0.0815  0.2798 -0.0998
18732W        W32146  18.148   2.214  13.170  0.1130 -0.0793 -0.0420
18733W        W32147   7.263  17.603   0.884 -0.1469 -0.3104 -0.2070
18734W        W32148  17.473   3.666   5.346  0.0438  0.0509  0.1659
18735W        W32149  12.236   3.535   5.647  0.2473  0.3490 -0.1999
18736W        W32150  16.978   4.097   0.715  0.1279  0.4172 -0.0692
18737W        W32151  18.459  10.658  10.642  0.0101  0.3013 -0.0328
18738W        W32152  14.631  13.692   2.282  0.0072 -0.1839 -0.2096
18739W        W32153   5.568   1.187  11.526  0.0298  0.0794 -0.0280
18740W        W32154   5.344   9.369   2.063  0.0844  0.0439  0.0419
18741W        W32155   0.091   5.108  13.470  0.2498  0.1277 -0.0527
18742W        W32156   4.493  15.480  15.616 -0.1157  0.0678 -0.1213
18743W        W32157  10.450   4.310   6.600 -0.2166 -0.2071  0.0120
18744W        W32158  14.949  15.930  13.239 -0.0199  0.2328 -0.3091
18745W        W32159   4.112  14.843  11.776 -0.1419 -0.0018 -0.0528
18746W        W32160   6.286  15.091  10.304  0.2285 -0.0976  0.0653
18747W        W32161  14.371   1.278   0.013 -0.5176  0.0524  0.0841
18748W        W32162  15.622   5.249  12.741  0.0023 -0.1222 -0.2232
18749W        W32163  10.850   8.209   4.435  0.3569 -0.1110 -0.0431
18750W        W32164   9.712  11.183   2.061 -0.2441  0.2634  0.0778
18751W        W32165   6.724   8.633   3.503 -0.2171 -0.0935 -0.0179
18752W        W32166  17.823   9.288  11.774  0.3670 -0.1911 -0.0233
18753W        W32167  12.659   2.113   3.108  0.0607  0.0563 -0.2591
18754W        W32168  18.356  16.537  14.190 -0.2969  0.0287  0.1331
18755W        W32169  13.369   6.693  14.183 -0.5012 -0.2319  0.0051
18756W        W32170  13.274  13.698  15.477 -0.1739  0.0840  0.2247
18757W        W32171   1.270   4.559   2.054 -0.5827 -0.2724  0.3954
18758W        W32172  13.289  12.317   2.250  0.0185 -0.1798  0.4054
18759W        W32173   3.612  10.560   5.088 -0.1539  0.1145 -0.0394
18760W        W32174  11.417   1.872  12.921  0.1359  0.0117 -0.0291
18761W        W32175   9.958   4.783   4.363  0.2222  0.1657 -0.1916
18762W        W32176  12.033   6.145  14.229  0.0137 -0.1292  0.0115
18763W        W32177   1.208   4.589   3.387 -0.1599 -0.1182  0.0907
18764W        W32178   3.546   7.770  12.488  0.0361 -0.3299 -0.2069
18765W        W32179  15.440  16.653  14.325 -0.1270 -0.3993 -0.0658
18766W        W32180   9.000   5.436  15.186  0.0146 -0.2301 -0.3529
18767W        W32181   9.559   7.206  10.514 -0.0631  0.2729 -0.0239
18768W        W32182   4.644  17.856   1.378  0.0784 -0.0112  0.3838
18769W        W32183   4.922  12.479  11.312  0.3193  0.1577  0.3384
18770W        W32184   9.469   8.264  15.162  0.2953  0.0438  0.1912
18771W        W32185  16.687  12.135   0.695  0.0705 -0.1670 -0.1307
18772W        W32186  15.675  16.880  11.083  0.1035  0.2832  0.2745
18773W        W32187   1.985  15.078  11.998  0.1517  0.2344 -0.0388
18774W        W32188  11.286  10.482  12.185 -0.3034  0.1807  0.1023
18775W        W32189  10.481  12.933   5.295  0.1037  0.2783 -0.2202
18776W        W32190  17.361   0.325  11.601  0.0750  0.1719  0.0842
18777W        W32191   8.952   4.487   4.114 -0.2462 -0.2585 -0.0511
18778W        W32192  15.108  15.759  16.170 -0.1564  0.2474 -0.0018
18779W        W32193   3.954   9.155  13.328 -0.1058 -0.0741  0.2276
18780W        W32194   1.215   2.822  11.626 -0.1775 -0.2715 -0.1695
18781W        W32195   9.304  17.615  13.526 -0.3687 -0.0201  0.0599
18782W        W32196   8.978   1.189   5.665  0.5537 -0.0957  0.0775
18783W        W32197   2.089   5.232  13.643 -0.1639  0.0153  0.1966
18784W        W32198  14.305   7.028   0.475  0.0898  0.0018 -0.2110
18785W        W32199  18.296   3.294   3.845  0.2195  0.2932  0.2319
18786W        W32200  16.220   6.043  11.663  0.0204 -0.0096 -0.2364
18787W        W32201  11.480   5.507  14.983 -0.1031 -0.1699 -0.2643
18788W        W32202   7.481  11.877   4.218 -0.0378 -0.1479  0.0593
18789W        W32203  10.222   4.511   2.965 -0.2409  0.0126 -0.1842
18790W        W32204   5.165   1.533  11.275  0.2272 -0.0970 -0.0645
18791W        W32205   9.904   8.222   4.684 -0.1680  0.1549  0.1036
18792W        W32206   2.524  18.206   4.565  0.0479 -0.1150 -0.2645
18793W        W32207  17.409  14.505   1.376  0.1236  0.1658  0.3032
18794W        W32208   0.933  15.116  14.342  0.1880  0.1865 -0.0380
18795W        W32209   7.199   2.181  15.993  0.2883 -0.2136 -0.1452
18796W        W32210  18.370  10.312   1.870  0.0240 -0.0317 -0.1928
18797W        W32211  17.501  17.766  11.855  0.2755 -0.1375 -0.1107
18798W        W32212  13.743  12.695   4.260 -0.0214 -0.0999  0.1134
18799W        W32213   0.188  15.052  10.955  0.4448  0.1724  0.2778
18800W        W32214  12.298  17.883  10.310  0.0833 -0.0991  0.0750
18801W        W32215   7.250   5.031   4.853 -0.1365 -0.2076 -0.1068
18802W        W32216   4.016   8.235   1.954 -0.1377  0.2304  0.4607
18803W        W32217   5.914   2.450   2.855  0.1702  0.3521  0.0160
18804W        W32218  16.017  13.494   4.016 -0.0109 -0.0141  0.2436
18805W        W32219  13.919  13.937  12.436  0.1685  0.1635  0.1718
18806W        W32220   6.379   0.917   1.673 -0.4451  0.2489  0.2067
18807W        W32221  15.455  17.471   6.037 -0.2700 -0.3192  0.2255
18808W        W32222   8.157  14.553   2.626  0.2987 -0.1384 -0.0599
18809W        W32223   7.680  15.999  13.162 -0.0068  0.0226  0.1919
18810W        W32224   6.149  16.428   1.277  0.2691 -0.2711 -0.1549
18811W        W32225   7.379  17.432  14.251  0.2363 -0.1425  0.1142
18812W        W32226  18.029  10.475  13.819  0.0804 -0.1788 -0.0893
18813W        W32227   7.598  18.243   0.022 -0.0353  0.1344 -0.3254
18814W        W32228  12.831  10.426  12.363 -0.2321  0.2366  0.0904
18815W        W32229   8.572  10.456   3.241 -0.0723 -0.1145  0.1147
18816W        W32230   6.262   2.631   9.559  0.1410  0.1549  0.0698
18817W        W32231  18.146  15.443   4.913 -0.3860 -0.0537  0.1793
18818W        W32232   2.600   7.295   0.639 -0.0714  0.0551 -0.0167
18819W        W32233   3.990  13.347  10.618 -0.2729 -0.1620 -0.1898
18820W        W32234   0.358   0.706  10.804  0.0234 -0.0078 -0.0059
18821W        W32235  13.263   6.971  13.338 -0.3671  0.2307  0.1504
18822W        W32236  17.389   9.348  13.132 -0.1174 -0.0488  0.3196
18823W        W32237  16.491   7.291  15.813 -0.1303  0.0835  0.1132
18824W        W32238  13.254   5.026   5.542 -0.3291  0.0835 -0.0432
18825W        W32239   9.680   7.527   3.759 -0.0789  0.1724 -0.0963
18826W        W32240   7.304   6.971   2.891 -0.1623 -0.1490 -0.0908
18827W        W32241   0.873   8.604  10.782 -0.2501 -0.1363 -0.0089
18828W        W32242  12.234  13.053   5.439  0.0820 -0.1544  0.4012
18829W        W32243   7.981  11.779   3.911 -0.0477  0.0157  0.0069
18830W        W32244   4.267   1.693  11.781  0.3410 -0.0648  0.1220
18831W        W32245   9.015  12.183  10.544  0.0873 -0.0184 -0.0686
18832W        W32246   7.252   0.270  15.524  0.0889  0.0876 -0.4146
18833W        W32247  11.775   5.022   0.174 -0.2488 -0.1308  0.0140
18834W        W32248   1.287  10.765  15.418  0.0016  0.0960  0.1825
18835W        W32249   7.296   3.719   0.797 -0.1287  0.2472  0.1911
18836W        W32250  12.115  11.627   2.483 -0.0698 -0.2172 -0.1946
18837W        W32251  16.556   2.128   0.939 -0.2145  0.0142  0.1753
18838W        W32252   3.160  17.644  11.740  0.3097 -0.3271  0.3291
18839W        W32253  17.143  14.039  10.822 -0.0393  0.0354  0.1342
18840W        W32254   8.744  12.619   1.310 -0.0083 -0.4620 -0.2410
18841W        W32255   6.809   9.513  10.868 -0.0284 -0.0976  0.2119
18842W        W32256  12.619  11.861  13.800 -0.1250 -0.1778 -0.2259
18843W        W32257   3.439   3.911  11.752  0.0909 -0.3669 -0.1462
18844W        W32258   2.137   7.277   0.117 -0.0238 -0.0987  0.3127
18845W        W32259   2.309  14.324  11.045 -0.0246 -0.4113 -0.0632
18846W        W32260   2.620  18.202  12.204  0.1647  0.2263  0.0800
18847W        W32261   5.625   3.035  12.922 -0.3165  0.0437  0.3042
18848W        W32262  16.899   9.985   3.534 -0.0364 -0.1036  0.0021
18849W        W32263  18.236  12.263  11.289 -0.1379 -0.2307  0.1000
18850W        W32264  11.216  10.795  11.753  0.1131 -0.1317 -0.2303
18851W        W32265   3.514   5.485   3.973  0.1845  0.1845  0.2945
18852W        W32266  18.322   8.127   1.180 -0.2613  0.0816 -0.2789
18853W        W32267  17.721   3.790  11.037 -0.1789 -0.0649 -0.3899
18854W        W32268  14.292   7.427   0.215 -0.1919  0.2825  0.2921
18855W        W32269   6.299  11.390  16.126  0.2674  0.0117  0.1891
18856W        W32270   4.823   1.294  10.172  0.0102  0.0060 -0.0923
18857W        W32271  15.529   7.889  15.384  0.1529  0.4086 -0.0426
18858W        W32272   4.215  17.858  16.256  0.1748  0.0564 -0.0116
18859W        W32273  17.818  17.682  16.028  0.0377 -0.3162 -0.1260
18860W        W32274  17.007  14.523  10.881  0.0021 -0.0468 -0.0321
18861W        W32275  16.874  16.371   3.865 -0.0719  0.0425  0.0840
18862W        W32276  13.959   1.507  13.820  0.2102  0.3358  0.0363
18863W        W32277  15.367   2.724   5.912  0.2205 -0.1562  0.0060
18864W        W32278   1.358   9.042   2.732  0.4824 -0.0587  0.0618
18865W        W32279   9.953  14.305  12.569 -0.0427  0.1253  0.1329
18866W        W32280   9.920  15.759  16.102  0.0736  0.1941 -0.1569
18867W        W32281   4.400   8.404  12.198 -0.2927  0.0605  0.1277
18868W        W32282  15.414   4.955  14.211  0.1970  0.0048 -0.0803
18869W        W32283  16.180   1.580  13.522 -0.1789  0.1151 -0.2144
18870W        W32284  12.445  15.255   1.613  0.1425  0.1525  0.2115
18871W        W32285   2.588   8.727   2.797 -0.0859  0.3872  0.0312
18872W        W32286   3.005   7.690   5.985  0.2962  0.0519  0.1587
18873W        W32287  12.777   4.231   6.339 -0.0282  0.0376 -0.1770
18874W        W32288   6.067  17.603  16.231  0.1086  0.1126 -0.1538
18875W        W32289  13.731  10.006   2.969 -0.2063 -0.0540 -0.0886
18876W        W32290   3.261  13.773  16.261  0.0540  0.1811  0.1320
18877W        W32291  12.082   5.135   1.169  0.2478  0.2514 -0.0809
18878W        W32292   2.106   8.709   4.002  0.1258  0.3737 -0.1252
18879W        W32293   8.511  13.621  11.690 -0.0247  0.1943  0.0721
18880W        W32294   9.452   2.634   1.752  0.0609 -0.1549 -0.2796
18881W        W32295   0.452   5.714  15.557 -0.3689  0.0259 -0.0826
18882W        W32296   7.859   7.177   3.601  0.1753  0.0625 -0.0091
18883W        W32297   2.895  11.130   0.946  0.1366 -0.0732 -0.0060
18884W        W32298   0.999   1.190  15.605 -0.2949 -0.1057  0.0862
18885W        W32299   3.473  10.004   5.016  0.2405  0.2879  0.3752
18886W        W32300  16.435   0.098  15.429 -0.1284 -0.0261  0.1016
18887W        W32301   2.757  10.018  15.499  0.1450  0.0781 -0.1460
18888W        W32302   6.860  12.240  15.855  0.0394  0.1904  0.1100
18889W        W32303  11.338  18.332   0.960 -0.2075 -0.1131  0.4385
18890W        W32304  11.505  12.530  12.933  0.2233  0.0412 -0.0471
18891W        W32305  12.981  17.288   3.268  0.2261 -0.4175 -0.0913
18892W        W32306   4.896  15.841  13.268  0.2686  0.1331  0.0527
18893W        W32307  10.485  17.403   0.792 -0.1459  0.1197  0.1076
18894W        W32308   3.288   4.482  14.413  0.2109 -0.1034  0.0707
18895W        W32309  10.386  10.834   4.155 -0.0199 -0.4268 -0.0845
18896W        W32310  12.626   3.045  16.253  0.1591  0.0654  0.0159
18897W        W32311  18.035   1.279  15.886 -0.0838  0.0030  0.1526
18898W        W32312   3.919  16.141   4.817  0.0716  0.4103 -0.2196
18899W        W32313   5.924  11.118  13.605 -0.0647  0.2650  0.0258
18900W        W32314   0.736  14.273  14.951  0.1925 -0.2836 -0.1580
18901W        W32315  15.162   3.032  13.083 -0.0141  0.0129 -0.2331
18902W        W32316  10.105   6.774  13.053  0.1282 -0.0888  0.2647
18903W        W32317   9.664   2.903   5.006 -0.1831  0.0761  0.0649
18904W        W32318  16.047  17.313  15.139 -0.2576  0.0073  0.0671
18905W        W32319  14.437  17.088   3.653 -0.0076 -0.2174  0.0859
18906W        W32320  15.854  12.778  15.882  0.4741 -0.0443 -0.0381
18907W        W32321  15.007  10.180   6.389  0.0551  0.1840  0.1685
18908W        W32322  13.786  15.101   5.622 -0.0878 -0.0657 -0.0193
18909W        W32323  14.010  16.664  15.975  0.1518  0.0628  0.2022
18910W        W32324   9.932  14.723   0.565  0.2315 -0.3940 -0.0818
18911W        W32325   9.474   7.768  11.354  0.0802 -0.3242  0.2507
18912W        W32326   7.787   2.046  10.882  0.2140 -0.0956  0.0961
18913W        W32327   3.077  15.819  13.266  0.0024  0.1924 -0.0219
18914W        W32328   5.161   5.698  10.249  0.0736  0.1341  0.1875
18915W        W32329  13.543   9.056  13.595 -0.1619  0.1498 -0.2398
18916W        W32330  18.223   0.796  16.093  0.0351 -0.1960 -0.1278
18917W        W32331  14.891  11.327  11.274  0.0767 -0.0230 -0.0552
18918W        W32332   3.413   5.868   0.075 -0.1758  0.2527  0.2112
18919W        W32333  10.160   9.759   6.595 -0.2165 -0.0168  0.2758
18920W        W32334   4.407  15.212  10.196  0.0619  0.0665  0.1282
18921W        W32335  17.245  15.861  10.336  0.1426 -0.3379  0.0536
18922W        W32336   5.724  11.666  14.419  0.4832  0.1880  0.1637
18923W        W32337   2.832  10.496  12.468 -0.0618 -0.1420 -0.2690
18924W        W32338  11.262  18.367  15.590 -0.0893 -0.2505 -0.3852
18925W        W32339   1.836   6.990  15.291  0.1476 -0.1952  0.0274
18926W        W32340   3.759   9.323   1.764  0.0158  0.0555 -0.2150
18927W        W32341   5.423   3.766  13.550  0.0603  0.0656  0.3526
18928W        W32342   4.151   8.506  16.208 -0.2741  0.2637  0.0383
18929W        W32343   8.080  14.953  14.441  0.2720  0.0677 -0.1189
18930W        W32344   3.165   6.849   3.052  0.0631 -0.0504 -0.1651
18931W        W32345   7.891  13.233  11.371  0.0378 -0.3041 -0.2074
18932W        W32346   8.309   3.561  11.772 -0.1769  0.1203  0.1313
18933W        W32347  10.432   7.448   2.520 -0.1446  0.3089  0.2302
18934W        W32348  11.095   1.429  11.173  0.0382  0.2106 -0.0244
18935W        W32349   1.634   7.930  12.806 -0.2211 -0.4102 -0.1740
18936W        W32350  10.903   3.650  14.486 -0.1712 -0.1293 -0.0642
18937W        W32351   8.248   3.303   5.214  0.0925 -0.0337  0.2263
18938W        W32352  17.074  17.251   0.412  0.0954  0.2492  0.0612
18939W        W32353  13.823   5.873  13.797  0.2029 -0.0601  0.0875
18940W        W32354  13.426  16.561  11.959 -0.0666  0.1348  0.4296
18941W        W32355   1.167  14.701  12.683 -0.2496 -0.2961  0.2475
18942W        W32356  17.699   6.609   4.090  0.0435 -0.0231 -0.3150
18943W        W32357  15.865  14.615  11.995 -0.2121 -0.1955 -0.2181
18944W        W32358   6.153   4.956  11.154  0.2365  0.1483  0.0580
18945W        W32359  16.033   3.804  13.004 -0.3184  0.1478 -0.1244
18946W        W32360  15.410  18.115  12.389  0.2362 -0.0591  0.0893
18947W        W32361   8.677   9.412  15.868  0.0444 -0.1472 -0.1034
18948W        W32362  11.526   6.596   4.069  0.0388  0.2362 -0.3258
18949W        W32363   6.100   3.865  11.567 -0.0451 -0.0447 -0.3330
18950W        W32364   2.348   9.783  14.814  0.0876 -0.2722 -0.0138
18951W        W32365  13.789   8.321  15.979  0.0926  0.5347 -0.0744
18952W        W32366   4.574   0.369  11.421  0.1392  0.2522 -0.1267
18953W        W32367   9.713   4.042  13.532 -0.1759 -0.1193  0.0016
18954W        W32368  12.482   4.961  13.041  0.1346  0.1624 -0.5166
18955W        W32369  12.126  10.330  13.836 -0.0218 -0.0369 -0.4197
18956W        W32370   0.830   7.290   3.915 -0.0025 -0.1059 -0.0473
18957W        W32371   5.576   4.936  13.206 -0.1757 -0.1917 -0.0089
18958W        W32372   0.631   0.073   6.122  0.3082 -0.2601  0.0103
18959W        W32373   5.929  16.169  12.559  0.0200 -0.1010  0.0946
18960W        W32374   1.795   0.937  10.039 -0.0184 -0.2399 -0.0178
18961W        W32375  13.895  13.851  15.452 -0.1879  0.0230  0.1008
18962W        W32376   3.108  16.883   2.230 -0.0111 -0.0586 -0.0483
18963W        W32377  14.053   7.263  11.589  0.0155  0.2421 -0.1817
18964W        W32378  11.184  16.486  14.714  0.1225  0.2774 -0.0429
18965W        W32379   1.463  16.331   0.878  0.1674 -0.2530 -0.0797
18966W        W32380   7.594   9.754  15.836  0.2747 -0.0381  0.2069
18967W        W32381  16.914   1.882  10.501  0.3098  0.3729 -0.3968
18968W        W32382   2.128   1.542  12.279 -0.1323 -0.0938 -0.2510
18969W        W32383   7.046  17.652  10.039  0.1956 -0.2033 -0.2224
18970W        W32384   5.512  11.791   4.777  0.0316  0.1131  0.0204
18971W        W32385  11.693  18.076   4.528  0.1315 -0.1258  0.1478
18972W        W32386  17.872  10.385   3.853 -0.0222 -0.1463 -0.0866
18973W        W32387  15.938  14.890   3.722 -0.0231  0.2024 -0.0130
18974W        W32388  15.903   0.835   0.322  0.3069 -0.0831 -0.0947
18975W        W32389  18.319   7.592  15.712 -0.3227 -0.0839 -0.1944
18976W        W32390   4.528   6.621   5.273 -0.2572 -0.3430 -0.0396
18977W        W32391   4.913   5.456   0.771 -0.0033 -0.1345 -0.4261
18978W        W32392  16.498   2.137   4.711  0.0611 -0.1503  0.1879
18979W        W32393  11.526  17.308  14.301  0.0138  0.0068 -0.2925
18980W        W32394  17.670  16.640  12.988  0.0481  0.0857  0.1043
18981W        W32395  14.621  10.060   2.890 -0.0274 -0.0995 -0.0818
18982W        W32396   2.376   0.702   3.735 -0.4505 -0.1269  0.1139
18983W        W32397   8.375  15.005  13.864 -0.2157  0.0902 -0.1170
18984W        W32398  11.051  10.089   1.581 -0.0143  0.2238  0.1480
18985W        W32399  14.209  13.950  14.654  0.1089 -0.0557  0.2602
18986W        W32400  14.006   1.771  11.469  0.1875 -0.1261  0.5531
18987W        W32401   2.029  10.773  15.732 -0.3550  0.1021  0.0859
18988W        W32402  14.755  14.381   3.064 -0.0013 -0.0057  0.0284
18989W        W32403   7.301   4.740  13.860 -0.0640  0.0843 -0.1554
18990W        W32404   5.339   1.069   4.417  0.0789 -0.1424  0.0568
18991W        W32405   7.573   9.917  15.308 -0.1447  0.0599  0.0119
18992W        W32406   1.916   2.856   2.079 -0.1264 -0.1133 -0.3411
18993W        W32407  15.545  15.342  14.419 -0.4576 -0.0430 -0.2135
18994W        W32408   7.316   6.205  15.107  0.0077 -0.0116 -0.2488
18995W        W32409   6.623  11.649  10.872 -0.0809  0.4561  0.4620
18996W        W32410   7.587  12.367  10.134  0.1039 -0.1751  0.0057
18997W        W32411   4.314  14.861   4.410 -0.1083  0.3209  0.1725
18998W        W32412   6.001  14.718   3.601  0.1459  0.1807 -0.0986
18999W        W32413   7.161   3.110  11.043  0.1603  0.1803 -0.0635
19000W        W32414  14.023  15.606   3.796 -0.1550  0.5107 -0.0825
19001W        W32415   1.712   5.117   3.609  0.2796 -0.1773  0.0306
19002W        W32416  13.153  11.024   0.474  0.2310 -0.1580  0.0318
19003W        W32417   3.455   9.787   3.077  0.0051  0.1430 -0.0345
19004W        W32418   0.073  10.191   2.626 -0.2622  0.1274 -0.2014
19005W        W32419  17.191   8.394   3.523 -0.1500  0.0095  0.1336
19006W        W32420  10.213   0.492   1.045  0.1560 -0.1901 -0.0233
19007W        W32421   1.878   0.577  10.406  0.2317  0.1427 -0.1148
19008W        W32422  16.651  10.452   4.488  0.5301  0.1141  0.2009
19009W        W32423  14.284  17.407   5.327  0.1122 -0.0296  0.0456
19010W        W32424  12.503  14.577  13.081 -0.2059  0.1612 -0.1588
19011W        W32425   3.763   6.030   5.685  0.0349 -0.0379  0.1818
19012W        W32426  16.605  16.711  10.644 -0.1406  0.3531  0.0970
19013W        W32427  11.473   6.278   5.999  0.2260  0.1046  0.0340
19014W        W32428   6.258  15.748   5.225  0.1179 -0.1693  0.1330
19015W        W32429  14.008  11.048  12.434 -0.0542 -0.1317 -0.0349
19016W        W32430  10.260  12.359  12.846  0.0639 -0.0886  0.1167
19017W        W32431  17.037   5.530   6.635 -0.0127 -0.0320  0.0647
19018W        W32432   1.391   7.223  13.328 -0.0721  0.1269 -0.0934
19019W        W32433   0.893   3.899   1.113 -0.1543 -0.0008 -0.0971
19020W        W32434  15.145   4.669   1.136 -0.0039 -0.0804 -0.0853
19021W        W32435   1.825   0.920  15.004  0.1604 -0.0909 -0.0575
19022W        W32436  10.748  10.430   0.635 -0.2342 -0.1357  0.0680
19023W        W32437   7.015   0.298   5.033 -0.2853 -0.1809 -0.3724
19024W        W32438  17.462  16.773  10.648 -0.0948  0.0197  0.0133
19025W        W32439   4.653   0.550  16.093 -0.0303 -0.0600 -0.2269
19026W        W32440   8.582  10.741  15.514 -0.2436 -0.3783 -0.0490
19027W        W32441  14.619   0.447  15.670 -0.0041  0.0428  0.2616
19028W        W32442   8.790   7.963   1.344  0.1668  0.0585  0.0706
19029W        W32443   3.951  12.463   2.815  0.0720  0.1094 -0.2736
19030W        W32444   5.973  16.582   4.627 -0.0442 -0.0504 -0.0739
19031W        W32445   9.236  10.854  13.157  0.3634  0.1799  0.2777
19032W        W32446   4.547   3.315   5.176 -0.3253  0.0757 -0.1849
19033W        W32447   6.372   0.362   3.624  0.0225  0.0043  0.0534
19034W        W32448   0.903   0.541   0.828 -0.1633 -0.1410  0.0092
19035W        W32449  14.823   7.954   3.551 -0.0792 -0.1314  0.0344
19036W        W32450  10.852   5.798  15.834  0.1240  0.2318 -0.0239
19037W        W32451  10.591   5.233  10.970 -0.1001 -0.0511 -0.0562
19038W        W32452   4.109  16.831  13.093 -0.0041 -0.0959 -0.0020
19039W        W32453  12.287  12.683   3.986  0.0385  0.2232 -0.2296
19040W        W32454   0.224   6.741   1.903  0.1816  0.1437  0.0286
19041W        W32455   0.078   2.309  10.430 -0.2719  0.3357  0.1547
19042W        W32456  17.200   3.319   1.574 -0.2108  0.2829 -0.0202
19043W        W32457  15.657   5.300   1.658  0.5404 -0.1129 -0.1452
19044W        W32458  14.352  15.000   5.261 -0.0148 -0.1675 -0.0714
19045W        W32459   5.174   9.805  14.804 -0.0253 -0.1214 -0.0752
19046W        W32460   1.541   4.253   0.514  0.3209 -0.3559  0.2524
19047W        W32461   6.115   9.139  13.449  0.0750  0.1708  0.1023
19048W        W32462   4.617   3.133  15.537  0.1849 -0.2517  0.2056
19049W        W32463   7.342  13.880   0.837  0.1247  0.2524 -0.1844
19050W        W32464   7.791  17.007  13.571  0.0933  0.4442  0.0059
19051W        W32465   8.952   8.143   2.146  0.0041  0.1767 -0.1250
19052W        W32466  15.976   3.753  10.107  0.2680 -0.0737 -0.0456
19053W        W32467   2.055   4.159  12.543  0.0794  0.3464 -0.1694
19054W        W32468  13.930  17.758   5.237 -0.2675 -0.4167 -0.2492
19055W        W32469   7.654  15.663   2.072  0.1174  0.1595 -0.1407
19056W        W32470  10.186   3.352  12.262 -0.0475 -0.0699  0.2372
19057W        W32471   2.078  13.536  12.797  0.0280  0.0057 -0.0309
19058W        W32472  17.967  10.595  11.732 -0.1335  0.0711 -0.2325
19059W        W32473  15.235   7.221  12.782 -0.1389  0.1399 -0.1975
19060W        W32474  12.993  14.486  14.064 -0.2393  0.0437  0.1415
19061W        W32475   0.256   4.715   1.762 -0.1567  0.3270 -0.2869
19062W        W32476  17.490  17.921   3.229  0.0486 -0.1679  0.0645
19063W        W32477  12.929  15.799   4.332 -0.1023 -0.2638 -0.0286
19064W        W32478   7.266  10.147  10.122 -0.0407 -0.0166 -0.2387
19065W        W32479   0.694  15.483  10.625  0.1678 -0.1543  0.1754
19066W        W32480   6.842   7.625  12.230 -0.2729  0.0370  0.0894
19067W        W32481  14.341   7.618  14.810 -0.3458  0.1710  0.2681
19068W        W32482  15.423  13.371   1.649  0.1679  0.2338  0.2010
19069W        W32483   4.200  14.245  10.235 -0.0362 -0.0766  0.0051
19070W        W32484   0.788   4.855  12.799 -0.0483  0.0022 -0.0764
19071W        W32485  15.340   7.500  11.801  0.0509  0.1638 -0.0268
19072W        W32486   8.810  12.919   1.898 -0.1278 -0.0081 -0.1710
19073W        W32487  16.982   3.440  14.448 -0.4708  0.0161  0.2013
19074W        W32488   7.451   4.943   3.845  0.0945  0.2725 -0.3356
19075W        W32489  14.385  17.216  12.835 -0.2697 -0.0145  0.0696
19076W        W32490   6.956  16.843  10.452 -0.1373  0.1788  0.0376
19077W        W32491   9.469   0.704  15.692  0.0544 -0.0437  0.0513
19078W        W32492  11.588  18.442   0.292 -0.0196 -0.1460  0.1014
19079W        W32493  10.258   8.303  11.635  0.1260  0.2475  0.1513
19080W        W32494  18.054  14.201   5.387  0.1726 -0.1373  0.1532
19081W        W32495  13.312   0.177  13.092 -0.2056 -0.1871  0.0821
19082W        W32496   9.379   6.216  11.750 -0.0224 -0.2006  0.1900
19083W        W32497  12.992   9.605  11.839 -0.1940  0.0975 -0.3404
19084W        W32498  12.283   1.242   1.528 -0.0026  0.0967  0.1255
19085W        W32499  17.352  12.617  11.033 -0.0557  0.3565 -0.1353
19086W        W32500   5.885   7.698  13.059  0.0115 -0.1305  0.1108
19087W        W32501  12.412   5.022   5.421  0.2735  0.3562 -0.1290
19088W        W32502  14.650  14.539   4.073 -0.2882 -0.2418  0.1392
19089W        W32503  17.585   2.924  12.442 -0.0245 -0.2321 -0.1547
19090W        W32504   8.511   7.650   2.452 -0.2449  0.1476 -0.2998
19091W        W32505  15.907  11.376   3.317  0.2651 -0.1685  0.1493
19092W        W32506   2.593  13.174   1.975 -0.0243 -0.1398 -0.0482
19093W        W32507  16.667  13.691   5.197  0.2154  0.0604  0.3597
19094W        W32508  12.873  15.633   1.748 -0.0594  0.1415  0.0552
19095W        W32509  16.485  11.202  11.926  0.1257  0.0383 -0.1418
19096W        W32510   4.206   4.320   5.419  0.1980  0.0993  0.2319
19097W        W32511   2.050  15.539  13.884  0.4066  0.0244  0.0399
19098W        W32512   1.751   0.403   4.385 -0.2055  0.1285  0.0866
19099W        W32513   7.748  12.623   3.849  0.1633 -0.1210 -0.0360
19100W        W32514   9.372  17.316   1.062  0.0848 -0.0263 -0.0192
19101W        W32515  14.163  18.141  12.597  0.0934 -0.3709  0.2250
19102W        W32516   2.011  11.326  10.778 -0.2678 -0.1141  0.0929
19103W        W32517   7.158  11.116  14.576 -0.1345  0.2056 -0.0662
19104W        W32518   8.302   4.124  13.865 -0.0948  0.1821  0.2138
19105W        W32519  11.157   4.328  16.224  0.1394  0.1082 -0.4444
19106W        W32520   7.569   1.000  15.035 -0.3291 -0.3674 -0.2906
19107W        W32521  10.383   8.287   0.559  0.0044 -0.0951 -0.0435
19108W        W32522  14.233   2.020  10.789  0.0928  0.3920 -0.1332
19109W        W32523   9.871  15.194  12.293 -0.1806  0.3361 -0.1056
19110W        W32524   5.864   5.657   3.846  0.0252  0.0285  0.0431
19111W        W32525   4.216   7.400   2.382  0.0498 -0.0670  0.1688
19112W        W32526   1.797  11.630   2.778  0.0377 -0.2380  0.1154
19113W        W32527   5.972  16.317   4.231 -0.1463  0.2341 -0.1044
19114W        W32528  11.836  14.410   3.190 -0.2132  0.1412  0.1383
19115W        W32529  14.489   3.725  16.014 -0.0613 -0.1223 -0.0120
19116W        W32530   4.106  11.178   2.270  0.2981 -0.2391  0.1134
19117W        W32531  15.672   1.699   1.977  0.1840  0.2066  0.3277
19118W        W32532  15.483   0.969   3.636  0.0915 -0.0643  0.2171
19119W        W32533   1.971  11.317   5.488  0.2616 -0.0680  0.1779
19120W        W32534   4.757   9.457  16.001 -0.1633  0.1532  0.0850
19121W        W32535   0.037   2.229  15.266  0.2246  0.3927  0.1658
19122W        W32536   3.570  17.550   1.551 -0.1882 -0.1434 -0.0697
19123W        W32537  11.123  10.876   3.494  0.1118  0.1666 -0.0830
19124W        W32538   7.580   0.586   2.550  0.3714 -0.1209 -0.3088
19125W        W32539   7.717   4.417  10.886  0.0450  0.0037 -0.0075
19126W        W32540   7.148   5.872   3.012  0.0299 -0.3960  0.0176
19127W        W32541  10.543   1.438  12.897 -0.1480 -0.2588 -0.0473
19128W        W32542   3.552  16.659   0.066 -0.0080 -0.0233  0.2801
19129W        W32543  10.311   1.301   3.514  0.0784 -0.0279  0.0894
19130W        W32544  10.929   2.171   5.538  0.2345 -0.0490 -0.2031
19131W        W32545   6.031  15.036   0.714 -0.1131  0.1464 -0.3692
19132W        W32546   9.375   0.689   0.831  0.2208 -0.2224 -0.0272
19133W        W32547   5.912   5.319   2.132  0.0339 -0.0365  0.1264
19134W        W32548   5.706   2.653  11.829  0.1043  0.0188 -0.0569
19135W        W32549  15.322  11.123  13.782 -0.0924  0.0022 -0.1024
19136W        W32550  12.877  12.714  11.525 -0.1666 -0.6425 -0.0294
19137W        W32551   1.022  14.583  15.936 -0.1254 -0.3428  0.0334
19138W        W32552  15.837  13.425   4.580  0.0137  0.3076  0.0759
19139W        W32553  12.331  12.979   4.909  0.4973  0.0114  0.0166
19140W        W32554   5.894   4.449   5.065 -0.0659 -0.0555 -0.1107
19141W        W32555   8.747   6.559   1.185 -0.1873  0.2408  0.1274
19142W        W32556   7.482  16.277  14.793 -0.0355  0.0753  0.0309
19143W        W32557   6.007   8.926  10.773 -0.0494 -0.0204 -0.2719
19144W        W32558  10.219   0.304   4.827  0.1473  0.1372 -0.1661
19145W        W32559   7.745   8.417   5.582  0.0780 -0.2901 -0.0860
19146W        W32560  17.094  10.588  10.720 -0.1783 -0.0264  0.0400
19147W        W32561   2.453  14.813   1.063 -0.2057  0.0334  0.2501
19148W        W32562  12.940  16.683  12.040  0.2533  0.1076 -0.1503
19149W        W32563  13.594   7.733   5.789 -0.0577 -0.5361 -0.0420
19150W        W32564  12.012   7.979   3.351 -0.1174  0.0560  0.1792
19151W        W32565   3.786  10.228  11.378  0.5081 -0.0326 -0.1559
19152W        W32566   5.735  18.000  14.363 -0.1077  0.3322 -0.2046
19153W        W32567   2.314  10.869   1.651  0.1205 -0.2755 -0.1521
19154W        W32568  16.147   7.290   4.176 -0.0996 -0.2553  0.0691
19155W        W32569  18.063   7.321  14.194 -0.0891  0.3673 -0.3464
19156W        W32570   2.017  15.930   0.043  0.0856 -0.0786  0.2907
19157W        W32571  11.838  11.945   6.329  0.0336 -0.2299 -0.0206
19158W        W32572  16.000   1.268   5.286  0.0225  0.2535 -0.1957
19159W        W32573  12.209   6.784   4.691 -0.0520 -0.1574  0.0025
19160W        W32574  12.849   6.964  15.575 -0.0182 -0.2405 -0.3821
19161W        W32575   3.371   5.071  14.967 -0.1033 -0.0178  0.1858
19162W        W32576   0.147  10.244  14.862  0.0103 -0.0494 -0.1616
19163W        W32577   6.411   6.948   0.060  0.0351 -0.1204 -0.0653
19164W        W32578   5.001   9.372  13.646 -0.3172 -0.1687 -0.0444
19165W        W32579   4.284   5.264  11.878  0.0602  0.0767 -0.1694
19166W        W32580   1.779   0.923  15.553 -0.2427 -0.0003 -0.1531
19167W        W32581   8.324   2.553   5.015 -0.2364  0.0170 -0.3259
19168W        W32582  14.675   9.119   4.460 -0.0013  0.0058  0.0213
19169W        W32583  10.027   4.815   4.930  0.0327 -0.1643 -0.5241
19170W        W32584   4.954  16.632  13.393  0.0932 -0.0187  0.1740
19171W        W32585  11.236  14.744   2.461 -0.3003 -0.0971  0.0419
19172W        W32586   7.457  11.020   0.130  0.0637 -0.0020  0.0812
19173W        W32587   6.935   9.013   4.483 -0.2334 -0.1556 -0.0336
19174W        W32588  12.209   7.274   1.518  0.1814 -0.2894  0.0584
19175W        W32589   1.409   0.812   2.646  0.0405 -0.1353 -0.1995
19176W        W32590   3.052   0.921   2.653  0.0059  0.4418  0.0500
19177W        W32591   1.469   8.352   1.935 -0.1092  0.0870 -0.0113
19178W        W32592  16.448   3.442   5.194  0.2473  0.1696  0.0574
19179W        W32593   2.172  18.217   0.588  0.2345  0.0741 -0.2590
19180W        W32594  15.918   8.000   3.090  0.1065 -0.0707 -0.1435
19181W        W32595   0.565  11.710   3.371  0.0181 -0.0349 -0.1169
19182W        W32596  16.212   7.790  11.826 -0.0885 -0.0934 -0.0074
19183W        W32597   8.533  16.806  15.126 -0.0125  0.1365 -0.4486
19184W        W32598   6.346   7.502   0.905  0.0210  0.2072  0.1170
19185W        W32599   0.443   0.918  13.509  0.1343  0.0685 -0.2743
19186W        W32600   3.322   1.099  12.561  0.0240  0.0706  0.1914
19187W        W32601  16.503   5.285  14.713 -0.0406  0.1561 -0.2425
19188W        W32602  14.813   5.654   1.254 -0.0407  0.0606  0.0601
19189W        W32603  14.493  12.713  13.369  0.0972  0.0559  0.0460
19190W        W32604   1.940  17.070  12.756  0.0469 -0.4763 -0.5093
19191W        W32605   1.332   9.833   2.646 -0.2193 -0.0307 -0.2786
19192W        W32606  13.981  10.944   3.385 -0.1155  0.2378  0.0734
19193W        W32607  14.435   2.062  11.587  0.2013  0.0938 -0.0971
19194W        W32608   7.021  15.288   1.077 -0.0146 -0.1265 -0.0792
19195W        W32609   5.697   2.114   3.208 -0.2155  0.1036 -0.2718
19196W        W32610   8.970  14.504  14.134  0.1292 -0.1190 -0.0364
19197W        W32611   4.084  18.255  13.617 -0.1041 -0.1280  0.0214
19198W        W32612  12.040   6.459   3.760 -0.1668  0.0661 -0.3106
19199W        W32613  11.774  13.917  13.348 -0.2474  0.2529 -0.0862
19200W        W32614  16.647  15.429   5.106 -0.1058 -0.3241  0.2688
19201W        W32615   8.320   0.798   5.084  0.0436 -0.1936 -0.1216
19202W        W32616  14.504  15.084   2.586  0.0694 -0.2228  0.4110
19203W        W32617  16.218  13.382   4.966  0.2316  0.2146 -0.0076
19204W        W32618   0.141  13.421   2.125  0.0762 -0.2454 -0.2258
19205W        W32619   0.834   2.897  10.785 -0.1080 -0.0334 -0.1074
19206W        W32620  13.559   7.705  14.443  0.1838  0.1164  0.2066
19207W        W32621  12.427   0.692  15.252 -0.0718 -0.1585  0.0597
19208W        W32622   4.553   2.607  13.164  0.1999  0.1043 -0.0563
19209W        W32623   2.314   0.821   5.243  0.0732 -0.1232  0.2141
19210W        W32624   0.659  12.968  15.047  0.3214  0.0171  0.1289
19211W        W32625  17.592   1.761  14.467  0.0043 -0.5336  0.1244
19212W        W32626  11.089   6.472  14.186 -0.0084  0.1957 -0.0082
19213W        W32627  15.573   7.935   1.691  0.2503  0.1663  0.0577
19214W        W32628   1.434  16.416  15.875  0.1360 -0.0133  0.2469
19215W        W32629  15.964  13.520  16.217  0.0570  0.0702  0.0370
19216W        W32630  16.400   9.968  12.649  0.0961 -0.1234 -0.2274
19217W        W32631  14.351   6.340  11.841 -0.0617  0.0778  0.4171
19218W        W32632   2.195  17.509  12.729 -0.0461 -0.0989 -0.2383
19219W        W32633   0.038  16.554   1.139  0.1255 -0.0778  0.1557
19220W        W32634  11.999  15.120   2.861  0.0302  0.1217 -0.2410
19221W        W32635  16.600   5.833  11.153 -0.1282  0.1259 -0.0612
19222W        W32636  17.960   8.615   3.055 -0.2119  0.0292  0.1690
19223W        W32637   0.160   2.124  13.721 -0.0237  0.2247 -0.2348
19224W        W32638  14.698   2.031   0.528 -0.0957 -0.2727 -0.0724
19225W        W32639  10.466  13.939   2.974 -0.0996 -0.4162 -0.2412
19226W        W32640   8.826   8.387   1.744 -0.0183 -0.1069 -0.2162
19227W        W32641   2.176  16.187   2.302 -0.2942  0.1638 -0.1453
19228W        W32642  14.253   4.408   1.608  0.2423  0.1151  0.3344
19229W        W32643   8.106  11.228   3.760  0.1075 -0.1451 -0.0903
19230W        W32644   1.689   5.387  16.200  0.2067  0.0629 -0.0215
19231W        W32645   0.779   3.850   2.754 -0.2475  0.1850  0.3328
19232W        W32646   2.296   7.857  10.683 -0.0528 -0.1279 -0.0775
19233W        W32647   4.402   6.754   2.077  0.5054 -0.1334  0.2173
19234W        W32648   7.555  11.746  14.024  0.2588  0.2777  0.1809
19235W        W32649   3.342   1.347   2.667  0.0840  0.1583  0.2478
19236W        W32650   9.386  18.048  12.753 -0.2458 -0.2861 -0.1697
19237W        W32651   7.007  11.734  13.156 -0.0665  0.3912  0.1552
19238W        W32652  17.522  13.862   4.675  0.0190  0.1773 -0.0444
19239W        W32653   2.544  17.626  10.967  0.1340 -0.0247 -0.2634
19240W        W32654   6.790   9.509   3.886  0.0816 -0.0617  0.1484
19241W        W32655   3.458  14.352   4.760 -0.0436 -0.0432  0.0897
19242W        W32656  13.037   7.575  10.517  0.2445 -0.1201  0.0359
19243W        W32657   3.153  10.498  12.067 -0.1033 -0.0907  0.0719
19244W        W32658  10.534  14.255   1.594  0.1761 -0.3234 -0.0653
19245W        W32659   1.044  10.131  15.402 -0.1004 -0.0986 -0.0023
19246W        W32660  13.818   3.772   4.538 -0.0365  0.0384  0.1250
19247W        W32661   1.307   3.805  14.040  0.3770  0.0313  0.1779
19248W        W32662   6.209   7.042  13.492  0.2259  0.0391 -0.1719
19249W        W32663   2.959  10.224  14.667 -0.1377 -0.1136  0.1784
19250W        W32664  12.737  15.258  13.629 -0.2302 -0.0062  0.0014
19251W        W32665   9.739  10.104  12.248  0.0103 -0.0622  0.3033
19252W        W32666   3.590   5.100   2.813 -0.2285 -0.0802 -0.2314
19253W        W32667  16.644  10.550  16.089  0.0425 -0.0351  0.1495
19254W        W32668  10.254   0.320  12.522  0.1764  0.0480 -0.1134
19255W        W32669  12.089   8.039  15.859 -0.0171  0.2576 -0.0300
19256W        W32670  16.477   0.601   3.597 -0.1146 -0.0872  0.2857
19257W        W32671   7.468  15.285   3.467  0.1497 -0.4199 -0.0318
19258W        W32672  14.152  12.229   0.428  0.1077  0.0818  0.1651
19259W        W32673  13.727   5.871  16.215  0.0183 -0.1099 -0.0231
19260W        W32674  12.561   3.888  12.246 -0.0588 -0.0106  0.1295
19261W        W32675  14.945   0.113  14.183 -0.1477  0.0141  0.1505
19262W        W32676  16.164  15.464   3.094  0.0832 -0.4678  0.1188
19263W        W32677  15.000   3.104   5.144 -0.1559  0.0309 -0.0912
19264W        W32678   8.639  15.271   0.738  0.3551  0.0212 -0.4317
19265W        W32679   0.257   2.516   1.144 -0.4016  0.0248  0.0424
19266W        W32680  15.397   4.886   2.122  0.1252 -0.0050 -0.0591
19267W        W32681   4.077   4.623  12.575 -0.1868  0.1820 -0.1089
19268W        W32682   8.261  12.109   4.482  0.1359  0.2445 -0.1432
19269W        W32683   2.639   9.799  12.762  0.0401  0.0941 -0.0052
19270W        W32684  13.623   2.584  11.432  0.0468 -0.0927  0.0944
19271W        W32685  18.517   1.159   9.886  0.1455 -0.3536 -0.0262
19272W        W32686   1.183   2.821   5.765 -0.0642  0.2721  0.1633
19273W        W32687   9.869  13.456   5.969 -0.2759  0.3040 -0.1272
19274W        W32688  12.210  15.893  15.239 -0.1437  0.1141 -0.0928
19275W        W32689  12.975  13.052  15.276 -0.2179  0.0656  0.1639
19276W        W32690  15.586   6.325  13.135 -0.1660 -0.1339 -0.0623
19277W        W32691  13.276  12.061  13.786  0.2385 -0.0079  0.3463
19278W        W32692   1.451   1.894   1.032 -0.1791 -0.1765  0.3527
19279W        W32693  10.461  13.755  13.759 -0.1657 -0.2567  0.0225
19280W        W32694  14.263  10.152   3.816 -0.0142 -0.0421 -0.1668
19281W        W32695  10.396   1.217   1.631  0.1010  0.3980 -0.0579
19282W        W32696  12.594  10.622  11.884 -0.1352 -0.1715 -0.0464
19283W        W32697  15.330  11.108   1.607  0.2561  0.0902  0.0662
19284W        W32698  11.412   6.091   3.886 -0.2471  0.1959  0.0126
19285W        W32699  16.371   0.423  15.054 -0.0059 -0.2099  0.2247
19286W        W32700  17.870  12.171  10.420  0.2227  0.0956  0.3141
19287W        W32701   7.801   4.335  12.060  0.3575  0.1425  0.1189
19288W        W32702   3.999  10.369  13.242  0.0786 -0.2296 -0.0587
19289W        W32703   1.187  14.269   4.745 -0.0924 -0.0334 -0.0533
19290W        W32704  14.095   4.427   5.688 -0.0652 -0.0242 -0.2563
19291W        W32705  14.487   9.947  16.182  0.0563 -0.1967 -0.1691
19292W        W32706  16.948  12.179   1.624 -0.1377 -0.2890 -0.2051
19293W        W32707   2.307  17.062  14.685  0.1592  0.0451 -0.1473
19294W        W32708  17.421  18.337   5.257 -0.5535  0.1765  0.3747
19295W        W32709   6.495  14.354  11.578 -0.0105 -0.0369  0.3741
19296W        W32710   2.623   0.471   5.534  0.0343 -0.1894 -0.1084
19297W        W32711  18.457   4.326  14.915 -0.0238 -0.1852  0.2237
19298W        W32712   7.190  15.493  10.172 -0.0639  0.1738 -0.1267
19299W        W32713   4.289  10.651   0.000  0.1011  0.0397  0.2011
19300W        W32714   1.239  11.666   2.834  0.0143  0.2842 -0.0946
19301W        W32715  14.475   8.323  11.249 -0.0438  0.1759  0.0037
19302W        W32716  11.092   3.821   3.767 -0.1305  0.0174 -0.0545
19303W        W32717  13.808   2.763  15.222  0.3646 -0.0367 -0.0284
19304W        W32718   3.677   2.657   6.420 -0.2537 -0.0112 -0.0664
19305W        W32719   0.666   6.307   4.915 -0.0146 -0.2066 -0.1940
19306W        W32720   8.478   9.015   4.542  0.1060 -0.2375 -0.1375
19307W        W32721  13.725  14.026   2.070  0.0778  0.1573 -0.1003
19308W        W32722  10.721  13.829  14.191  0.2801 -0.1356 -0.1079
19309W        W32723  15.093   5.864  13.775  0.0187  0.0736  0.1224
19310W        W32724   1.744   1.959  14.764 -0.0872 -0.0420 -0.0767
19311W        W32725  11.607   3.826   4.581 -0.0840 -0.1910 -0.0602
19312W        W32726   3.774  18.227   1.510  0.4157 -0.0078 -0.0125
19313W        W32727   6.443   5.090   2.474  0.2047  0.2893 -0.1778
19314W        W32728  11.049  10.519  13.727 -0.0863 -0.2629 -0.2915
19315W        W32729  10.416  18.397   5.164  0.0831 -0.0841  0.0335
19316W        W32730  14.678  13.474   4.477 -0.2233 -0.2266  0.2580
19317W        W32731   0.383  10.472   2.305  0.1154 -0.2947  0.3557
19318W        W32732   8.772   5.041  15.379  0.1062  0.0352  0.1592
19319W        W32733   3.817   2.827   1.050 -0.2386  0.0135  0.1061
19320W        W32734  18.376  16.014  14.467  0.1396  0.3137  0.3605
19321W        W32735   8.662   2.732   6.301 -0.1964 -0.1672 -0.1849
19322W        W32736   8.502   8.760  10.910 -0.2971 -0.0752 -0.1630
19323W        W32737  10.311   4.563   0.792  0.2718  0.0553  0.2616
19324W        W32738  17.135  16.657  12.805 -0.0486  0.0722 -0.1460
19325W        W32739   9.827   4.009   6.134  0.1102  0.1700  0.3015
19326W        W32740   0.825   2.783  15.097 -0.3994 -0.2702  0.1877
19327W        W32741   3.243  15.481   3.392 -0.1843 -0.0243  0.0381
19328W        W32742   7.703  13.414  10.499 -0.3628  0.0882  0.3334
19329W        W32743   5.250   1.929   3.432  0.1318  0.2668  0.1441
19330W        W32744   7.325   2.104  11.186 -0.0305 -0.1120  0.0091
19331W        W32745  12.512   4.295  14.748 -0.0595 -0.2103  0.0839
19332W        W32746   0.361  12.097   0.298 -0.0803 -0.2548  0.1005
19333W        W32747  13.161  13.638   3.921 -0.2770 -0.0360 -0.3937
19334W        W32748   7.302  11.684   0.958  0.3597 -0.3103  0.1655
19335W        W32749   9.163  10.899  14.088  0.0125  0.0465  0.2075
19336W        W32750   6.707   0.590  10.644  0.0349 -0.3501 -0.1572
19337W        W32751   1.582   4.283   5.471  0.0214  0.0664  0.2103
19338W        W32752   7.393   0.984   1.719  0.1350 -0.5053 -0.1843
19339W        W32753  14.531   9.108  11.557 -0.4427 -0.1396  0.2050
19340W        W32754  13.609   7.496   0.335  0.2949  0.2917  0.0791
19341W        W32755   1.922   5.294  14.561  0.1588 -0.1845  0.0729
19342W        W32756  17.281   8.958   4.480 -0.3867  0.5356  0.0325
19343W        W32757   6.026  12.654  13.609  0.1085 -0.2770  0.1557
19344W        W32758   1.719   7.845   5.703  0.0968 -0.0968 -0.0775
19345W        W32759  16.382  15.876   9.886  0.3501  0.3014  0.0600
19346W        W32760   4.050  11.998  15.355 -0.2551 -0.1950  0.0731
19347W        W32761   3.719   1.444   1.034 -0.1269 -0.0424 -0.0466
19348W        W32762   9.745  12.567  14.741  0.1096  0.1063 -0.0081
19349W        W32763   6.597  16.496  11.935  0.5525 -0.0302  0.3203
19350W        W32764  15.590   6.979   4.575 -0.0887  0.0288 -0.0620
19351W        W32765  17.349  17.768   1.494 -0.1620  0.1788  0.2559
19352W        W32766   5.549   1.400  10.598  0.1549  0.2147  0.0580
19353W        W32767  16.061   3.056   1.119  0.0037  0.3170  0.6909
19354W        W32768  16.432   6.500   5.429 -0.2666  0.1164 -0.2815
19355W        W32769  11.702   4.229  11.320 -0.4199  0.0915 -0.0036
19356W        W32770   6.112  12.711  14.187 -0.1476  0.2882 -0.2118
19357W        W32771   8.901   8.669   0.210  0.2498 -0.0241 -0.0457
19358W        W32772  11.109  15.044  13.135  0.0999  0.1310 -0.0804
19359W        W32773  12.895   0.821  11.411  0.4044  0.2426 -0.2787
19360W        W32774  13.500  16.921  14.467 -0.0862  0.1115 -0.0210
19361W        W32775   7.893   0.520  14.261  0.0584 -0.2853 -0.1367
19362W        W32776  16.905  10.671  13.851 -0.2619  0.0344  0.0955
19363W        W32777   8.422  14.578   5.048  0.0776  0.1701 -0.0360
19364W        W32778  11.473  14.501   0.146  0.2138  0.3808 -0.0435
19365W        W32779   6.210   2.956   4.925 -0.2007  0.2998  0.1744
19366W        W32780  16.834  12.247  16.155  0.0005  0.2026 -0.0207
19367W        W32781   8.901   9.043   5.849 -0.2262 -0.1083 -0.0567
19368W        W32782   5.105  15.364  13.351  0.0580  0.2363 -0.1028
19369W        W32783  16.675  15.389  13.714  0.0684 -0.1487 -0.2893
19370W        W32784  10.790  12.136   0.625 -0.0896 -0.1372 -0.2457
19371W        W32785   1.392   1.586   1.903  0.1132  0.0500  0.0137
19372W        W32786  13.468  16.421   5.422 -0.3201  0.2824 -0.0697
19373W        W32787   0.661  13.372  13.265 -0.1274  0.0188 -0.0723
19374W        W32788  18.060   0.608   6.342 -0.1203  0.1448 -0.0205
19375W        W32789  16.158  10.886   6.689  0.0407  0.1244  0.1205
19376W        W32790   6.635  16.971  15.227  0.0242  0.2173  0.0095
19377W        W32791  18.371  18.237  14.407  0.1901  0.2398  0.3522
19378W        W32792   6.681  10.141  14.954  0.0283  0.0171 -0.0409
19379W        W32793   2.911  14.063   5.080  0.0222 -0.2276 -0.1383
19380W        W32794  10.429  13.021  12.005 -0.2349  0.0173 -0.2139
19381W        W32795   0.799   6.647  14.035 -0.1816 -0.0006  0.1579
19382W        W32796   9.558  12.144  14.942  0.1196  0.0623 -0.1830
19383W        W32797   0.838   2.071   3.018  0.0183 -0.0883  0.1389
19384W        W32798  12.335   8.447  15.162  0.0257  0.1564 -0.2644
19385W        W32799   7.133   0.545  10.363 -0.1888 -0.1663 -0.1246
19386W        W32800   1.797   5.763  14.885 -0.5067  0.0805 -0.0788
19387W        W32801   6.924   5.731  15.842 -0.0669 -0.0992  0.3351
19388W        W32802   7.676   5.725  10.810  0.0658 -0.2182  0.0652
19389W        W32803  10.998  15.835   3.100 -0.1231  0.1316 -0.0325
19390W        W32804   4.594   1.028  12.121 -0.1497 -0.0672  0.0446
19391W        W32805   6.479   9.237   0.966  0.0706 -0.0865  0.1937
19392W        W32806  17.039  12.497   3.530  0.1796 -0.1751 -0.1222
19393W        W32807   2.899  12.023  13.387 -0.4680  0.2340  0.0599
19394W        W32808   1.452   6.570  16.260 -0.0578  0.3193  0.2637
19395W        W32809   6.239  15.153   3.655 -0.0960  0.0492  0.2197
19396W        W32810   8.457  15.440  10.837  0.1063  0.1660 -0.1377
19397W        W32811   5.450   3.142  13.795 -0.1836  0.2866 -0.1318
19398W        W32812  11.432   2.404  13.865  0.1160 -0.2893 -0.0812
19399W        W32813   9.052  16.157  14.029 -0.0776 -0.4219  0.2518
19400W        W32814   5.110  18.482   4.514  0.1788 -0.0960 -0.1470
19401W        W32815  15.407   6.334   5.268 -0.2623  0.3731 -0.1713
19402W        W32816  10.038  12.476   2.982 -0.2048  0.3718  0.0745
19403W        W32817   8.140  14.270   2.212  0.1860  0.1708  0.1024
19404W        W32818  17.945   3.849   4.383  0.3708  0.0441  0.1133
19405W        W32819   5.856  12.531  13.147  0.1534 -0.1328  0.1061
19406W        W32820  16.701   4.369  12.726 -0.0291  0.8447 -0.1544
19407W        W32821   2.411  16.642   2.483 -0.1661  0.0847  0.3429
19408W        W32822  18.471   8.803  14.894 -0.2235 -0.1927 -0.0180
19409W        W32823   4.948  15.488   0.157  0.1589 -0.0232  0.1890
19410W        W32824   8.067   6.486   4.228  0.1014 -0.2722 -0.0572
19411W        W32825   6.774   1.770   3.726 -0.0747  0.1776  0.0559
19412W        W32826  13.619   8.987  11.936 -0.4631 -0.1321 -0.0019
19413W        W32827   6.647   2.678  12.153  0.0754  0.0203  0.0024
19414W        W32828  15.561   3.992   2.404  0.2044 -0.1427  0.0659
19415W        W32829  12.717  17.030  13.100 -0.0282 -0.1827  0.0986
19416W        W32830   0.289   8.214  15.581  0.1196  0.2104 -0.0027
19417W        W32831  10.059   4.407  13.476 -0.1649 -0.2517 -0.0705
19418W        W32832   7.624  15.891  14.482 -0.0156  0.1187 -0.0023
19419W        W32833  15.703  15.151  10.048 -0.2461  0.0943 -0.0065
19420W        W32834  18.352  16.791   5.627 -0.2115 -0.3554 -0.1508
19421W        W32835  12.738  10.883   1.434 -0.0777 -0.3013 -0.0736
19422W        W32836  15.511  14.408   9.730  0.3442  0.2035 -0.0882
19423W        W32837  16.315  13.208  10.958  0.0800 -0.1516 -0.1232
19424W        W32838   8.484  17.198   1.484  0.0531 -0.0679  0.0963
19425W        W32839   4.178   1.439   2.196 -0.0205 -0.0651  0.2450
19426W        W32840  12.644   8.379   9.970  0.0400 -0.0894 -0.1538
19427W        W32841   1.011  10.489   0.006 -0.1389 -0.0146 -0.4003
19428W        W32842   7.580   6.484   2.924  0.2698 -0.0681  0.6532
19429W        W32843   5.239   7.707   4.897 -0.1531  0.1235  0.1823
19430W        W32844   1.129  17.152  13.857  0.0212  0.0696 -0.2938
19431W        W32845  12.385   6.508   0.845  0.0290  0.0353  0.0290
19432W        W32846  15.312   1.801  14.693 -0.1757 -0.0386 -0.3528
19433W        W32847  18.191  12.300   1.497 -0.1847 -0.1731 -0.4294
19434W        W32848  15.031  14.403   3.777  0.2009 -0.1909 -0.0699
19435W        W32849  10.689   0.919  13.016 -0.2118 -0.0102  0.0258
19436W        W32850   1.853   7.099  16.030 -0.1322  0.1129  0.2715
19437W        W32851   4.301   5.031  13.561  0.1415 -0.2858 -0.2831
19438W        W32852  18.169   1.243  13.101  0.0289 -0.1991 -0.0780
19439W        W32853  14.824   0.970  15.771  0.1404 -0.1894 -0.0140
19440W        W32854  14.837  14.908   5.108  0.2151  0.0078 -0.1126
19441W        W32855   8.958   0.267   1.930 -0.0626  0.1091 -0.0566
19442W        W32856   8.675   5.346  12.654 -0.0631 -0.0825 -0.2237
19443W        W32857  11.636   5.064  12.093  0.1649 -0.0292 -0.2062
19444W        W32858  12.641   5.253   0.494  0.2975  0.1002  0.1008
19445W        W32859   5.833   6.695   0.425 -0.1186 -0.1386 -0.3468
19446W        W32860   0.916   6.713  12.646 -0.1416  0.1959 -0.2391
19447W        W32861   4.170   3.980   6.444 -0.0184 -0.1610 -0.0163
19448W        W32862   1.267  16.740  11.847  0.1421 -0.1309  0.1930
19449W        W32863  17.878  12.949   5.931 -0.0962  0.0209 -0.1390
19450W        W32864  14.755   8.952   3.989  0.1415 -0.1722  0.0153
19451W        W32865   1.688  18.292  15.093 -0.2404 -0.0550 -0.2478
19452W        W32866  12.971   0.231   0.823 -0.0599 -0.0220 -0.4296
19453W        W32867   8.001  13.535  14.818 -0.2143 -0.0254  0.2609
19454W        W32868   0.766  10.559  10.882 -0.0125  0.1324 -0.1557
19455W        W32869   5.881  14.743   4.240 -0.2630 -0.4300 -0.0783
19456W        W32870  12.487   6.899   5.264  0.2237  0.3758 -0.0476
19457W        W32871  13.468   7.599   6.362 -0.0064 -0.0298  0.1477
19458W        W32872   8.401  16.957  12.987 -0.2684 -0.0016 -0.0786
19459W        W32873   1.622  11.358   1.882  0.0622 -0.1493  0.3169
19460W        W32874   3.002   0.734  10.135 -0.3909  0.1132 -0.0860
19461W        W32875  11.448   3.013  16.159 -0.0831 -0.2239  0.3449
19462W        W32876  11.710   2.519  11.561  0.0005 -0.2518  0.2255
19463W        W32877   1.268  12.627   3.268  0.0098  0.3678  0.0334
19464W        W32878  16.607  10.406   1.586 -0.1457  0.0670 -0.0523
19465W        W32879  15.544   3.089  14.127  0.0377 -0.2499 -0.0509
19466W        W32880   2.658  10.119   2.240 -0.1903  0.1004 -0.0441
19467W        W32881  13.983   4.383  12.971 -0.0886  0.0197  0.1568
19468W        W32882   2.201   5.504  14.997 -0.1686 -0.3657 -0.0483
19469W        W32883   0.278   3.734   0.966  0.1082 -0.0712  0.0202
19470W        W32884   9.134   5.293   3.113  0.1936  0.1966 -0.0653
19471W        W32885  11.292  17.817  15.697 -0.0403  0.0218 -0.2232
19472W        W32886   0.368   3.058   1.445 -0.2144 -0.0347  0.3455
19473W        W32887  15.647   8.034   5.262  0.1623  0.1608 -0.1334
19474W        W32888   7.753  11.853   2.460 -0.0153 -0.2986 -0.1046
19475W        W32889   8.889  16.149   4.641  0.2185 -0.0511  0.2623
19476W        W32890  17.238   5.681  12.789  0.2675  0.1039 -0.0979
19477W        W32891  16.395   2.372   3.499 -0.0433  0.0647  0.0341
19478W        W32892  10.898   0.816   4.698 -0.1661  0.1143  0.1254
19479W        W32893  12.534   9.591  12.174  0.1173 -0.2111 -0.0091
19480W        W32894   7.110   1.860   1.106 -0.0413  0.0243 -0.1089
19481W        W32895   0.484   9.938   4.525  0.5148 -0.2826 -0.1370
19482W        W32896   4.999   7.967  11.379 -0.1385  0.4102  0.0808
19483W        W32897  18.261   8.241   4.188  0.2405  0.1314 -0.2421
19484W        W32898  16.283  13.334  12.435  0.0721 -0.2082  0.3643
19485W        W32899   4.263   5.884  15.312  0.1676 -0.0262 -0.0771
19486W        W32900  14.817  11.318  14.675  0.0610  0.1850 -0.2216
19487W        W32901   6.124  12.958   2.270  0.1057  0.5791  0.0033
19488W        W32902   3.346   3.669   2.892 -0.1303 -0.0235  0.1692
19489W        W32903   2.314  12.197  16.152 -0.3003  0.0454 -0.0026
19490W        W32904   4.951  11.299   4.018 -0.0935 -0.1433 -0.2579
19491W        W32905  12.106  14.348   4.204 -0.0419  0.0508 -0.0492
19492W        W32906  12.258   0.242  14.992 -0.0507  0.0047 -0.2202
19493W        W32907   5.799  16.040  11.881 -0.3513  0.2094  0.2889
19494W        W32908   9.124  14.628  11.111 -0.3340  0.2147  0.0735
19495W        W32909   8.349   6.207   0.135  0.0137  0.0996 -0.3636
19496W        W32910  16.993   0.868  12.708  0.0827  0.0680 -0.1038
19497W        W32911  10.168  17.884  11.473  0.1078 -0.2092 -0.0662
19498W        W32912   9.036   7.802   3.624 -0.0781  0.2723  0.0932
19499W        W32913  11.687   1.491   4.068 -0.0450 -0.2610  0.0533
19500W        W32914   6.383   9.980  13.188 -0.1342  0.0944 -0.3333
19501W        W32915   5.894  17.522  15.298  0.0537  0.1430 -0.3161
19502W        W32916   0.146  10.358   4.590 -0.0032  0.2076  0.3601
19503W        W32917   4.698  17.394  16.026 -0.2363 -0.1955  0.1281
19504W        W32918  14.502  14.749  15.896 -0.2657 -0.2554  0.2732
19505W        W32919   4.487  17.654  11.333  0.0558 -0.0705  0.5459
19506W        W32920   4.934   8.653  14.715  0.2839 -0.1008 -0.4991
19507W        W32921   5.215  17.581  14.146  0.0596 -0.1214 -0.1060
19508W        W32922   0.674   8.994  15.789 -0.1353 -0.0408 -0.0959
19509W        W32923   3.170   9.464   5.533  0.0139  0.5355 -0.1178
19510W        W32924   3.992   4.941  10.631  0.2462  0.0486 -0.1203
19511W        W32925   8.351   6.060  15.947 -0.0906  0.2018  0.0195
19512W        W32926   9.590  10.883  15.524  0.1375 -0.0599 -0.1907
19513W        W32927  15.412  12.428  15.099  0.1563  0.0312 -0.0768
19514W        W32928   2.826   7.093   2.776 -0.1117  0.0989 -0.2214
19515W        W32929   4.671   1.535  15.504  0.2676  0.0527  0.0808
19516W        W32930  13.396  14.000   4.239  0.3085 -0.0220  0.1492
19517W        W32931  12.553   9.667   6.134 -0.1123  0.1181 -0.1779
19518W        W32932  16.565   3.604   3.308 -0.1206  0.4191  0.2439
19519W        W32933  10.193   3.751  12.584  0.1322  0.2629 -0.0216
19520W        W32934  10.194   0.044   0.167  0.0168  0.2110 -0.3110
19521W        W32935  11.093   7.245  10.756  0.4511 -0.0382 -0.0002
19522W        W32936  11.227  17.568   1.295  0.1137  0.1091  0.0840
19523W        W32937  13.724  11.758   4.053 -0.0614 -0.0832  0.3020
19524W        W32938  14.266  18.019   4.828  0.0637 -0.2140 -0.4099
19525W        W32939  15.855  16.490  13.504  0.0625  0.0452  0.3823
19526W        W32940  17.115   1.847   5.464 -0.1640 -0.1878  0.2764
19527W        W32941  18.482   2.885   5.921  0.0941 -0.0254  0.0435
19528W        W32942   3.717   6.154  16.060 -0.3351  0.0180 -0.0486
19529W        W32943   0.307   4.386   3.302 -0.0118  0.1490  0.1528
19530W        W32944   8.622   9.121   5.085  0.0787 -0.2319  0.2441
19531W        W32945  15.792  12.833  11.871 -0.3433  0.1466 -0.0551
19532W        W32946  16.709   8.228   1.281 -0.2927  0.2915  0.2064
19533W        W32947   4.963  15.296   2.213  0.2405  0.0022 -0.0910
19534W        W32948   5.140   3.575   0.572  0.0452 -0.0511  0.0612
19535W        W32949  16.166  12.827   3.248 -0.1628  0.1773  0.2922
19536W        W32950  13.523   0.713   4.748  0.0944  0.1053 -0.0943
19537W        W32951   5.882   0.217   2.708 -0.1351 -0.0329  0.0706
19538W        W32952  14.821  10.237  13.902 -0.1160 -0.0133 -0.0804
19539W        W32953   0.161   5.532   5.451  0.0812  0.1070  0.2555
19540W        W32954  10.809   6.458  12.983 -0.0414 -0.2449 -0.0947
19541W        W32955   3.064  14.013  13.398  0.0165 -0.2141  0.2271
19542W        W32956  17.432   6.405   6.261 -0.2659  0.1882  0.4017
19543W        W32957   2.408  10.848  12.362  0.1670 -0.0046  0.0558
19544W        W32958  14.919   6.335  15.921 -0.2365  0.0515  0.2492
19545W        W32959   2.485  18.399   1.261 -0.3088 -0.1240  0.2006
19546W        W32960  18.409  17.462  13.769 -0.2031  0.1526 -0.0389
19547W        W32961   5.270   5.808  11.559 -0.2712 -0.2238  0.1059
19548W        W32962   0.581   1.234  10.581 -0.0649  0.1152 -0.1676
19549W        W32963  14.648  15.408  15.332 -0.2719  0.1026 -0.0731
19550W        W32964   7.047  17.854   3.135  0.3584  0.4088  0.1732
19551W        W32965   0.093   0.962   1.210 -0.1549 -0.1246  0.0501
19552W        W32966   9.152   9.635  15.273 -0.0213 -0.1824 -0.1350
19553W        W32967   0.065  16.388   2.127  0.0477  0.1095 -0.0704
19554W        W32968   6.862   8.976  11.521 -0.3111  0.3078  0.2922
19555W        W32969   0.267  15.194  12.188 -0.0911 -0.0439 -0.1251
19556W        W32970   7.907  17.615   2.979 -0.0131  0.0578  0.1362
19557W        W32971   0.275   3.943   2.461 -0.0085 -0.4574  0.0454
19558W        W32972  11.699   9.318   3.537 -0.0264 -0.4020  0.0481
19559W        W32973   2.054  17.815  10.827  0.2359 -0.0925 -0.1491
19560W        W32974   0.140   6.194  13.607  0.3334  0.0120 -0.1381
19561W        W32975   2.328   7.176   2.818 -0.1569 -0.1665 -0.0059
19562W        W32976  15.629   6.844  16.045  0.1524  0.2677 -0.0816
19563W        W32977   3.445  11.482   4.975 -0.2142  0.4168 -0.1048
19564W        W32978  13.712   0.132   2.026  0.1888  0.0359  0.2761
19565W        W32979   2.824  10.907  12.075 -0.3190  0.1123  0.0668
19566W        W32980   2.869   6.046  14.509  0.1095  0.1418 -0.2321
19567W        W32981   4.346  15.463  16.121 -0.2887 -0.2203  0.0294
19568W        W32982  17.124   7.214  15.674  0.0389 -0.2040 -0.1413
19569W        W32983  12.201  10.902   3.478 -0.1673 -0.0878  0.1622
19570W        W32984  11.853   9.182   5.634 -0.2223  0.1291  0.5791
19571W        W32985  11.810   0.470   3.731  0.2237  0.1455  0.1605
19572W        W32986   4.999   6.709  14.292 -0.0076 -0.0004 -0.1673
19573W        W32987   9.930   7.602  12.354 -0.0522  0.0865  0.0400
19574W        W32988  14.785   8.870   5.705 -0.0291  0.0007 -0.3579
19575W        W32989   9.978   0.773  14.008  0.5355 -0.0168 -0.0159
19576W        W32990   6.649  15.229   4.689 -0.2247 -0.1636  0.0148
19577W        W32991  17.415  12.456   2.950 -0.0576 -0.0005 -0.1090
19578W        W32992   8.919   6.427  15.396 -0.1667 -0.0607  0.0812
19579W        W32993   1.004   0.733   3.177  0.2697 -0.1945 -0.5443
19580W        W32994  13.298  12.137   0.596  0.2380 -0.0487 -0.0122
19581W        W32995   2.578   7.720   9.922  0.0326 -0.2337 -0.1889
19582W        W32996   5.807   9.349  12.946 -0.1245 -0.0684 -0.6041
19583W        W32997   3.921   3.901   0.990  0.0602  0.0709 -0.1972
19584W        W32998   3.244  15.299  12.080 -0.0040 -0.0630 -0.2395
19585W        W32999  16.026   1.815  12.584 -0.1721  0.0333  0.0270
19586W        W33000  16.665  17.997   4.383 -0.0926 -0.1990  0.2609
19587W        W33001  13.325  13.946   9.789  0.1791  0.3165  0.1604
19588W        W33002  15.879   8.204  11.959  0.3672  0.1001  0.1649
19589W        W33003  13.857  18.477  12.865 -0.0785 -0.2641 -0.1621
19590W        W33004   8.365   1.830   3.455  0.3392 -0.1422  0.3509
19591W        W33005   9.393  15.735  13.901 -0.1281  0.0626  0.4177
19592W        W33006  17.837  10.849  14.462 -0.1520  0.0840 -0.1116
19593W        W33007   4.149  11.125   5.363 -0.1176  0.1415  0.3676
19594W        W33008  15.138  16.601   4.542 -0.1693  0.1890  0.1488
19595W        W33009  13.027  14.403  12.118  0.2998  0.1226  0.0689
19596W        W33010  10.429  12.434   5.411 -0.1397  0.1308  0.0164
19597W        W33011   6.489  16.762  15.689 -0.2769  0.2745  0.1039
19598W        W33012   8.856   9.910  16.065 -0.1827 -0.4330  0.2214
19599W        W33013  12.897   7.737   4.528 -0.0483 -0.0888 -0.0620
19600W        W33014   5.634  11.346   1.307  0.1164 -0.2432  0.2165
19601W        W33015   1.708   7.361  15.604 -0.2995 -0.4066  0.1501
19602W        W33016   8.520  14.182  13.807  0.2824 -0.0180 -0.3303
19603W        W33017  16.144   2.484  15.069 -0.0263  0.3308  0.3381
19604W        W33018   0.906   1.034  14.528  0.1040  0.0723  0.1967
19605W        W33019  15.997  13.517  14.746  0.0234  0.2471 -0.1955
19606W        W33020   7.053  15.900  14.340 -0.0758 -0.2066  0.2055
19607W        W33021  15.536   1.516  11.181  0.2097 -0.2055 -0.0923
19608W        W33022   3.580  11.992  14.512  0.1570 -0.0114 -0.0065
19609W        W33023  13.551  15.193  13.442  0.0950 -0.4366  0.0085
19610W        W33024   3.963   5.074   0.553  0.2000  0.1057 -0.1069
19611W        W33025  13.846   0.404  11.325  0.0772  0.3366  0.1545
19612W        W33026   3.041  16.666  13.282  0.3530  0.2258 -0.1655
19613W        W33027   0.939  12.484  15.964 -0.1470 -0.4141 -0.0355
19614W        W33028   1.599  14.086   3.034  0.1079  0.4219  0.3583
19615W        W33029   6.369   0.425   1.700 -0.2046  0.0785 -0.3113
19616W        W33030   4.267   2.993  12.300 -0.0242 -0.1325  0.0006
19617W        W33031  10.305  15.424  13.137 -0.2270  0.0637  0.2378
19618W        W33032  14.884  11.101   0.930  0.1967 -0.3716 -0.0400
19619W        W33033   6.732   2.097   5.631 -0.0533 -0.3039  0.0808
19620W        W33034  14.578   0.295  14.739 -0.0493 -0.0294 -0.2218
19621W        W33035   1.549   7.962  11.050  0.0993  0.1635 -0.1050
19622W        W33036  10.458  12.384   3.281  0.1804  0.2647 -0.1411
19623W        W33037   8.434  13.165  13.911  0.1198  0.3464  0.0910
19624W        W33038   7.635   3.053  14.975 -0.1699 -0.0603 -0.0184
19625W        W33039  17.309  15.046  15.430  0.0160 -0.1440 -0.1318
19626W        W33040  14.243  12.200  13.368  0.1195  0.2404 -0.0977
19627W        W33041   1.451  16.995   4.423  0.0379  0.2281 -0.0821
19628W        W33042   9.943  16.378   3.668 -0.0128 -0.1303 -0.0862
19629W        W33043  12.671  16.654   5.504  0.0418 -0.1153  0.0464
19630W        W33044   3.521   1.658  13.457  0.3923 -0.2921  0.0056
19631W        W33045  12.529   9.814   5.560 -0.5162  0.0637 -0.0888
19632W        W33046   4.626   8.472  10.857 -0.1151  0.1700 -0.0760
19633W        W33047  13.095  14.450   0.184 -0.0549  0.2400 -0.0471
19634W        W33048   8.764   1.361  15.745  0.0887 -0.3289 -0.3063
19635W        W33049  14.861  10.261   1.934  0.2288 -0.3654  0.1165
19636W        W33050   4.628   2.324   2.752  0.4148  0.4210  0.1516
19637W        W33051   2.341  17.308  11.865  0.0026  0.1163 -0.3882
19638W        W33052   9.371  15.399   0.790  0.0468  0.0205  0.0268
19639W        W33053   1.060  10.905  14.692 -0.3220 -0.1616 -0.2286
19640W        W33054  15.403   9.122  15.557 -0.0550 -0.0461 -0.2811
19641W        W33055   2.615   6.468  13.503 -0.2809  0.0585  0.0237
19642W        W33056  15.166  14.536   0.174 -0.0383  0.1594  0.0377
19643W        W33057   1.267  14.162  15.336  0.1465 -0.2292  0.0631
19644W        W33058   1.095   4.109  11.312  0.1121 -0.0361 -0.0709
19645W        W33059   5.124   9.500   1.005 -0.1729  0.2154  0.1011
19646W        W33060   9.658  17.749   0.875  0.1749  0.1047  0.1937
19647W        W33061   6.695   5.688  13.102  0.0066 -0.1975  0.1389
19648W        W33062   0.130   5.697  12.342 -0.2554  0.2659  0.1391
19649W        W33063  10.020   5.308   0.141 -0.0946  0.0633 -0.2526
19650W        W33064   6.538  18.377  10.872  0.0708 -0.1104 -0.1410
19651W        W33065  13.502   3.500   3.580  0.0176  0.0379 -0.1461
19652W        W33066   6.610  14.512   4.704  0.4802  0.1668 -0.1523
19653W        W33067   0.422   2.745   5.103  0.1617  0.1059  0.2772
19654W        W33068  17.933  14.662   0.650 -0.1171 -0.0108 -0.0873
19655W        W33069   5.137   3.221  12.931 -0.0244 -0.2776 -0.0588
19656W        W33070  14.573   5.130   2.396  0.0148  0.2163 -0.2002
19657W        W33071  17.073  10.925   1.080  0.4572  0.0646  0.1188
19658W        W33072   2.484   3.514  10.385  0.1436  0.1914 -0.0092
19659W        W33073   2.086   5.448  14.102  0.1688  0.0482 -0.0819
19660W        W33074  17.611  12.829  14.179  0.0556 -0.0238  0.0583
19661W        W33075   3.661   3.061  13.277  0.2092  0.0814  0.1290
19662W        W33076   6.876  14.777   0.932 -0.1201  0.1499  0.1526
19663W        W33077  12.706  10.433   1.822  0.2316 -0.4018 -0.0743
19664W        W33078   7.176   6.126   2.593  0.1652 -0.1878  0.2402
19665W        W33079  13.284  10.661  11.250 -0.1187  0.2823 -0.3161
19666W        W33080   3.510  11.041   5.227  0.0736  0.0384 -0.1742
19667W        W33081   8.353   1.760   4.095  0.2185 -0.3285  0.1588
19668W        W33082   7.269   4.331  11.255  0.1054 -0.0829 -0.2412
19669W        W33083  16.157   4.490  10.851 -0.0961  0.0978 -0.3745
19670W        W33084  18.345   2.214   5.439  0.4345 -0.0592  0.1731
19671W        W33085  17.695  13.646  10.132  0.0348 -0.1988  0.0996
19672W        W33086   9.908   3.448   4.818 -0.1604  0.0524 -0.0193
19673W        W33087   8.128   8.704  12.470 -0.0270 -0.1296 -0.0971
19674W        W33088  16.640   1.153  12.579 -0.2784  0.3982 -0.1204
19675W        W33089   6.036   5.739   1.198 -0.0713 -0.0323  0.0024
19676W        W33090  12.521   4.475   5.561 -0.0013 -0.2364 -0.0753
19677W        W33091   5.665   0.283  13.746 -0.1685 -0.1582  0.0762
19678W        W33092  16.877   4.815   1.541 -0.0869 -0.1202  0.3949
19679W        W33093   6.340  11.709  10.424  0.0460 -0.1988  0.0659
19680W        W33094   3.131  15.244  10.901 -0.1600  0.1723 -0.2783
19681W        W33095   2.233   6.158   2.436 -0.0176  0.0619  0.0304
19682W        W33096   5.282   3.572  14.033 -0.0556 -0.1070 -0.0182
19683W        W33097  15.486  15.510  11.535  0.1650  0.0517 -0.1142
19684W        W33098   7.849  14.112  14.396  0.0631 -0.1064 -0.2172
19685W        W33099  15.171   1.626  15.191  0.1054  0.0192  0.0415
19686W        W33100  18.182  17.335  16.250 -0.1160 -0.3886  0.2285
19687W        W33101   4.821  13.598  15.398 -0.1562 -0.1381 -0.0994
19688W        W33102  14.964  16.638  11.666 -0.0129 -0.1569  0.1153
19689W        W33103  18.505  15.533   0.418 -0.2187 -0.2504 -0.0059
19690W        W33104   3.580  13.976  13.640  0.1100 -0.1182  0.2623
19691W        W33105   1.905  16.589   5.673  0.0402 -0.1700 -0.2574
19692W        W33106   0.844  15.680   2.075  0.0213 -0.2089  0.3023
19693W        W33107   4.314  12.893  12.964 -0.4266  0.0660 -0.1399
19694W        W33108   3.312   1.713   0.254 -0.0125  0.1054  0.0361
19695W        W33109   9.072   1.212   3.977 -0.1213  0.0471 -0.0787
19696W        W33110  12.635   8.313  12.306 -0.1349  0.0492 -0.0190
19697W        W33111   2.843  14.742  15.155 -0.0992 -0.1984 -0.0698
19698W        W33112   7.588  13.750  11.362 -0.3742  0.1872 -0.0061
19699W        W33113  10.567   8.200  13.901 -0.3464 -0.1076 -0.1215
19700W        W33114   7.280   6.218   0.114 -0.0294 -0.0323  0.0104
19701W        W33115   3.806   1.526  11.660  0.0537 -0.0618 -0.1160
19702W        W33116  10.299   6.357   0.312 -0.0493  0.0464  0.0434
19703W        W33117  13.092   2.353   3.393 -0.2337 -0.3354  0.3363
19704W        W33118  12.393   5.628   4.111  0.0751 -0.0146 -0.3293
19705W        W33119  14.496   4.660  12.154  0.1838  0.1350 -0.0031
19706W        W33120  11.476   0.272  15.413  0.1675  0.1707 -0.1720
19707W        W33121   5.994   2.952   0.341 -0.3004  0.2413 -0.1387
19708W        W33122  12.151   1.711   1.375  0.0703  0.1597  0.2141
19709W        W33123   6.859  13.567   9.821 -0.0172 -0.1340 -0.0308
19710W        W33124  10.649   2.104  11.831  0.1348  0.3152  0.2832
19711W        W33125   7.674  10.677   5.500 -0.0784  0.0843  0.0493
19712W        W33126  11.612   8.970   4.357 -0.0109  0.0319  0.1748
19713W        W33127   1.719  13.354  12.468 -0.0353  0.1660  0.0438
19714W        W33128  18.409  12.279  10.561 -0.1829 -0.3738 -0.2119
19715W        W33129   1.934  13.879   1.503  0.2872 -0.2116 -0.1635
19716W        W33130   1.589  18.399  16.056 -0.1726  0.0140 -0.4125
19717W        W33131   4.463   3.774   3.895 -0.1749 -0.3338  0.1423
19718W        W33132   3.272   3.570  12.144  0.2046  0.2378  0.2068
19719W        W33133   6.981  13.632   3.483  0.2012  0.1540  0.0408
19720W        W33134  13.470  12.111  12.459  0.1697  0.1540  0.0216
19721W        W33135  10.382   8.556   5.744 -0.1660  0.1317 -0.0060
19722W        W33136   8.198  11.588  12.622 -0.0470  0.0930  0.0478
19723W        W33137   6.187   9.033   3.939  0.0364  0.2117  0.1347
19724W        W33138   5.593   4.940   0.916 -0.1564  0.0192 -0.1728
19725W        W33139  16.661  10.213  15.254  0.0951 -0.0147 -0.0100
19726W        W33140   2.648   0.833  16.018 -0.0736 -0.3916  0.1088
19727W        W33141   3.894   0.446   2.439 -0.1378  0.0564  0.0434
19728W        W33142   7.913   3.190   4.624  0.3859 -0.2941 -0.1939
19729W        W33143  16.324   3.365  10.181 -0.3658 -0.0467  0.3041
19730W        W33144  13.415   9.791   0.832 -0.1547  0.3048 -0.5098
19731W        W33145  10.408  14.516   4.297 -0.0496 -0.1680 -0.0118
19732W        W33146   2.537   6.334   1.695 -0.0952  0.2237  0.3130
19733W        W33147  18.511   1.296  13.500  0.0717 -0.1472  0.1124
19734W        W33148  14.663   7.825  14.441  0.1505  0.2394 -0.4143
19735W        W33149   0.066  16.274  10.534  0.4945  0.2211 -0.0561
19736W        W33150  13.351  11.565  10.326 -0.2377  0.1232 -0.1753
19737W        W33151  14.744  13.339   5.322 -0.2244  0.0197  0.1596
19738W        W33152   2.662  16.985   0.083 -0.0781  0.3024 -0.0777
19739W        W33153   9.407   0.536  13.042  0.0938  0.0246 -0.2967
19740W        W33154   2.819  12.044  11.215 -0.0893 -0.0440 -0.2140
19741W        W33155  10.735   2.181  15.429 -0.0923  0.2264 -0.0016
19742W        W33156  13.490  11.926   2.688  0.3431 -0.1075 -0.0647
19743W        W33157   2.716  16.273  15.933  0.2543  0.2119 -0.0841
19744W        W33158   8.122   3.587   4.732  0.2589  0.0003 -0.0457
19745W        W33159   8.403  12.769  14.852 -0.1293 -0.2296  0.1508
19746W        W33160   4.857  17.624   4.159 -0.1443  0.4006  0.1855
19747W        W33161   0.794  14.787   0.074 -0.1165  0.1961  0.0135
19748W        W33162   1.909  17.575  11.921 -0.3292 -0.0234  0.0848
19749W        W33163  18.075  15.623  13.633  0.2062  0.1040 -0.2163
19750W        W33164   0.729   4.425  11.460  0.1011  0.2071 -0.1904
19751W        W33165   5.288  14.139   4.534 -0.4070  0.1614  0.3292
19752W        W33166   0.924   1.376   0.598 -0.2652  0.2674  0.1385
19753W        W33167   0.173   7.207   3.229  0.3981  0.3443  0.1049
19754W        W33168   0.174  13.901  14.999  0.3865  0.3219  0.0049
19755W        W33169  15.716   3.831  12.303  0.1527 -0.0533  0.1136
19756W        W33170   2.362   0.487   0.713  0.1469 -0.2336 -0.0946
19757W        W33171  18.438   1.550   4.008  0.1685  0.0879  0.4457
19758W        W33172   5.498   7.180   3.464  0.0132 -0.0466  0.0132
19759W        W33173  17.285  13.527   5.651 -0.1806  0.2777  0.0200
19760W        W33174  13.800   1.630  15.603 -0.2756  0.0597  0.0992
19761W        W33175  13.363   5.007   1.188 -0.2501  0.1948 -0.0202
19762W        W33176   7.351   9.743  11.534 -0.0070 -0.3692 -0.0992
19763W        W33177  14.009  10.146  15.994  0.2431 -0.0540  0.0467
19764W        W33178  10.403  18.414  12.038 -0.1940  0.0061 -0.0402
19765W        W33179   5.451   2.012   4.147 -0.1700 -0.3221 -0.3695
19766W        W33180   6.153  16.031  15.271 -0.0620 -0.2630  0.1693
19767W        W33181  11.730  12.041  11.379  0.1125  0.4434 -0.0480
19768W        W33182  15.266  16.970   1.915  0.0735 -0.1681  0.0687
19769W        W33183   5.603  12.580  10.352  0.1342 -0.3425 -0.2179
19770W        W33184  16.344  18.048  16.000 -0.2184  0.0474  0.0819
19771W        W33185   8.484  18.218  11.793  0.2625 -0.0498  0.1365
19772W        W33186   5.129   8.151   5.824  0.1996  0.0564 -0.1327
19773W        W33187   2.505  17.675   1.685  0.0866 -0.1102  0.2396
19774W        W33188   8.844  17.980   4.090 -0.2641  0.2333 -0.0068
19775W        W33189  10.367  12.309   1.846 -0.0351  0.0381 -0.0580
19776W        W33190   9.134   8.137  13.737 -0.2172  0.1377 -0.1135
19777W        W33191   8.406   1.668   5.096 -0.0868 -0.4329  0.2825
19778W        W33192  14.550  11.509  14.109  0.2977 -0.1185  0.1646
19779W        W33193   6.718   0.001   1.756 -0.0360  0.2974  0.0630
19780W        W33194  11.741   1.714  14.573  0.0480 -0.0081 -0.1423
19781W        W33195  12.307  11.953   3.448  0.1655  0.2446 -0.0526
19782W        W33196   4.094  15.006  13.673 -0.0407  0.0930  0.3548
19783W        W33197   7.152   8.866  15.842  0.1242 -0.2676  0.3200
19784W        W33198   5.381  10.612  15.288 -0.2740 -0.0899  0.0901
19785W        W33199   9.188   2.036  11.956 -0.0182  0.0105 -0.1391
19786W        W33200  18.146  15.070  11.988 -0.1641  0.2212 -0.1703
19787W        W33201   5.055   7.602  10.041 -0.0242  0.1567 -0.0627
19788W        W33202  14.960  18.118  16.187  0.1185  0.0879 -0.3250
19789W        W33203   7.236   4.490  12.181  0.0660 -0.1751  0.1613
19790W        W33204   2.277   0.416   6.194  0.0480  0.0172 -0.1383
19791W        W33205  11.309   7.435  15.753 -0.1046  0.0797 -0.1711
19792W        W33206  12.456  10.550  14.764 -0.0995  0.2004 -0.0295
19793W        W33207   4.974   1.714   1.955 -0.2362  0.0014 -0.2851
19794W        W33208  11.048  12.339  12.756  0.1075  0.0783 -0.0207
19795W        W33209  13.640  10.611   1.953 -0.0502 -0.3019  0.0718
19796W        W33210  13.356   2.283   0.121  0.0595  0.2525 -0.1617
19797W        W33211   5.588   1.905  10.810 -0.2709 -0.2413  0.1653
19798W        W33212  14.131   3.759  10.787  0.1324  0.0443  0.1644
19799W        W33213   6.989   6.310   3.359 -0.0364 -0.1130 -0.0645
19800W        W33214  10.299  15.982   3.181 -0.2380  0.1702 -0.2658
19801W        W33215  18.426  12.128  13.350 -0.2037  0.0326  0.1413
19802W        W33216   7.542   5.802   3.701 -0.0963 -0.1471 -0.3155
19803W        W33217  16.255   7.096  12.997 -0.0305 -0.0132  0.1659
19804W        W33218   7.804   0.960   5.067  0.1969 -0.0856  0.1248
19805W        W33219   2.370  18.343  14.117  0.1381 -0.1525 -0.0619
19806W        W33220   8.857  15.670  12.947  0.2111 -0.3375 -0.1348
19807W        W33221  11.441   2.588   0.876  0.2313  0.3315 -0.2565
19808W        W33222   0.252   9.066   1.402 -0.3974 -0.3764 -0.0130
19809W        W33223   0.420   1.275   1.945 -0.3637 -0.2117  0.1841
19810W        W33224  12.157  15.400   0.664  0.1541 -0.0385 -0.0279
19811W        W33225   0.460   1.927  15.279  0.0770  0.1141 -0.1290
19812W        W33226   7.882  11.593  15.636 -0.1146 -0.2189 -0.2537
19813W        W33227   6.517   9.849   0.801  0.0643 -0.1397 -0.2296
19814W        W33228   3.544  14.838  10.595 -0.1134 -0.1611  0.0509
19815W        W33229   5.593  10.293   1.180  0.2779 -0.2205 -0.2165
19816W        W33230   6.121  17.773  13.055 -0.0192  0.2965  0.3758
19817W        W33231  16.450   6.581  12.996 -0.0133 -0.0889 -0.0294
19818W        W33232  13.891  13.482   3.243 -0.0152 -0.0510  0.1740
19819W        W33233   4.401   1.328   3.565 -0.3074 -0.0962  0.0892
19820W        W33234   2.783   2.562  12.183 -0.0063 -0.1569 -0.1288
19821W        W33235  15.512   5.680   2.937  0.1038  0.0239 -0.1002
19822W        W33236   5.818  10.832  15.019 -0.1991 -0.0775 -0.0958
19823W        W33237  14.503  10.111  14.262 -0.0235  0.0378 -0.0048
19824W        W33238   3.400  16.206   3.353 -0.0663  0.0045  0.2639
19825W        W33239   3.882   0.441  14.148  0.0517  0.6359 -0.2497
19826W        W33240  18.394   8.301   3.589 -0.0909  0.2344  0.3197
19827W        W33241   6.173   8.526   0.686  0.4310 -0.0753  0.0004
19828W        W33242  15.636   8.960  11.654  0.1495 -0.1196 -0.1578
19829W        W33243  17.920  13.134   2.135  0.3344  0.0332 -0.1015
19830W        W33244  13.991  10.484  15.155 -0.1002 -0.0158  0.1743
19831W        W33245  11.031   2.703  12.864  0.1520 -0.0388  0.2182
19832W        W33246  12.346   8.768   2.771  0.3332  0.1330  0.0083
19833W        W33247   0.418   1.324   0.458  0.2989  0.0149  0.0690
19834W        W33248  18.445   6.912   1.618  0.2460  0.1119  0.0377
19835W        W33249   1.429   2.484   1.437 -0.0624  0.1076  0.0121
19836W        W33250  16.283  11.124   1.022 -0.0798  0.1773 -0.0798
19837W        W33251   3.658   2.807  15.433  0.2109  0.0154 -0.0569
19838W        W33252   7.212   5.697  15.216  0.2329 -0.3211 -0.0060
19839W        W33253   0.983   2.007   5.747  0.2617  0.1471 -0.1059
19840W        W33254  12.256   5.846   1.648 -0.1929  0.1568  0.4751
19841W        W33255   9.601   6.560   6.398 -0.1414  0.2988  0.1975
19842W        W33256   8.365   8.668   1.190  0.1838  0.0846  0.1821
19843W        W33257  10.337  11.032   2.358  0.2813 -0.4109 -0.3347
19844W        W33258   2.478  13.033   2.463  0.3717  0.3396  0.0202
19845W        W33259  17.647   5.145  11.440 -0.2818  0.0125  0.4489
19846W        W33260  10.655  14.241  16.204 -0.0896 -0.0862 -0.2883
19847W        W33261  14.031   2.337   1.269  0.3711  0.2495  0.2962
19848W        W33262  11.987   5.647  13.386 -0.2809  0.0104 -0.0727
19849W        W33263  12.782  15.087  15.788  0.1843 -0.2045 -0.1401
19850W        W33264   7.644  18.060   4.228  0.1256  0.1295  0.2229
19851W        W33265   0.769   0.496   6.400  0.0306 -0.0424  0.0667
19852W        W33266  12.746   0.950  14.571 -0.0120 -0.0990 -0.1279
19853W        W33267  12.303   2.686   4.456  0.1833  0.0056 -0.1912
19854W        W33268  11.650   7.824   2.007 -0.0596 -0.0872  0.1939
19855W        W33269  17.887   7.699   5.795  0.4173  0.1518  0.0163
19856W        W33270   3.410  17.641   2.047 -0.0571  0.1444  0.0110
19857W        W33271  10.367   7.469   0.060 -0.1442  0.1850  0.0268
19858W        W33272  11.260   5.211   0.106  0.2390  0.0098  0.0482
19859W        W33273  17.078  15.392   2.635  0.0398 -0.2696  0.0655
19860W        W33274   1.449   4.507  15.353 -0.2562  0.0169 -0.1825
19861W        W33275  15.081   3.152   0.125 -0.0822  0.0743 -0.1841
19862W        W33276  10.525  17.942  16.238 -0.0642  0.1164  0.0965
19863W        W33277  12.047   5.743  15.176 -0.3191 -0.3949 -0.0255
19864W        W33278  17.901   2.997  13.269 -0.0152 -0.0697  0.1867
19865W        W33279   7.993  11.367  10.500 -0.0591  0.2912  0.1642
19866W        W33280  11.581  10.848  13.121  0.0643 -0.0422  0.4704
19867W        W33281  15.542   5.394   3.388 -0.2888 -0.2266  0.1272
19868W        W33282  12.207   0.156   4.630  0.1280 -0.0130 -0.0409
19869W        W33283  12.438  15.359  10.764  0.2367  0.0507 -0.2128
19870W        W33284   9.387   2.492   5.167 -0.1113  0.0906  0.1708
19871W        W33285  18.128  13.096  11.696  0.2168  0.2790  0.1605
19872W        W33286  13.449   9.257   0.752 -0.2271 -0.0421  0.1618
19873W        W33287   8.536  16.407   0.075  0.1452 -0.2044  0.4840
19874W        W33288   2.937   5.125   1.176  0.0491 -0.3610 -0.1929
19875W        W33289   9.665   6.690  13.860  0.0925  0.3992 -0.0700
19876W        W33290  12.530  13.479   2.141  0.1765  0.0143 -0.1998
19877W        W33291  10.163  16.600   0.436  0.0506 -0.2095 -0.1620
19878W        W33292   1.401   8.051   5.416 -0.1400 -0.0604  0.3227
19879W        W33293   6.070   8.237  12.732  0.0743 -0.0093 -0.0556
19880W        W33294  13.794  15.558   0.394  0.0543  0.1080  0.0325
19881W        W33295  12.084  12.460   5.595 -0.1876  0.3033 -0.0789
19882W        W33296   8.263   9.900   4.998 -0.0138 -0.0353  0.0062
19883W        W33297   3.290  17.756   2.479  0.1947  0.2582 -0.0921
19884W        W33298   2.092   7.903   1.467 -0.1891 -0.0992  0.0667
19885W        W33299   1.879   5.152  10.536 -0.0129 -0.0317 -0.0761
19886W        W33300   8.538   1.547   3.050  0.1606 -0.3125 -0.2839
19887W        W33301  12.992   1.803  14.355 -0.4088  0.2092  0.2945
19888W        W33302   1.205   2.328  13.936 -0.0805 -0.0996  0.0530
19889W        W33303   0.172  13.632   1.373 -0.2564  0.0630  0.1567
19890W        W33304   9.809   5.877   1.536  0.0510  0.0453 -0.0955
19891W        W33305  17.035   2.061  15.362 -0.1108  0.2468 -0.2470
19892W        W33306  13.034  13.798   4.957 -0.2753 -0.1707 -0.2352
19893W        W33307  15.312  15.477   4.184 -0.1837 -0.0249  0.0620
19894W        W33308  17.603  17.503  13.513  0.3841 -0.3573 -0.3456
19895W        W33309   3.903   7.396  10.374  0.0621 -0.3021  0.0281
19896W        W33310  16.854   2.206  14.081  0.1895 -0.0389 -0.1348
19897W        W33311  10.302   5.407   2.267 -0.4204 -0.0388 -0.2145
19898W        W33312   7.514  17.758  11.635 -0.0288  0.2282 -0.2371
19899W        W33313  16.773   8.706  14.007 -0.1790 -0.2241  0.3797
19900W        W33314  11.268   0.300   1.885  0.2297 -0.2917 -0.4114
19901W        W33315  12.638  13.967  10.091  0.0405  0.1379 -0.0898
19902W        W33316  13.531   3.987   0.796  0.1533 -0.0652  0.1063
19903W        W33317  15.613   7.701   2.753 -0.1149 -0.2373 -0.1044
19904W        W33318  10.924   3.987  13.832  0.1386  0.0971 -0.0084
19905W        W33319   9.526   3.870  14.738  0.1574 -0.0326 -0.0728
19906W        W33320   7.969   7.010   2.701 -0.0281  0.1007  0.2990
19907W        W33321   2.597   1.702  12.836 -0.2970 -0.0005  0.0289
19908W        W33322   4.938  16.655   5.166 -0.1661  0.0533 -0.2460
19909W        W33323   0.120  12.291  15.620  0.0927  0.2005  0.0418
19910W        W33324   7.947   6.600  12.977 -0.1712 -0.0323 -0.1628
19911W        W33325  12.609  16.858   3.377  0.1976 -0.0886  0.0757
19912W        W33326   5.592   8.088   1.835  0.1396 -0.1803  0.1666
19913W        W33327  14.260   5.196  15.134  0.1184  0.1780  0.0758
19914W        W33328   5.476   3.884   0.419 -0.0963  0.1061 -0.4547
19915W        W33329  12.464   9.104   4.105 -0.0118  0.1516  0.3669
19916W        W33330   0.258  12.692   4.322 -0.1787 -0.0208 -0.1226
19917W        W33331  17.180   8.534  15.669  0.1665  0.0600  0.0109
19918W        W33332  10.753   5.281  13.556 -0.0044 -0.0349  0.1426
19919W        W33333   7.504  10.212   4.654  0.1048 -0.3477  0.0752
19920W        W33334  12.269   4.024   1.987 -0.0450 -0.0226 -0.0659
19921W        W33335  13.788   7.794   2.632  0.0690 -0.1652  0.2025
19922W        W33336  10.576  15.798   0.497  0.3028 -0.1885 -0.0229
19923W        W33337   0.416  11.124   0.159 -0.0562  0.4526  0.0756
19924W        W33338  17.031   5.190  12.664 -0.2051 -0.0494  0.0661
19925W        W33339  11.945   6.677  13.974 -0.1000  0.1618 -0.2434
19926W        W33340   7.065   6.531  13.113 -0.0857  0.0190 -0.0362
19927W        W33341  17.651   5.971  14.704  0.0764 -0.1781 -0.1320
19928W        W33342   9.678  13.504   4.540 -0.3047  0.0806 -0.2305
19929W        W33343   3.917  12.927   5.190  0.1151  0.0492  0.0199
19930W        W33344  16.626  17.917  14.981  0.1096  0.0644  0.0329
19931W        W33345  10.825  11.676   0.432  0.0685  0.2512  0.3737
19932W        W33346   6.052   8.728   1.659  0.0972 -0.4058  0.6191
19933W        W33347  17.434   0.811  13.017 -0.0580  0.1548  0.1829
19934W        W33348  14.749  18.047   4.427 -0.3228 -0.3251 -0.0243
19935W        W33349   2.870   4.375  14.704  0.0200 -0.0228  0.1663
19936W        W33350  13.479   2.110   5.711 -0.3419 -0.1015  0.0790
19937W        W33351   2.454  16.991  11.097 -0.1695 -0.1208 -0.0975
19938W        W33352  12.525   4.518   3.408 -0.0401 -0.1262  0.0553
19939W        W33353  13.895   1.856   4.821 -0.1306 -0.3162  0.0303
19940W        W33354  17.264  13.148   0.678  0.1197  0.0417  0.5734
19941W        W33355   9.413   8.499  14.274 -0.0102 -0.0100 -0.2321
19942W        W33356  17.766   1.124  14.450  0.3064  0.0969 -0.0867
19943W        W33357   9.323  15.256  14.989 -0.0179  0.1777  0.1424
19944W        W33358   9.191  18.167  11.731  0.0007  0.1108  0.1664
19945W        W33359   8.112   2.405  10.929 -0.1173  0.5016 -0.0819
19946W        W33360  10.087   3.486   2.580 -0.2259 -0.0975 -0.1845
19947W        W33361   8.349  17.840  11.364 -0.0668  0.0572  0.0139
19948W        W33362  16.139  12.333   5.794  0.1858 -0.1625 -0.1501
19949W        W33363  10.966   4.464   2.144 -0.1915  0.1795  0.0357
19950W        W33364   8.173   2.996  12.102 -0.0542  0.0694  0.2947
19951W        W33365   9.778  15.812   3.334 -0.0420 -0.3143  0.0500
19952W        W33366   3.279  12.844  13.879  0.2335  0.1756 -0.1974
19953W        W33367  17.588   4.144   1.552  0.0694 -0.1164  0.0316
19954W        W33368   8.589  13.952  12.056  0.0535 -0.1462  0.1374
19955W        W33369  10.285   8.854  15.585  0.2637  0.1443  0.1021
19956W        W33370  14.924   4.245  12.025  0.0494  0.3184  0.0674
19957W        W33371   7.953  16.155  14.754  0.0416  0.3356 -0.3050
19958W        W33372  10.871  16.145   0.152  0.0923  0.0320 -0.1512
19959W        W33373  12.168  13.133   2.209  0.3560  0.0806  0.2323
19960W        W33374   2.062   3.131  16.195  0.0663 -0.2144  0.1731
19961W        W33375   1.098  17.136  12.055 -0.0342 -0.3555 -0.3012
19962W        W33376   8.227   3.721   2.405  0.1749  0.0680 -0.3210
19963W        W33377  10.096   3.187   5.194 -0.0941  0.6241 -0.0420
19964W        W33378  10.129  17.625   0.130 -0.1540 -0.0908  0.0298
19965W        W33379   6.457  12.424   1.304 -0.2632  0.0679  0.0872
19966W        W33380  15.681  11.460  14.938  0.0176 -0.0412  0.1666
19967W        W33381  16.447   6.352   1.402  0.3506  0.0766  0.0812
19968W        W33382  14.604   3.791  12.031 -0.0282  0.0210  0.0557
19969W        W33383  13.259   4.489  16.034 -0.1135 -0.0729 -0.3524
19970W        W33384   6.505   4.017   1.651 -0.1682  0.0975 -0.6934
19971W        W33385   8.039  11.143   2.605 -0.1757 -0.1565 -0.0524
19972W        W33386   1.630  11.713  15.923  0.2019 -0.2444 -0.2266
19973W        W33387   4.704  12.610  16.076  0.1147  0.2010  0.0209
19974W        W33388  10.469  11.750  15.024  0.2571  0.0553 -0.2603
19975W        W33389   4.187   9.702   1.552 -0.0742  0.1767  0.3399
19976W        W33390  14.618   6.071   1.502  0.2607  0.1627  0.0286
19977W        W33391  18.236   5.329  14.537 -0.2450  0.0051  0.0217
19978W        W33392  10.482  10.746  12.514  0.2144 -0.0976 -0.2853
19979W        W33393  13.808  18.520   5.384  0.0304 -0.0888 -0.1920
19980W        W33394  14.570  13.010  14.703  0.0082 -0.0788  0.0258
19981W        W33395   6.649   6.773   5.760  0.2175  0.0604  0.0425
19982W        W33396   1.926   9.031   4.774  0.2498  0.0206  0.0736
19983W        W33397   7.796   2.382   2.015 -0.0436  0.2275 -0.1647
19984W        W33398   1.052   2.397  14.893 -0.0883 -0.0783  0.0163
19985W        W33399  10.921   4.035  15.306  0.2375  0.0968 -0.3242
19986W        W33400   2.361  15.096  14.053 -0.1156 -0.0518  0.0316
19987W        W33401   7.021   3.486   2.607 -0.1887 -0.1812  0.0179
19988W        W33402   1.872   2.087  10.247  0.0683 -0.3148 -0.0885
19989W        W33403  16.466  16.313   5.309 -0.1618 -0.1964  0.2079
19990W        W33404  12.810   5.829   4.310  0.0677  0.0652 -0.0844
19991W        W33405   3.659  13.495   5.321 -0.0148  0.2256  0.3528
19992W        W33406   1.838   6.334   5.195  0.2109  0.0025  0.0673
19993W        W33407   6.443   1.551  14.251  0.2093  0.0745 -0.0949
19994W        W33408   0.750   0.485   2.226 -0.2243 -0.1589 -0.1860
19995W        W33409  13.103  13.499   0.853  0.1410  0.1539  0.0288
19996W        W33410  12.728   6.467  12.815 -0.2209 -0.0169 -0.0250
19997W        W33411  14.220   5.682   1.657  0.0313  0.0258  0.0928
19998W        W33412   4.156  14.350  11.187  0.3777  0.0874 -0.1086
19999W        W33413  14.799   4.709  16.234  0.0471 -0.3057  0.1996
20000W        W33414  12.023   2.996  13.235  0.1148  0.1689  0.0315
20001W        W33415   4.650  14.885   2.229  0.1328 -0.4279  0.3085
20002W        W33416  17.319   9.106  11.657 -0.2084  0.2488  0.0067
20003W        W33417  16.562  11.495   1.458 -0.2815 -0.4857 -0.3844
20004W        W33418  10.047  12.555   2.431 -0.1553 -0.1708 -0.0976
20005W        W33419  11.219  16.157  15.069 -0.1872  0.4072  0.3523
20006W        W33420  14.015   3.456   1.018 -0.0353 -0.1270 -0.1178
20007W        W33421  17.133   6.957   2.157 -0.0433  0.0847 -0.0091
20008W        W33422   8.173  10.822   4.732 -0.0444  0.1353 -0.1283
20009W        W33423   9.845   6.539   4.019  0.0941 -0.2738 -0.0188
20010W        W33424   1.113   6.425  14.511 -0.0864 -0.1148  0.0044
20011W        W33425  12.344  14.177  11.668 -0.0171  0.1513  0.3805
20012W        W33426  17.863   6.864  14.598  0.2517  0.2228 -0.3218
20013W        W33427   5.289  18.168  14.168 -0.1601 -0.1916 -0.5030
20014W        W33428  10.001  17.494   2.373 -0.2404  0.0296 -0.1009
20015W        W33429   1.980   3.982  15.782  0.2234 -0.1723 -0.2323
20016W        W33430  10.136   2.000   3.688 -0.1544 -0.0932  0.0264
20017W        W33431  17.364   2.112  10.927 -0.0751 -0.0262 -0.0588
20018W        W33432  18.466   3.880  10.654 -0.1531  0.1542  0.0514
20019W        W33433   2.314  17.170   5.089 -0.1311  0.1181  0.1009
20020W        W33434   7.968  15.531  11.195 -0.0796 -0.2665 -0.0990
20021W        W33435  13.262   2.426  13.132 -0.3927  0.1584  0.0554
20022W        W33436   7.282  17.092   2.485  0.0176  0.0367 -0.0670
20023W        W33437  10.498   3.696  12.008  0.0965 -0.1298 -0.0047
20024W        W33438  15.235   8.666  11.069  0.0253  0.0759  0.2242
20025W        W33439  10.178   3.053  13.217 -0.1181 -0.1910 -0.2961
20026W        W33440  13.019   1.087   4.245 -0.1477 -0.2285  0.1816
20027W        W33441  13.095   1.537  13.198  0.0080  0.0692 -0.0162
20028W        W33442   5.684  17.508  14.392 -0.1021  0.1386 -0.0729
20029W        W33443   5.283   4.179  12.507  0.2346 -0.1675  0.1397
20030W        W33444   2.239   2.372   0.993 -0.1040 -0.1112 -0.1345
20031W        W33445  18.050  13.580  14.477 -0.0221 -0.2650  0.0694
20032W        W33446   1.086   3.191   4.810  0.0562 -0.1926 -0.2494
20033W        W33447  15.269   1.936  15.570 -0.3853  0.3436  0.1900
20034W        W33448  12.328  10.051  11.211  0.0507  0.0205  0.0641
20035W        W33449  13.863  13.349  15.359  0.2279  0.0817 -0.0102
20036W        W33450  13.433  11.163   1.222 -0.0641  0.1981  0.1749
20037W        W33451   9.537  12.344   4.118 -0.2599 -0.2194  0.0925
20038W        W33452   6.026   1.322  11.523  0.2182 -0.0387  0.2774
20039W        W33453   0.353  16.605  14.288 -0.1691 -0.1343 -0.2200
20040W        W33454   4.653   6.719  10.576  0.0004  0.1134  0.0197
20041W        W33455  12.814   3.186  13.010 -0.0376 -0.0377  0.0753
20042W        W33456  11.714   2.009  11.729 -0.0034 -0.0998 -0.3312
20043W        W33457  17.750   9.062  11.246 -0.0947 -0.1447  0.2059
20044W        W33458   1.195  16.557   0.451  0.1807 -0.2144 -0.1442
20045W        W33459   3.004  15.361   5.590 -0.3935  0.0663  0.3055
20046W        W33460   3.567  12.762  12.267 -0.1137 -0.2739 -0.1170
20047W        W33461   0.258  14.641   4.075  0.4507  0.4557 -0.2870
20048W        W33462   7.734   2.238   6.266  0.1687 -0.1120  0.2495
20049W        W33463   9.016   5.977  15.178  0.5107 -0.1570  0.0184
20050W        W33464   9.445   2.556   4.052  0.1944 -0.0987 -0.1663
20051W        W33465   9.754  11.964   0.179 -0.0249 -0.3546 -0.0364
20052W        W33466   2.681   7.914   0.976  0.1243  0.4144  0.0393
20053W        W33467   5.999  18.501   0.034  0.0065 -0.3911  0.0046
20054W        W33468  16.509  12.585  13.734 -0.2583 -0.0198  0.0237
20055W        W33469  17.624  17.476   5.442 -0.0793 -0.0004  0.3277
20056W        W33470  17.010  13.032   2.203 -0.0315 -0.0489  0.2500
20057W        W33471  18.347   8.414  11.102 -0.1419 -0.2334 -0.0409
20058W        W33472  12.232   9.684  11.719 -0.0829  0.3553  0.4646
20059W        W33473  11.942   5.439   4.299 -0.0709  0.0466 -0.4277
20060W        W33474  11.083  16.854   1.871  0.2865  0.0298 -0.1370
20061W        W33475   9.713   5.256  13.500  0.2217  0.2930  0.3177
20062W        W33476   0.327  15.191  13.565 -0.2515  0.3682  0.0758
20063W        W33477   0.258   9.209  13.531 -0.2811 -0.1019 -0.0624
20064W        W33478  12.937  15.655  11.560  0.2245  0.1104 -0.1584
20065W        W33479  16.174   4.848   0.550 -0.2979 -0.1987 -0.1032
20066W        W33480  17.028  16.966  10.286  0.0478  0.0718 -0.0397
20067W        W33481  14.666  15.447  10.489 -0.0490  0.4101 -0.4327
20068W        W33482   7.895   4.300   0.782  0.1548 -0.0461  0.0709
20069W        W33483  16.670  10.413   0.904  0.1108 -0.0393  0.2459
20070W        W33484   6.074  15.408   2.887 -0.1228  0.0550  0.0604
20071W        W33485  12.443   4.128  13.393  0.0730 -0.1742 -0.1549
20072W        W33486  14.499   5.331   4.262  0.2760 -0.2641  0.0815
20073W        W33487   6.260   7.748   0.470  0.3109  0.1933 -0.2368
20074W        W33488  12.503   9.933   3.704  0.1628  0.0681 -0.4812
20075W        W33489   0.442  15.675  14.875  0.3533  0.0849  0.4621
20076W        W33490  17.354  10.236  14.677  0.2725  0.2031 -0.0350
20077W        W33491  15.744  12.234  11.294 -0.0312 -0.2730 -0.2618
20078W        W33492   7.031  17.390   4.301 -0.1412 -0.1094 -0.0843
20079W        W33493   5.369   7.745   0.630 -0.1379 -0.1894 -0.0515
20080W        W33494   0.780   0.956   2.006  0.2869  0.0490  0.1636
20081W        W33495   0.863  13.868   5.770  0.0348  0.2410  0.4619
20082W        W33496  10.485   0.389  12.054  0.5744 -0.3079 -0.1891
20083W        W33497   1.818  11.408  10.323  0.0558  0.2802 -0.1778
20084W        W33498   5.730   3.058   4.254  0.2578  0.0693  0.0728
20085W        W33499  17.445   9.274   2.092 -0.1055 -0.0445  0.0762
20086W        W33500   1.067  14.589  14.053  0.0718 -0.1283  0.1874
20087W        W33501  13.281  16.399  12.888 -0.0191 -0.0989  0.0191
20088W        W33502   7.252  12.255  14.112 -0.0058  0.0559 -0.2056
20089W        W33503   2.408   6.754   1.996  0.1916  0.0696 -0.0450
20090W        W33504   0.272   4.244   4.945  0.0397 -0.1871 -0.0402
20091W        W33505   9.129   1.179   4.531 -0.1705 -0.1253 -0.0731
20092W        W33506   2.461  16.134   1.896 -0.1222  0.1927 -0.0078
20093W        W33507  15.763  14.046  11.299  0.0557  0.1512  0.1076
20094W        W33508  17.094   6.286  13.925 -0.0848  0.1673  0.1362
20095W        W33509  14.876  17.741  12.340 -0.1136 -0.0812 -0.1330
20096W        W33510   7.737  17.612  12.054 -0.0381 -0.0893 -0.0429
20097W        W33511  16.513  13.779  15.073  0.1579 -0.1904  0.1835
20098W        W33512  16.534  17.293  11.504 -0.0844  0.2324  0.1426
20099W        W33513   9.285   6.103  10.952 -0.2147  0.1577  0.2975
20100W        W33514   8.482   4.372  14.768 -0.0594 -0.0263 -0.0286
20101W        W33515  10.719  12.128  15.172  0.0009  0.0128  0.0499
20102W        W33516  14.484   3.937   3.012  0.0417 -0.3213 -0.2594
20103W        W33517   9.485  17.242  13.143 -0.2329 -0.0962  0.1614
20104W        W33518  10.717   4.418   5.422 -0.0100  0.3390 -0.0562
20105W        W33519  10.869   9.074   1.350  0.0848  0.0541  0.1121
20106W        W33520   8.953   0.558   2.931  0.0153 -0.3523  0.1258
20107W        W33521   1.194   3.282   4.326  0.2537 -0.1846 -0.1063
20108W        W33522   2.427   7.564  13.180 -0.0103 -0.0205 -0.1195
20109W        W33523   0.918   5.197   2.095  0.1698 -0.0630  0.1203
20110W        W33524  15.537   8.256   3.469  0.1705 -0.0942  0.0264
20111W        W33525   9.771  18.205  14.712 -0.0385 -0.0950 -0.0517
20112W        W33526   5.755  14.419   2.532 -0.1052  0.1673  0.0699
20113W        W33527   2.137   4.763   1.140  0.0623  0.0576 -0.1928
20114W        W33528   4.961  15.547  14.469  0.1344 -0.2666 -0.1271
20115W        W33529   4.792   2.075   1.689 -0.3333 -0.3610 -0.2598
20116W        W33530  13.073  12.387   3.456  0.0316  0.0892  0.0396
20117W        W33531   8.483   4.190   3.909 -0.1195 -0.1766  0.2024
20118W        W33532   3.441  14.311  15.621  0.1059 -0.1652 -0.0972
20119W        W33533  15.241   5.806  11.252  0.0253  0.0733  0.1091
20120W        W33534  16.066   6.435  13.297 -0.0966 -0.5091 -0.2691
20121W        W33535  17.017   4.560   5.651  0.1070  0.1060  0.4117
20122W        W33536  11.633   3.351  11.435  0.0609 -0.1102 -0.0595
20123W        W33537   5.780   5.346   2.934  0.2977  0.1679  0.1198
20124W        W33538  13.279   5.688   2.962  0.0101  0.0590 -0.1403
20125W        W33539   5.740  12.486   2.351 -0.1846 -0.2392 -0.1600
20126W        W33540   8.622   5.214  14.918 -0.4136  0.0939 -0.0757
20127W        W33541   4.596   7.496   3.238  0.1181 -0.1218 -0.2092
20128W        W33542  10.619   6.642  13.881  0.1405  0.0024 -0.1507
20129W        W33543   1.516  11.815  11.609 -0.1506 -0.1489 -0.2159
20130W        W33544   8.301   9.542   2.718 -0.0138  0.1922  0.1975
20131W        W33545   0.945  14.997  15.605 -0.3941  0.2239 -0.1178
20132W        W33546   7.515  13.094  12.118 -0.0684  0.1448  0.0551
20133W        W33547   3.064   1.406   4.105  0.1914  0.2066 -0.0241
20134W        W33548  16.363  12.220   3.734  0.1818  0.0617 -0.0741
20135W        W33549  18.502   3.759   1.584  0.0528  0.2316  0.2333
20136W        W33550  15.608   8.976  10.630 -0.1739  0.0618  0.1276
20137W        W33551   5.809  17.709   2.779 -0.2182  0.0439 -0.0177
20138W        W33552   7.818   4.799   2.715  0.1216 -0.0801 -0.1177
20139W        W33553   6.206  13.747   5.267  0.1783  0.1110 -0.1240
20140W        W33554   8.084   4.505   1.233 -0.1268  0.0653 -0.3474
20141W        W33555  16.224  16.684   3.353 -0.0946 -0.1504 -0.1858
20142W        W33556   9.393  13.622  11.966 -0.1889  0.0104 -0.2800
20143W        W33557   2.037   5.553  12.133 -0.2195  0.0055 -0.1479
20144W        W33558   7.855  14.626  12.230  0.3511 -0.0827  0.1106
20145W        W33559   8.393   4.719  14.228  0.1476 -0.2787 -0.0650
20146W        W33560   0.449  10.181  13.616 -0.0301 -0.1430  0.0014
20147W        W33561  11.255   8.803  15.941 -0.0586  0.1601  0.0410
20148W        W33562  10.923  13.370   2.567  0.1564  0.3043 -0.0680
20149W        W33563   6.350   5.671   2.073  0.1003  0.1227  0.0690
20150W        W33564  17.363   6.950  12.055 -0.0245  0.1143  0.0639
20151W        W33565  14.789  18.186   3.987 -0.5108  0.1394  0.3813
20152W        W33566  16.997   2.105  13.246 -0.0411 -0.0294 -0.1364
20153W        W33567   6.472   6.843  12.415 -0.1036  0.0867 -0.1369
20154W        W33568  18.381   6.719  14.551 -0.2017 -0.0273  0.1329
20155W        W33569   6.892   0.031   4.104 -0.1712 -0.0236  0.0830
20156W        W33570   4.617  10.905   4.904 -0.0946 -0.1717  0.2508
20157W        W33571  12.679   1.593   3.140 -0.2498 -0.0466  0.0582
20158W        W33572   0.905  15.022  12.033 -0.1828  0.1732  0.1922
20159W        W33573   1.764  16.931   0.139 -0.0176  0.0599 -0.2120
20160W        W33574   4.422   7.611  14.512  0.1018  0.2101  0.1152
20161W        W33575  12.053  14.717   6.002  0.0850  0.0697  0.0401
20162W        W33576   2.097  15.234  14.903  0.0811 -0.0332 -0.0164
20163W        W33577  17.165   7.433   1.737 -0.2799  0.0468 -0.0001
20164W        W33578   9.031   1.265  12.014  0.0115  0.1762 -0.3951
20165W        W33579  12.970  16.257   5.633  0.1568 -0.0418  0.0032
20166W        W33580   9.837   5.227   3.726  0.1860 -0.0934  0.2427
20167W        W33581   1.774  10.205  13.211 -0.1847  0.0096  0.1327
20168W        W33582   4.225   4.891   5.087 -0.0631 -0.0272 -0.1204
20169W        W33583  11.904   9.799  11.228 -0.3194 -0.1560  0.5854
20170W        W33584  16.154   9.942  13.166 -0.3641  0.2313 -0.1650
20171W        W33585   4.540   9.990  14.196 -0.3089 -0.0071 -0.3278
20172W        W33586  14.439  17.871   3.336  0.3548 -0.0644 -0.2808
20173W        W33587   4.489  14.812  12.332 -0.1141  0.2425 -0.0362
20174W        W33588   1.227  10.103   5.588 -0.0983 -0.2912 -0.0390
20175W        W33589   8.936  18.359  15.568  0.1049 -0.2247 -0.2866
20176W        W33590  14.604   4.614   5.748  0.1639  0.2276 -0.2083
20177W        W33591   1.646  17.120   0.978 -0.0109 -0.1556  0.0540
20178W        W33592  13.515   3.152   2.830  0.0699  0.0250  0.0871
20179W        W33593  12.060   0.423  11.802  0.1651 -0.1395  0.0327
20180W        W33594   9.687   8.126  13.321  0.0231 -0.3061  0.2794
20181W        W33595  12.609   2.090  11.464  0.1692 -0.4373  0.0853
20182W        W33596  12.160  12.616  10.884  0.0252  0.0948  0.1674
20183W        W33597  14.990   0.877   2.968  0.0417 -0.0615  0.0317
20184W        W33598   2.964  13.517   4.471 -0.2012  0.2010  0.3799
20185W        W33599  14.684   6.613  12.967 -0.2109  0.3482 -0.3478
20186W        W33600   7.919   9.407   0.976 -0.0850 -0.0186 -0.0728
20187W        W33601  11.805   3.778   3.419  0.0411 -0.0349 -0.0015
20188W        W33602   0.105   4.311   1.520 -0.1626 -0.0111 -0.0133
20189W        W33603  16.510   3.764  12.887 -0.2333 -0.0975 -0.0223
20190W        W33604  13.855  12.910  13.098  0.1656  0.1582 -0.3471
20191W        W33605  16.223  11.801   4.649  0.4595 -0.0664  0.0047
20192W        W33606   5.975   2.617   3.743 -0.1225 -0.0754  0.0053
20193W        W33607  15.353   2.607   5.457 -0.4074  0.1567  0.0065
20194W        W33608  16.579  13.131   5.213  0.0234  0.1141 -0.0371
20195W        W33609  16.753  15.581  11.976  0.1018 -0.0132  0.2505
20196W        W33610   9.599   0.489   5.554 -0.0810 -0.1694  0.6786
20197W        W33611  17.375   5.982   2.824 -0.2549  0.1874  0.0988
20198W        W33612  10.123   1.409  15.351  0.0559 -0.0533 -0.1906
20199W        W33613  15.266  12.461   1.054  0.2189  0.1932 -0.0237
20200W        W33614  16.398  10.996   5.334 -0.1240  0.0002 -0.2827
20201W        W33615   1.003   1.337  12.142 -0.1131 -0.0635 -0.2734
20202W        W33616  16.856   8.339  11.952 -0.2764  0.0897 -0.0048
20203W        W33617  10.353   4.029   2.018  0.3757 -0.1202 -0.1710
20204W        W33618  11.378  14.016  12.476 -0.1128 -0.1679 -0.0815
20205W        W33619   0.089  13.049   0.457  0.2353  0.4381 -0.2514
20206W        W33620  10.542  14.244  11.005  0.2482 -0.4286 -0.0367
20207W        W33621   2.519   6.439   0.629 -0.1363 -0.0178  0.1397
20208W        W33622   4.875  12.901   0.901  0.0476 -0.2223 -0.0719
20209W        W33623  17.895   6.812   3.301 -0.2168 -0.1592 -0.3942
20210W        W33624  14.462  10.974   4.514 -0.0267 -0.1877  0.1831
20211W        W33625   1.513   0.035   2.670 -0.0321 -0.1056  0.3484
20212W        W33626  18.203   2.884   1.000  0.0489  0.3455 -0.0657
20213W        W33627  10.224   2.025  15.384 -0.0899 -0.1573  0.0675
20214W        W33628   5.522   4.226   2.810 -0.1419  0.0721 -0.0343
20215W        W33629  12.054   9.621  16.059  0.2023 -0.1891 -0.1201
20216W        W33630  15.269  10.049   5.098  0.2737  0.1253  0.0624
20217W        W33631  17.109  15.650  13.735 -0.0422 -0.1588 -0.1066
20218W        W33632   2.260   6.438   4.895  0.1142  0.3432  0.0236
20219W        W33633  17.088  16.328  15.464  0.4392  0.2101  0.0354
20220W        W33634   1.489   4.913   1.019 -0.2122  0.0196  0.1737
20221W        W33635   3.823  12.676  13.055  0.1146 -0.1324  0.2918
20222W        W33636  17.157   1.201   1.341  0.0274  0.1473 -0.0695
20223W        W33637   6.763   3.213  14.919  0.0365 -0.1352 -0.1885
20224W        W33638   1.589   9.369  12.642 -0.2326 -0.1516 -0.4796
20225W        W33639   8.218   2.783   5.486  0.3890  0.2006  0.2482
20226W        W33640  17.023  10.687   1.542  0.0643 -0.2721 -0.1340
20227W        W33641   8.966   3.169  11.094  0.2657 -0.0306  0.1635
20228W        W33642  18.262  11.333   3.299 -0.0099  0.3010  0.1666
20229W        W33643  15.341  18.183   2.710 -0.0493  0.0615  0.0028
20230W        W33644  12.163   8.518  15.997  0.1530  0.1069 -0.1393
20231W        W33645   8.342   2.401  12.005  0.2207 -0.2360  0.1119
20232W        W33646  13.704  16.515  10.901 -0.0183  0.1053  0.1786
20233W        W33647   2.590  17.099   2.462  0.1721 -0.0548 -0.1144
20234W        W33648   7.203  16.438   1.704 -0.1636  0.1625  0.1079
20235W        W33649  11.947   5.151   4.724 -0.1006  0.3655 -0.4616
20236W        W33650   9.191   3.569  11.366  0.1517  0.1953  0.0033
20237W        W33651  17.723   7.536   5.115 -0.1724 -0.1432  0.0597
20238W        W33652   1.553   3.128  16.067 -0.0196  0.1861 -0.0621
20239W        W33653  13.539  17.023   1.247  0.1137 -0.1230  0.1130
20240W        W33654   1.276  10.404   4.385 -0.1807 -0.1503  0.2997
20241W        W33655  18.374  11.506  11.792 -0.0102  0.0822 -0.1673
20242W        W33656   5.359  15.232  12.865 -0.0679  0.0279  0.1333
20243W        W33657  11.065   1.318  12.249 -0.2676  0.2356  0.1859
20244W        W33658  17.156  15.007   0.743 -0.1687  0.1370  0.1973
20245W        W33659   4.693   4.923  13.753 -0.0974  0.1690  0.0935
20246W        W33660  15.587   9.970   3.077  0.2811 -0.1388  0.0731
20247W        W33661   7.988  17.966   9.898  0.4904  0.1215  0.0164
20248W        W33662  17.677   3.797  16.007 -0.0037 -0.1325  0.1393
20249W        W33663   8.934   3.913   4.383  0.0981 -0.0134  0.0754
20250W        W33664  16.610  14.043  14.321  0.1005 -0.2091  0.1277
20251W        W33665   3.174   5.440  15.402  0.0448 -0.2932 -0.0703
20252W        W33666  12.502   4.474  12.174  0.2960 -0.2994 -0.1495
20253W        W33667   0.804   4.460  15.563  0.0301 -0.0115  0.0669
20254W        W33668  16.065   4.104   4.097  0.2234 -0.1664  0.0645
20255W        W33669  13.730   5.075  10.604  0.1462  0.0302 -0.2985
20256W        W33670  15.071  11.415   1.878  0.0638  0.1713  0.2454
20257W        W33671   9.839  18.383   2.405  0.0671 -0.1847 -0.3380
20258W        W33672   8.816  17.180  15.279  0.1490  0.2711 -0.0289
20259W        W33673   2.810   4.892  14.257  0.1876  0.2077  0.0635
20260W        W33674  17.767   7.372  12.385  0.3267  0.1394  0.3625
20261W        W33675   7.386   1.855   0.610 -0.1416 -0.0386 -0.1216
20262W        W33676   6.218   8.526  14.613 -0.2258  0.1228 -0.2445
20263W        W33677   4.992   7.384  11.464 -0.1017 -0.3262  0.1503
20264W        W33678   5.894   9.860  11.650 -0.0141  0.0761 -0.0478
20265W        W33679   2.966  14.959   0.841 -0.0864  0.0666  0.1876
20266W        W33680  10.600   3.401   0.430 -0.1347  0.0075 -0.3082
20267W        W33681  17.914  17.058  13.731 -0.2255 -0.1121  0.2419
20268W        W33682   1.265   4.379  15.876  0.1969 -0.1957 -0.2219
20269W        W33683   4.019   3.671  11.438  0.0086 -0.0925 -0.0476
20270W        W33684  12.417  12.246   4.298  0.1736  0.0894  0.2068
20271W        W33685   3.441   4.388   2.515 -0.3267 -0.1408 -0.2614
20272W        W33686  10.422   6.288   0.934 -0.0571 -0.0858  0.1803
20273W        W33687   1.935  17.749   0.534  0.3145 -0.2751  0.0695
20274W        W33688  11.827  14.739   1.132 -0.0202 -0.0501  0.0160
20275W        W33689   4.656  11.759   2.852 -0.0260  0.1768  0.1395
20276W        W33690   4.986   5.778   4.551  0.3852 -0.3226  0.0715
20277W        W33691   8.742  14.664  10.282 -0.2040  0.2988  0.1796
20278W        W33692  18.461   8.757   1.643 -0.2296  0.0248 -0.3338
20279W        W33693  17.313   4.643  13.532 -0.0953 -0.0079  0.2022
20280W        W33694   5.489  12.797   4.371  0.1128 -0.0824  0.0318
20281W        W33695   0.628  12.278  12.489  0.2977  0.1737 -0.0333
20282W        W33696   8.158  15.060   3.167 -0.0013 -0.0108  0.1481
20283W        W33697   8.482   9.303  12.211 -0.1633 -0.0742  0.1675
20284W        W33698   1.705  14.493  10.266  0.1300 -0.0195 -0.1330
20285W        W33699  11.865   2.942   5.378 -0.0603  0.0732 -0.3864
20286W        W33700  15.676   2.045   0.665 -0.2682 -0.3981  0.0975
20287W        W33701   0.270  16.285   3.485  0.4352  0.0580 -0.1482
20288W        W33702   5.173  17.104  12.319 -0.0932 -0.0625 -0.1836
20289W        W33703   1.114   4.272  14.111  0.4336 -0.1424  0.0637
20290W        W33704   0.776   6.967  13.053  0.2509 -0.0689  0.0963
20291W        W33705   8.204   0.583  11.762 -0.1097 -0.1319  0.0958
20292W        W33706   5.946  17.988   4.509 -0.1873  0.2691 -0.0649
20293W        W33707   2.485  11.731   4.410  0.0535  0.2891 -0.0528
20294W        W33708  15.866   7.217   0.254  0.1505  0.3020  0.0502
20295W        W33709   6.312  18.093   5.271  0.1520 -0.1417  0.0067
20296W        W33710  18.280  16.027  11.564  0.0598 -0.0496 -0.1011
20297W        W33711   6.981   4.325   5.067 -0.1407  0.1775  0.0782
20298W        W33712  11.596   6.830  12.511 -0.2655  0.1342 -0.3108
20299W        W33713  16.059   2.051  10.668  0.1905  0.0372 -0.1286
20300W        W33714  15.819   7.044  14.284  0.0577 -0.1586 -0.2784
20301W        W33715  15.278  12.045  14.546 -0.0419  0.3407  0.3408
20302W        W33716   5.499  15.259  10.925 -0.0185 -0.0747 -0.0561
20303W        W33717   7.801  11.151  11.295  0.0252 -0.0654  0.2844
20304W        W33718   5.427   8.921  14.927 -0.1143 -0.0476 -0.0176
20305W        W33719   5.838  10.008   2.998  0.1398 -0.3198  0.0257
20306W        W33720  11.078   7.657  14.577 -0.2818 -0.0010  0.0843
20307W        W33721   4.873  17.494  10.983 -0.1827  0.1727  0.4576
20308W        W33722  13.407  14.194  12.817  0.1082 -0.2690 -0.0349
20309W        W33723  12.965  16.597  13.231  0.0584  0.1054 -0.1462
20310W        W33724   7.056   9.600   5.315 -0.1239  0.4140  0.0703
20311W        W33725   7.757   2.629  13.592 -0.0866  0.0520  0.2048
20312W        W33726   8.905   8.433  15.546 -0.2638  0.2742 -0.1880
20313W        W33727  17.166   0.138  10.521  0.0584  0.1147 -0.2642
20314W        W33728  16.906   2.650   3.929  0.0894 -0.0073  0.1236
20315W        W33729  10.968   4.905   2.398 -0.0134  0.1224 -0.1419
20316W        W33730   7.301   6.831   0.145 -0.0452 -0.1226 -0.5295
20317W        W33731  17.670  14.490  13.680  0.2065 -0.0681 -0.3821
20318W        W33732  13.844  11.640   4.621  0.1938  0.1656  0.1472
20319W        W33733  14.410  16.577   2.920 -0.0211 -0.1189  0.0919
20320W        W33734   1.967  15.949   9.933  0.2096  0.1903  0.3530
20321W        W33735   8.580   3.237   2.966 -0.0637 -0.1576  0.0890
20322W        W33736   6.071   0.627   3.305  0.0700  0.1912  0.0707
20323W        W33737  15.731   3.027   4.101 -0.0166  0.3002 -0.2934
20324W        W33738   0.938   8.441   4.926 -0.1369 -0.2739 -0.0300
20325W        W33739  16.121  12.603   1.835 -0.0555  0.0177  0.0507
20326W        W33740   2.295   2.390  11.783  0.2118  0.3581 -0.0479
20327W        W33741   4.637  12.021  12.587 -0.1732 -0.2275 -0.0880
20328W        W33742   1.616  11.905   0.407 -0.1164  0.0640 -0.0776
20329W        W33743   9.953  17.891   5.955 -0.2680 -0.1814  0.3036
20330W        W33744  10.509  15.397  15.987  0.2113 -0.1031 -0.0143
20331W        W33745   6.845   7.108   2.994  0.0084  0.0461 -0.0760
20332W        W33746   2.708  11.125   1.504 -0.2680 -0.3186 -0.1255
20333W        W33747   1.605  11.531  11.081  0.3348 -0.3274  0.3133
20334W        W33748   4.327   7.833  11.316 -0.1546  0.0748 -0.0644
20335W        W33749  18.291  10.773  14.208  0.0967  0.0732  0.2494
20336W        W33750  17.600   1.275  11.347 -0.0885  0.0634  0.1039
20337W        W33751  15.302   2.185   1.123 -0.0750 -0.0869  0.1692
20338W        W33752   2.436   7.446   6.143 -0.2786 -0.1926 -0.2387
20339W        W33753  13.363   2.654   0.503 -0.2570 -0.0036  0.0004
20340W        W33754  17.738   1.465  15.477 -0.0207  0.2824 -0.0940
20341W        W33755  12.942  14.602   5.422  0.1053 -0.0710  0.0272
20342W        W33756  11.248   6.769   1.596  0.2502  0.0292  0.0030
20343W        W33757   1.889   1.711  10.654  0.0987 -0.2404  0.4916
20344W        W33758  17.694  13.150  13.788  0.1881 -0.1024 -0.1624
20345W        W33759   1.886  12.730   5.873  0.0753  0.1738  0.0950
20346W        W33760   3.348  17.039   5.877 -0.0009  0.0939  0.1102
20347W        W33761   9.780   2.206  14.188 -0.0368 -0.3262  0.0873
20348W        W33762  11.948  15.794  12.976  0.3536 -0.0022  0.3564
20349W        W33763   0.491  17.670  15.873  0.3238 -0.0043 -0.0627
20350W        W33764   3.832  11.274  13.148 -0.1351 -0.2539 -0.1278
20351W        W33765  16.804   3.226   4.666  0.0792  0.2451 -0.0824
20352W        W33766   6.488   0.046  14.345 -0.0349 -0.1347 -0.4773
20353W        W33767   1.342  15.557   5.263 -0.2668 -0.3484 -0.0452
20354W        W33768   4.174   7.272   3.382  0.2718  0.1636  0.1653
20355W        W33769   8.799  15.801   6.036 -0.0371  0.4015 -0.0951
20356W        W33770   9.760  15.274   1.662  0.2306  0.0960 -0.2047
20357W        W33771  18.452   7.781   4.343 -0.2922 -0.0751  0.1020
20358W        W33772  12.359  14.783  13.496  0.0566  0.0656 -0.0874
20359W        W33773   3.936   4.014   4.683 -0.1533 -0.1090  0.4581
20360W        W33774  13.286  17.050  11.802  0.2148  0.0955 -0.0045
20361W        W33775   5.541   3.390  13.290 -0.0117  0.1240 -0.0172
20362W        W33776  12.374  17.060   3.769 -0.1497  0.3356  0.1119
20363W        W33777   2.022   3.866  12.131  0.0598 -0.0429 -0.2493
20364W        W33778   1.170   9.323   4.983 -0.2499  0.3018  0.1991
20365W        W33779   9.173  12.682  10.252  0.1854  0.1286  0.0203
20366W        W33780   7.392   4.521   2.492 -0.2175  0.1325  0.2394
20367W        W33781  17.572  14.369   5.419 -0.0191  0.1541 -0.1879
20368W        W33782   7.354   6.890   6.505 -0.1614  0.2878 -0.2306
20369W        W33783   4.670  15.699  11.127  0.2717 -0.2935  0.2439
20370W        W33784  13.780   4.531  16.262 -0.0075 -0.1257  0.2573
20371W        W33785  16.320  15.671  12.245 -0.0951 -0.0119 -0.1374
20372W        W33786   8.576   9.543  11.794 -0.0987  0.3078 -0.0412
20373W        W33787   9.490   0.504  14.757 -0.1150  0.1068 -0.1956
20374W        W33788   2.280  15.501  11.870 -0.0816 -0.1930  0.0387
20375W        W33789   1.678  10.489   9.952  0.0229 -0.2840 -0.0926
20376W        W33790  17.281   5.881  13.665 -0.0863 -0.0818  0.2524
20377W        W33791   5.323   7.120   2.087  0.3373 -0.1131  0.0152
20378W        W33792  11.022  17.779  11.860 -0.1018  0.0257 -0.1127
20379W        W33793  12.580  15.669   0.408  0.0624  0.0437 -0.1120
20380W        W33794  15.724  12.936  13.570 -0.1250  0.3238 -0.0166
20381W        W33795   9.598  11.018   0.568  0.3976 -0.0343 -0.2620
20382W        W33796   2.570  15.569  14.600  0.0783 -0.0243 -0.3648
20383W        W33797   3.033   1.296  14.308  0.1316 -0.0989 -0.1011
20384W        W33798  15.380   0.528   3.118  0.2161 -0.4239  0.1748
20385W        W33799  11.909   4.481   4.642  0.0228 -0.0653  0.0166
20386W        W33800   3.338   0.167  16.130 -0.0764 -0.1078  0.1451
20387W        W33801   4.944   5.073  11.165 -0.1395  0.5124  0.0661
20388W        W33802   7.863  16.171   0.595 -0.0301 -0.1153 -0.0557
20389W        W33803  13.703  13.277  14.272  0.0028  0.2499 -0.1294
20390W        W33804   5.076   8.479  11.637 -0.4594  0.3263  0.0462
20391W        W33805   8.307  14.912  11.089  0.0562  0.0802 -0.4569
20392W        W33806  11.316  15.953   0.097  0.0412  0.4992 -0.0182
20393W        W33807   1.016  11.981  12.322 -0.0125 -0.4053 -0.0119
20394W        W33808   3.939   3.492  14.167  0.1466  0.1491 -0.0914
20395W        W33809   7.030  12.676   2.559  0.0492  0.2346  0.3233
20396W        W33810   1.517   8.659  11.483  0.1166  0.0990  0.2372
20397W        W33811   8.238   9.235  13.798  0.2327  0.1320 -0.0539
20398W        W33812   3.414  15.148   5.830  0.0982  0.2898  0.0366
20399W        W33813  14.884   5.994   3.630  0.2104 -0.2525  0.3488
20400W        W33814   4.892  16.160  11.232  0.1386  0.0893  0.2346
20401W        W33815  10.848   2.533   3.544  0.2522 -0.2118 -0.0064
20402W        W33816  14.524  12.708  11.290 -0.2207  0.1969 -0.0215
20403W        W33817   0.268  15.586  15.314 -0.0017 -0.1143  0.1296
20404W        W33818  12.762   9.200  13.966  0.0391  0.0050  0.0652
20405W        W33819  13.555   8.294  10.888 -0.0659 -0.2173  0.1049
20406W        W33820  17.596  14.970   2.540 -0.0939  0.0515 -0.1110
20407W        W33821   5.866  13.163  10.997 -0.0111 -0.1576 -0.0449
20408W        W33822   4.395   2.577  16.010 -0.1694  0.0594 -0.0731
20409W        W33823  11.160  15.662  11.083 -0.1882 -0.0222  0.0971
20410W        W33824  12.571  18.341  10.707  0.2509  0.1476 -0.2171
20411W        W33825   1.873   4.532   6.298 -0.0439 -0.2160  0.3982
20412W        W33826  10.352  10.759   4.674 -0.0082  0.3386  0.0153
20413W        W33827   1.132  10.265  10.718  0.0736  0.2191  0.2270
20414W        W33828  17.098   5.785  15.409  0.0846  0.0474 -0.0537
20415W        W33829   2.590   1.657   0.321  0.0481 -0.0564 -0.2390
20416W        W33830  13.499   4.027   1.427  0.2870 -0.2702 -0.0536
20417W        W33831   2.811  10.595  13.382 -0.2310 -0.0368 -0.1491
20418W        W33832   9.112  13.672  14.435 -0.3878 -0.3327 -0.0308
20419W        W33833   9.994   9.891   1.731  0.2036 -0.2278  0.0685
20420W        W33834  17.924  15.126   2.883  0.1175 -0.2970  0.0047
20421W        W33835  13.092  13.119  12.393  0.0595  0.1207  0.1135
20422W        W33836  11.606   3.823  13.243 -0.0406  0.2007 -0.2834
20423W        W33837   3.243   0.999   3.083 -0.0527 -0.0731 -0.0479
20424W        W33838   2.983   7.968  11.931  0.0465  0.3609  0.2066
20425W        W33839   4.967  14.604  12.221  0.1854 -0.1773 -0.1750
20426W        W33840   7.326  16.302   3.844  0.1688  0.0508 -0.2917
20427W        W33841  17.573   0.322  12.348  0.1963  0.3191 -0.1684
20428W        W33842  14.523   9.075  15.435 -0.0964 -0.2112  0.2471
20429W        W33843   5.469  17.652   1.986 -0.1141  0.2816 -0.1012
20430W        W33844   5.496   1.177   2.546  0.2075  0.1984  0.4199
20431W        W33845   7.012   6.341   4.182 -0.2097  0.1364 -0.3080
20432W        W33846  16.628  11.753  16.064 -0.2706  0.0315  0.4877
20433W        W33847  18.510   5.581   3.354  0.0920  0.2198 -0.0616
20434W        W33848  14.661  12.048   2.252  0.0381 -0.4417 -0.1261
20435W        W33849   3.482  13.234  10.670 -0.0948 -0.3874  0.1760
20436W        W33850  13.778  14.619   2.458 -0.1307  0.0748 -0.1594
20437W        W33851  18.453  15.186   2.929 -0.0099 -0.2788  0.1545
20438W        W33852  13.341   9.508   4.054 -0.2278  0.0287 -0.3973
20439W        W33853   5.283  16.729  14.479  0.1472 -0.1656  0.2093
20440W        W33854   8.611  17.648  13.146  0.0722 -0.2759  0.0633
20441W        W33855   6.081   9.564   2.691  0.1268 -0.1123  0.1093
20442W        W33856  12.159  16.269  13.237 -0.0702  0.2765 -0.0907
20443W        W33857  16.786  13.286  10.694  0.0731  0.1253  0.1010
20444W        W33858  17.940   9.163  12.314  0.0129 -0.0524 -0.0408
20445W        W33859   8.694   6.452  12.917 -0.0227  0.3394 -0.0506
20446W        W33860   8.761   3.926  14.587  0.2313  0.1756  0.2839
20447W        W33861  10.044   3.981  12.166 -0.0126 -0.3496 -0.0979
20448W        W33862   3.144  17.890   2.948  0.0549 -0.3453  0.0601
20449W        W33863  18.026  12.438  13.367 -0.0709  0.0633 -0.1519
20450W        W33864  17.500   5.026   4.939  0.2218 -0.3961  0.0934
20451W        W33865  18.384  14.221   4.828 -0.0655  0.0556  0.1379
20452W        W33866   4.247  14.715   3.700  0.1649  0.0227  0.2364
20453W        W33867  11.713   5.816   5.869  0.3577  0.0154  0.0693
20454W        W33868   9.945   9.466   5.002  0.1206 -0.2239 -0.0173
20455W        W33869   7.896   3.191   3.747  0.0758 -0.1544 -0.1430
20456W        W33870   3.610  12.328  10.966 -0.4281  0.1393  0.0300
20457W        W33871   6.692  13.844   4.003 -0.0364 -0.0800  0.0646
20458W        W33872  16.187   9.557   2.523  0.1823  0.0428  0.1135
20459W        W33873  17.222   6.739  13.746 -0.1151 -0.0723  0.1162
20460W        W33874   2.462  13.755   3.474  0.0408  0.0033  0.0877
20461W        W33875  16.028   1.013   3.479 -0.1951 -0.1726 -0.0242
20462W        W33876  12.838   4.149  13.893 -0.2058  0.2558 -0.2356
20463W        W33877  18.497  14.709   0.875 -0.2408  0.0698  0.2658
20464W        W33878   9.356   3.054   2.694 -0.1418  0.0103 -0.1237
20465W        W33879   1.122   2.679   3.772 -0.0243 -0.1468 -0.2395
20466W        W33880  16.195  17.843   2.711  0.3009  0.2074 -0.0272
20467W        W33881   5.728   3.181  15.331  0.0988  0.0241 -0.3124
20468W        W33882   9.688   8.021  15.694  0.2546  0.0311  0.3841
20469W        W33883   4.962  12.481  12.536  0.0328  0.2109 -0.2036
20470W        W33884  13.768   7.577   1.166  0.0586 -0.1785  0.0901
20471W        W33885   8.712   5.841  16.216  0.4001  0.2386 -0.3638
20472W        W33886  11.883  14.899  13.643 -0.2753 -0.1909 -0.0662
20473W        W33887  13.902   7.403  11.142 -0.0396 -0.1492 -0.0140
20474W        W33888  14.867   8.482  10.779  0.2460 -0.3589  0.1761
20475W        W33889   3.687   2.261   1.097  0.1019  0.1812 -0.4128
20476W        W33890   7.651  11.314   2.321  0.1328 -0.2465 -0.2738
20477W        W33891  14.330  12.034  16.188 -0.4292  0.0834 -0.0995
20478W        W33892   3.207   2.246   5.441  0.2178  0.2023  0.0798
20479W        W33893  17.521  18.220   1.186 -0.3411  0.2068  0.0469
20480W        W33894  14.382  17.902   1.129  0.3229  0.0206  0.0493
20481W        W33895   0.975   0.204   3.267 -0.0790 -0.1015 -0.0516
20482W        W33896   8.017   6.576  12.481 -0.1333 -0.2209  0.1802
20483W        W33897  15.123   7.897  13.485 -0.0411  0.2225 -0.1168
20484W        W33898   9.589   9.243   1.935 -0.1242 -0.1075 -0.0606
20485W        W33899   9.980  14.305   5.223  0.0038  0.3701 -0.0267
20486W        W33900  12.430  12.423  14.348  0.1066 -0.2484  0.2230
20487W        W33901   1.157   5.059   1.352  0.0055 -0.2784 -0.1162
20488W        W33902   8.770  17.649  11.126 -0.2393  0.2925 -0.0735
20489W        W33903  10.889  13.200   3.685 -0.4457 -0.0337 -0.1068
20490W        W33904   6.386  14.414  16.194  0.2368  0.2101 -0.0576
20491W        W33905  18.373   3.738  14.096 -0.0559 -0.1663  0.0921
20492W        W33906   2.077  17.651   3.762 -0.0776  0.1529 -0.3840
20493W        W33907  10.241  14.254  14.744  0.1634  0.0040  0.1984
20494W        W33908   1.710   8.181   5.058 -0.0048 -0.0222  0.0619
20495W        W33909  17.097  15.171  12.086  0.0314 -0.0761 -0.0036
20496W        W33910   5.285   1.555   1.483  0.0974 -0.0534  0.0005
20497W        W33911   3.200   0.285  14.408  0.0302  0.0486 -0.3475
20498W        W33912   7.064   3.611   0.067 -0.3806  0.0918  0.3272
20499W        W33913  12.229   8.203   5.370  0.1569 -0.1743  0.1722
20500W        W33914  11.383   0.318   0.920 -0.1492 -0.1086  0.0586
20501W        W33915   1.868  16.671   0.912  0.0360  0.1742  0.1541
20502W        W33916  14.189   1.866   1.731 -0.2123 -0.0845 -0.0539
20503W        W33917   9.571   0.189  15.571 -0.1647  0.0539 -0.2414
20504W        W33918   3.426   8.272   2.292  0.1586  0.0501 -0.1079
20505W        W33919   3.866   8.700  12.913 -0.1586 -0.0224 -0.0026
20506W        W33920   2.279  14.659   0.579 -0.0296 -0.0128 -0.0254
20507W        W33921  14.198   5.231   5.043 -0.0653  0.1465  0.2017
20508W        W33922   5.081  14.873   0.617  0.0732 -0.1020 -0.0586
20509W        W33923   2.501  14.426   4.552  0.0319 -0.2327 -0.0043
20510W        W33924  17.930   0.904  11.134 -0.0164 -0.3693 -0.0357
20511W        W33925   5.980   0.662  13.693 -0.2964  0.0086 -0.0014
20512W        W33926  15.046  14.258  14.774 -0.0829 -0.0395  0.1867
20513W        W33927  15.634  16.632   3.198 -0.0360  0.3524  0.0597
20514W        W33928   6.534   9.753   4.444 -0.0412 -0.2648  0.0788
20515W        W33929   0.498   2.822   0.555  0.0702  0.0620  0.0081
20516W        W33930  15.126   6.962  15.728  0.0929  0.0665  0.0715
20517W        W33931   9.163  17.317  11.165  0.1041 -0.0801  0.0492
20518W        W33932   2.805  16.222  13.028  0.0821  0.1531  0.2246
20519W        W33933   5.344  13.226   0.702  0.0899  0.3303 -0.0505
20520W        W33934   8.863   0.531  12.844 -0.2193 -0.0341 -0.1287
20521W        W33935   2.198   9.223   3.972  0.1072 -0.1570  0.1580
20522W        W33936  15.731   6.856  13.134 -0.1414  0.2395  0.2936
20523W        W33937  17.657  14.900  10.700  0.1547 -0.3250  0.0447
20524W        W33938   4.687   5.133  14.507  0.1086 -0.2121  0.0947
20525W        W33939  15.446   2.994  14.661 -0.1528  0.2894 -0.2133
20526W        W33940   9.909  17.526   4.484 -0.1757 -0.1645 -0.0003
20527W        W33941   8.817  16.354  10.454 -0.2065  0.1574  0.2838
20528W        W33942   5.410  17.329  10.744 -0.1627  0.0292 -0.2196
20529W        W33943   5.753  11.466  10.886 -0.2717  0.1975 -0.0372
20530W        W33944  16.305   2.078  11.685 -0.0436  0.0532  0.0411
20531W        W33945   1.269   7.056   2.020  0.1863  0.2497  0.0754
20532W        W33946   8.268   3.845   1.918 -0.1807 -0.1235 -0.2098
20533W        W33947   9.670   3.595  12.604  0.0471  0.1812 -0.2236
20534W        W33948  16.920   7.128  14.853 -0.0631 -0.1163  0.1286
20535W        W33949   2.558   3.794  11.860  0.4525 -0.1200  0.1583
20536W        W33950   6.082  15.061   5.857  0.0250  0.1520  0.0410
20537W        W33951   2.188   5.957   5.142  0.4822  0.2428  0.1803
20538W        W33952   6.286   8.286  15.066 -0.0216  0.0386 -0.0035
20539W        W33953  13.510  18.255  11.965  0.0271  0.1730 -0.0314
20540W        W33954  16.134  14.905   6.159  0.0197 -0.1508  0.0424
20541W        W33955   8.861   6.329   0.280 -0.2078  0.1250  0.1513
20542W        W33956   8.212   8.279   1.986 -0.2100 -0.1142 -0.1519
20543W        W33957   9.085  10.260   4.945 -0.1620  0.1253 -0.0794
20544W        W33958   2.312   3.492  13.195 -0.2757  0.4800 -0.2183
20545W        W33959  12.782  10.113  11.041  0.1680 -0.0043 -0.0618
20546W        W33960   6.618  10.746   1.826  0.2192 -0.1243 -0.0427
20547W        W33961   8.391   5.653   4.792 -0.2081  0.0606 -0.0477
20548W        W33962  16.733   5.222  15.242 -0.3736  0.0256  0.3185
20549W        W33963  15.056  16.541  13.215 -0.4227 -0.2775 -0.1861
20550W        W33964  11.828   6.003   1.489 -0.5732 -0.0023  0.0143
20551W        W33965  11.411  14.891  16.075  0.1723  0.1216 -0.1840
20552W        W33966   2.836   5.067   4.193 -0.0413 -0.4368 -0.1749
20553W        W33967   2.000   5.093  11.862 -0.0161 -0.0419  0.1264
20554W        W33968   9.690  13.080   4.308 -0.1816  0.0370  0.2365
20555W        W33969   9.657   6.875  15.891 -0.2155  0.0326 -0.0907
20556W        W33970  12.621   6.935  12.566 -0.1753  0.2364  0.0616
20557W        W33971  13.385   8.384   3.136 -0.1567  0.0942  0.2194
20558W        W33972  17.690   5.450   1.215 -0.2468 -0.0498 -0.0681
20559W        W33973   7.020   2.584   4.808 -0.2153  0.0038 -0.1225
20560W        W33974  14.484   0.883  11.002 -0.4016  0.0885  0.1286
20561W        W33975   8.264   9.174  12.677  0.1051 -0.2114  0.0172
20562W        W33976  14.039  14.042   0.323  0.2424  0.1642  0.2464
20563W        W33977  11.342  14.265   2.832  0.1654  0.0488 -0.2340
20564W        W33978   1.296  14.004   0.789  0.1108 -0.0240  0.3513
20565W        W33979   8.753   5.943   4.535 -0.0343 -0.0355  0.0657
20566W        W33980   7.128  12.774   3.073 -0.2440 -0.1367  0.5225
20567W        W33981   0.724  11.934  13.812  0.0207  0.1136  0.1047
20568W        W33982  18.368   8.900   1.204  0.3823 -0.1382 -0.2162
20569W        W33983  15.423  13.902   1.721 -0.1512 -0.0997  0.3351
20570W        W33984   6.869   3.473  12.100  0.2109 -0.0925  0.3238
20571W        W33985  13.796   0.405  15.071  0.0601  0.0067  0.0177
20572W        W33986  15.057   8.360   3.274 -0.2433  0.0930 -0.3570
20573W        W33987   7.963   9.948   0.703  0.1173  0.4403 -0.2162
20574W        W33988  14.511  13.163  12.327  0.0607 -0.0378  0.0475
20575W        W33989   1.438   1.414   4.340  0.0224 -0.0853  0.0603
20576W        W33990   3.574  16.560  13.381 -0.1354 -0.1867  0.0325
20577W        W33991   9.467  16.806   5.416  0.1607  0.2285 -0.2398
20578W        W33992   9.285  13.809   4.249 -0.2556 -0.0889 -0.1215
20579W        W33993  16.192   0.163  13.523  0.0431  0.1812 -0.0215
20580W        W33994   1.212  17.071  10.750 -0.0619  0.1277 -0.0278
20581W        W33995  14.031  12.705  13.690  0.2435  0.0255  0.0413
20582W        W33996   4.113   6.248   5.392 -0.2308  0.2426 -0.0320
20583W        W33997  11.331   7.583   2.352  0.0290 -0.1891 -0.0055
20584W        W33998   7.616   6.236   4.198 -0.1915  0.0627 -0.3192
20585W        W33999  10.134  18.062  10.912 -0.1326  0.1699 -0.4245
20586W        W34000   3.818  15.730   0.527  0.0259  0.1921 -0.3093
20587W        W34001   5.335  11.161   0.977  0.2415 -0.0609  0.0730
20588W        W34002   0.279  17.643   1.949 -0.2627  0.2391  0.1245
20589W        W34003   6.147  15.518   2.066  0.2353 -0.0170 -0.2654
20590W        W34004   8.813   0.737  10.024  0.1694 -0.1302 -0.0146
20591W        W34005  17.357  13.663   4.194  0.0704  0.4575  0.2081
20592W        W34006   6.683  15.385   0.016 -0.0283  0.3611  0.0651
20593W        W34007   1.015  10.907  14.148  0.0228  0.2901 -0.0694
20594W        W34008  12.654   5.947  12.961 -0.2382 -0.0838  0.0770
20595W        W34009   6.061  17.933   3.605  0.0499  0.0656  0.2113
20596W        W34010   1.800  11.456  11.933 -0.3338  0.0149  0.0395
20597W        W34011   3.269  10.430   0.073 -0.1882  0.0560 -0.0173
20598W        W34012   5.199   2.902  12.559  0.1793  0.2222  0.0610
20599W        W34013  13.384   3.178   1.491 -0.1588  0.1770  0.1566
20600W        W34014   2.962   7.095   4.749  0.0273  0.4832 -0.0149
20601W        W34015  10.591  15.762  11.084 -0.0226 -0.2262  0.2574
20602W        W34016   0.551   1.121  13.943 -0.0282  0.2088 -0.1221
20603W        W34017  11.815  17.677   2.168 -0.3677 -0.3553 -0.2991
20604W        W34018   5.692  15.600   2.198 -0.1166 -0.0048 -0.1012
20605W        W34019  16.456   7.133  14.962  0.0340 -0.1649 -0.0174
20606W        W34020  12.824  10.926  14.516 -0.1053 -0.0311  0.1653
20607W        W34021  17.027   2.944  14.249 -0.0299 -0.1558 -0.1195
20608W        W34022  17.537  15.316   1.756  0.0584  0.2386 -0.0555
20609W        W34023   7.469   0.326   0.623  0.2108 -0.1089  0.0671
20610W        W34024   5.020  16.517  15.760  0.3436 -0.3209  0.3944
20611W        W34025  16.458   4.252  11.770  0.1781 -0.2496  0.0328
20612W        W34026   0.877  15.511  12.798 -0.1324  0.0996 -0.2455
20613W        W34027   3.885  17.891   4.868  0.0223 -0.3856 -0.1251
20614W        W34028   9.646  11.646  15.581 -0.3149 -0.1946 -0.0041
20615W        W34029   3.193  13.316  13.780  0.0096  0.0417  0.0777
20616W        W34030  15.473  13.397  14.763  0.0229 -0.0177  0.0741
20617W        W34031   9.983   3.729  13.876 -0.0755  0.0409 -0.1792
20618W        W34032  16.965  12.760  11.371 -0.0002 -0.1116  0.0884
20619W        W34033  15.689   0.991  13.059  0.0725 -0.0885 -0.0375
20620W        W34034   5.809  10.572  14.533 -0.0646 -0.0769  0.0386
20621W        W34035  11.653  10.098  14.994  0.1909 -0.0401  0.2597
20622W        W34036   3.546  11.356  15.244 -0.0976 -0.3208  0.0602
20623W        W34037   2.455   7.374  10.942  0.0002 -0.3544 -0.2679
20624W        W34038  15.464   8.548   0.846 -0.0314  0.1766  0.4008
20625W        W34039  11.143   8.703  11.748  0.0396  0.0567  0.4969
20626W        W34040  10.883   5.432   3.457  0.0732 -0.1948  0.1913
20627W        W34041   1.970  12.077  12.595 -0.2103  0.3111 -0.1102
20628W        W34042   8.597   6.631   1.914  0.1671  0.1596  0.0494
20629W        W34043  13.184   0.539  15.824 -0.0538 -0.1129 -0.0972
20630W        W34044   0.628  17.187   4.786  0.0772 -0.1512 -0.3139
20631W        W34045  18.170   9.432   4.683 -0.1799 -0.1530 -0.2512
20632W        W34046   5.357   6.054   2.700  0.0203 -0.0485  0.0093
20633W        W34047   3.118  12.221   2.157  0.0972  0.3975  0.1131
20634W        W34048   5.927  10.729  12.747  0.0316  0.4835  0.0085
20635W        W34049   4.977  14.658  14.723  0.0287 -0.2607  0.0179
20636W        W34050  11.463   1.918  13.974 -0.0538 -0.1983  0.0917
20637W        W34051   3.613  18.495  13.720  0.0368 -0.0015  0.1697
20638W        W34052   8.319   2.671  14.560 -0.1282 -0.1881 -0.0063
20639W        W34053   7.035  14.919   4.739  0.1251 -0.1019 -0.0475
20640W        W34054   4.585   5.871  11.589  0.0308  0.1293  0.4331
20641W        W34055  16.704  16.910   1.809 -0.3067  0.1750 -0.0048
20642W        W34056   7.412   3.522   2.265  0.0136 -0.1421  0.0665
20643W        W34057  15.280  12.115  11.453  0.2245  0.2097 -0.2729
20644W        W34058   9.373  11.061  10.256 -0.1729  0.0737  0.2109
20645W        W34059   6.476   7.735  11.318  0.3063  0.2896  0.1021
20646W        W34060   6.257   0.090  11.640  0.0942  0.0355  0.0558
20647W        W34061  16.152   9.348  14.146 -0.0882 -0.0318 -0.0544
20648W        W34062  10.423  10.530  11.984 -0.0256 -0.0797 -0.1690
20649W        W34063   6.717  11.798  10.044 -0.0288  0.0603 -0.1201
20650W        W34064   7.814  14.627   0.354 -0.1105  0.0943 -0.0071
20651W        W34065  12.962   0.476   2.502  0.1885  0.1907 -0.0666
20652W        W34066  11.718   0.762   5.809 -0.0243 -0.0144  0.0887
20653W        W34067   8.648   2.638   3.761  0.0287 -0.0599  0.2323
20654W        W34068   0.515  13.200  15.617  0.0744  0.2402  0.1528
20655W        W34069   1.098  10.317   3.903  0.1833 -0.0732 -0.2485
20656W        W34070   9.201   7.451   3.941 -0.1545 -0.0960 -0.0885
20657W        W34071  14.548  11.909  15.096 -0.2535 -0.1323 -0.0476
20658W        W34072  11.448  14.811  10.951 -0.0788 -0.0700 -0.2181
20659W        W34073  12.605  13.713   3.061  0.2336 -0.2884 -0.1960
20660W        W34074   9.516  12.768  11.025  0.2282  0.2473  0.0332
20661W        W34075   2.742   3.709   0.198 -0.1861  0.1846  0.0500
20662W        W34076   6.344  18.126  16.159  0.1389 -0.0401  0.1190
20663W        W34077  16.818   7.671  14.483 -0.0261  0.2143 -0.0458
20664W        W34078   0.000   8.411   0.744 -0.1944  0.1735  0.1557
20665W        W34079   3.165   4.369  16.055 -0.1228 -0.0227  0.0412
20666W        W34080  15.340   0.494   1.738 -0.0650 -0.1535 -0.0161
20667W        W34081   0.584   7.168   4.320 -0.2455  0.4209  0.0799
20668W        W34082  10.924  15.020   4.195  0.3124  0.0230 -0.1662
20669W        W34083  10.170   0.168  13.260  0.0677 -0.3254  0.0694
20670W        W34084   0.114   3.097  11.187  0.0950  0.2054  0.0117
20671W        W34085  16.741   6.811  14.004  0.0127  0.1270 -0.2385
20672W        W34086   0.572   5.613  12.644  0.0027 -0.1733 -0.0943
20673W        W34087   0.764   1.167  16.204  0.0746  0.0824 -0.3478
20674W        W34088   4.462  11.612  14.491  0.1822  0.2996  0.0873
20675W        W34089  11.595   6.088   4.969 -0.2386 -0.2372  0.1254
20676W        W34090  13.918  11.425  13.801 -0.3972 -0.0849  0.3049
20677W        W34091   4.975  14.951   0.145 -0.2115 -0.0614 -0.3419
20678W        W34092  15.937   5.890   2.183  0.0474  0.1388 -0.1040
20679W        W34093   8.373   0.216   3.428  0.0130  0.1137 -0.2107
20680W        W34094   3.406  16.056   6.274 -0.2581  0.2671  0.0674
20681W        W34095   0.357   0.588  13.950 -0.0900 -0.1323  0.1434
20682W        W34096   2.301   5.770   2.737  0.0917  0.1836  0.1312
20683W        W34097   6.571  16.396  11.349 -0.4375 -0.1353 -0.2027
20684W        W34098   3.424  15.772  11.925  0.0666 -0.2288 -0.0222
20685W        W34099   6.829   5.398   5.589  0.2689  0.0352 -0.2904
20686W        W34100   0.985   8.415   5.542  0.0343  0.0105  0.0172
20687W        W34101  15.666  11.374   5.794 -0.0535 -0.3158 -0.0044
20688W        W34102   6.355   4.853  13.216  0.6087 -0.2257 -0.0508
20689W        W34103   1.867   2.037  11.431 -0.0901 -0.2719 -0.1342
20690W        W34104  14.473   3.598   3.974  0.2604  0.0929  0.1517
20691W        W34105   0.856  16.830  11.027 -0.1075  0.1320  0.2427
20692W        W34106   6.617  13.016  12.855 -0.2924 -0.1532  0.1763
20693W        W34107  15.576   4.525  14.650 -0.1045  0.0296 -0.0776
20694W        W34108   2.190   2.837   1.548  0.0539  0.0928  0.0941
20695W        W34109  11.718   0.422   5.413  0.1653  0.0711 -0.0738
20696W        W34110   7.392   5.435   4.570  0.2421 -0.1873  0.2744
20697W        W34111   6.347  10.933  13.092  0.3990 -0.2032  0.3393
20698W        W34112   1.649   2.624   2.440 -0.0196 -0.1301 -0.0342
20699W        W34113  12.181   7.824  11.602  0.3761 -0.0032 -0.0558
20700W        W34114  14.711  16.133   5.798  0.1044  0.0503  0.2296
20701W        W34115   6.447  16.160   2.881  0.0622  0.2052 -0.0542
20702W        W34116  18.367  16.318   4.209  0.0769 -0.1611  0.1916
20703W        W34117   0.138   6.054   1.203 -0.0942 -0.0993 -0.1155
20704W        W34118   8.873  14.969   2.026 -0.0263 -0.1599  0.0692
20705W        W34119   1.486   3.632   3.512  0.1148 -0.0173  0.1631
20706W        W34120  18.181   7.579  11.527  0.2143  0.0634 -0.1024
20707W        W34121   5.903  10.026   4.237  0.1922 -0.1050 -0.3810
20708W        W34122   7.218  11.392   3.907  0.0768 -0.3303  0.0168
20709W        W34123  18.293  14.880  14.983 -0.5130 -0.2287  0.0288
20710W        W34124  14.033  13.834  10.994 -0.3288  0.0299 -0.3664
20711W        W34125  16.194   8.256  14.246 -0.0874 -0.0239  0.2833
20712W        W34126   5.601  11.815   3.007 -0.2854 -0.0296 -0.2044
20713W        W34127  17.628  12.540   5.790 -0.1626 -0.0556  0.0691
20714W        W34128  12.719  14.036  14.071 -0.0244 -0.5444  0.1154
20715W        W34129   6.143   7.451  14.408 -0.1948  0.2447 -0.0100
20716W        W34130   4.651  14.998   1.481 -0.0785 -0.0155  0.1858
20717W        W34131   5.337  13.305  11.538  0.0246 -0.0819 -0.0800
20718W        W34132  16.312  12.921   4.795 -0.0324 -0.1074 -0.1396
20719W        W34133  18.069  13.579   5.347 -0.2373 -0.2928  0.0294
20720W        W34134   6.337   4.147  12.480  0.0052 -0.1307  0.2435
20721W        W34135  15.848   4.135   0.991  0.1963  0.0382 -0.2488
20722W        W34136   0.810   9.468  14.839 -0.0954 -0.0418  0.1797
20723W        W34137  16.095   5.569   6.004  0.2385  0.4015 -0.2873
20724W        W34138  18.474   9.782   9.986  0.3986 -0.0067  0.1117
20725W        W34139  15.346  15.073  13.660 -0.0638  0.0438  0.1770
20726W        W34140  16.369  17.998   3.933 -0.1920  0.1104  0.2035
20727W        W34141   4.962  13.959   5.287  0.1291 -0.0151 -0.2494
20728W        W34142   4.315   7.932  15.336 -0.1071 -0.3364  0.3495
20729W        W34143   0.819  12.421   3.160  0.0100  0.3177 -0.1766
20730W        W34144   2.502  17.379   1.258  0.0504  0.0174 -0.0871
20731W        W34145   2.585   9.302  10.829  0.1817  0.0112 -0.0328
20732W        W34146   3.645  17.669  14.410 -0.3552  0.1047 -0.4116
20733W        W34147  15.926  18.355   2.776 -0.0030  0.0800 -0.0275
20734W        W34148  16.113  12.142   2.066 -0.2177  0.1568  0.1661
20735W        W34149   6.850   4.753  15.164  0.0957 -0.0442  0.1372
20736W        W34150   4.579  13.389   0.376  0.0405 -0.2263 -0.0496
20737W        W34151   1.408  13.638  11.613  0.0102  0.0070  0.0740
20738W        W34152  11.190   6.034  13.003  0.4130  0.0018 -0.3841
20739W        W34153  11.311   4.600  11.381 -0.2050 -0.3342 -0.1080
20740W        W34154   8.223   4.255  15.802 -0.0470  0.0331 -0.0505
20741W        W34155  16.840   9.522   3.126 -0.1011  0.1178  0.0110
20742W        W34156  11.165   0.797  16.272  0.1669  0.1048  0.1754
20743W        W34157   5.028   3.009   3.655 -0.2285  0.2746 -0.2382
20744W        W34158   7.716  15.829   3.826  0.3740  0.1921  0.0790
20745W        W34159  13.572  13.082   1.264 -0.3409 -0.0087  0.0253
20746W        W34160   3.862  12.949  12.620  0.1122 -0.0459  0.1491
20747W        W34161   6.053   8.737   3.006 -0.2793 -0.2921 -0.1928
20748W        W34162  14.101  13.411   1.854 -0.1351 -0.0535 -0.0377
20749W        W34163   9.408   4.277   5.210  0.0378  0.0987  0.1689
20750W        W34164   0.475   2.274  11.806  0.1000  0.0045 -0.0555
20751W        W34165   0.352   5.172   3.112  0.0896  0.0629  0.2832
20752W        W34166  14.839  12.378  10.381 -0.2213 -0.1696  0.1501
20753W        W34167  10.366   1.896  12.697 -0.0804 -0.0309  0.0343
20754W        W34168  11.154   0.344   5.364 -0.1399 -0.1802 -0.0242
20755W        W34169  15.500  17.589  12.350 -0.1441  0.1256  0.1157
20756W        W34170  13.338   1.612   0.571 -0.0800  0.1896 -0.3182
20757W        W34171   0.860   6.809   1.120  0.2082  0.1977  0.2190
20758W        W34172   2.374  16.357   4.398  0.0710 -0.2582  0.0311
20759W        W34173  13.172   2.573   2.557 -0.2126  0.0547  0.0498
20760W        W34174   6.215   1.038   0.188 -0.1472  0.1928 -0.0562
20761W        W34175   4.692  16.447   0.228  0.0061  0.1460 -0.0147
20762W        W34176   3.100   7.154  16.087 -0.0316 -0.0051 -0.0188
20763W        W34177   9.502   0.864  12.193 -0.0231 -0.1470  0.2413
20764W        W34178   4.048  13.771   1.306 -0.0017  0.0559 -0.2559
20765W        W34179   0.435  16.181  12.518  0.0184  0.1677  0.5752
20766W        W34180  17.106   2.784   1.366  0.1859 -0.0459  0.0293
20767W        W34181   3.768   5.801  12.642 -0.2453 -0.1107 -0.3911
20768W        W34182   0.840  10.584  15.544  0.2057 -0.1356  0.1606
20769W        W34183  13.511  12.209  11.938 -0.0200 -0.1428  0.0403
20770W        W34184  15.271  13.532   0.200  0.1090 -0.1017  0.0782
20771W        W34185  15.790   7.501  11.132 -0.2992 -0.0946  0.3273
20772W        W34186  13.457  12.447  10.774 -0.0046 -0.2138 -0.2423
20773W        W34187  10.771   7.410   4.556  0.0765  0.2802 -0.0359
20774W        W34188  16.231  17.125  14.688  0.3790  0.1651  0.0202
20775W        W34189  14.155   5.885   5.060 -0.0970 -0.0116  0.0965
20776W        W34190  16.276   6.268  15.245  0.1149  0.2226 -0.2333
20777W        W34191   4.479  15.936  12.228  0.3140  0.3798  0.2421
20778W        W34192   9.789   2.749   2.055 -0.0758 -0.2568  0.0813
20779W        W34193   3.887  15.754   4.198  0.1192  0.0024  0.2782
20780W        W34194   1.383   0.129   0.388 -0.1847  0.0561 -0.0909
20781W        W34195   3.361  12.051  13.205 -0.1136 -0.0571 -0.0760
20782W        W34196  17.069   3.213   3.158 -0.1044 -0.1465  0.0558
20783W        W34197   2.742  13.219   2.825 -0.0723 -0.0745 -0.2148
20784W        W34198  15.216   0.253  12.065  0.0827 -0.1456 -0.2177
20785W        W34199  16.379  12.287   0.293  0.0345 -0.0963 -0.1985
20786W        W34200  10.356   4.330   5.087  0.1085 -0.0344  0.1563
20787W        W34201  16.533  12.689  16.267 -0.4402  0.0889  0.0254
20788W        W34202  16.546  12.345  12.094 -0.1378 -0.2741 -0.0290
20789W        W34203  16.333   5.176   2.361  0.0794 -0.1741 -0.1054
20790W        W34204   4.785  12.855  12.231  0.3111  0.4303 -0.0615
20791W        W34205   8.136   5.588   2.876  0.0218 -0.0645 -0.2044
20792W        W34206   4.496  18.007  13.548 -0.1165 -0.2537  0.3552
20793W        W34207   7.789  12.395   9.520 -0.1569 -0.0030 -0.3337
20794W        W34208   9.002  15.253   0.405 -0.1055  0.0765 -0.1012
20795W        W34209  13.363   7.324   1.841  0.1520 -0.0078 -0.1204
20796W        W34210  11.273   2.190  15.512  0.1268 -0.0511 -0.3010
20797W        W34211   1.687   9.562   3.422 -0.1155 -0.1726  0.2235
20798W        W34212  13.496  13.748   0.545 -0.1418  0.0358  0.0623
20799W        W34213  17.992  18.313   4.325 -0.0632  0.0310 -0.0285
20800W        W34214   2.705  17.180  15.018 -0.2607  0.2148  0.1060
20801W        W34215   7.021  12.358   0.390  0.0534  0.2736  0.0193
20802W        W34216   6.149  10.073  12.081  0.0726  0.0304  0.0566
20803W        W34217  11.907  12.206   2.504 -0.2087  0.1012  0.0645
20804W        W34218   7.996  10.319  13.173 -0.0213 -0.2462  0.1546
20805W        W34219  11.567  13.764   1.286 -0.3720  0.1537  0.0305
20806W        W34220  11.315  10.888  16.031  0.1678 -0.1701  0.1401
20807W        W34221   1.047  12.764   2.878 -0.2741  0.0508  0.2312
20808W        W34222   0.092   7.383   1.425 -0.0683 -0.0545  0.4733
20809W        W34223   7.568   4.864  12.205  0.0094 -0.3999 -0.0048
20810W        W34224   1.785  15.325  13.398 -0.0083 -0.0224 -0.0615
20811W        W34225   4.875   6.029   4.132 -0.4192 -0.1165  0.0480
20812W        W34226  12.543   0.249   0.629  0.0401  0.2660  0.2232
20813W        W34227  17.470  15.165  12.535  0.0984  0.2625 -0.0477
20814W        W34228  13.441  14.213  11.906 -0.0694  0.0260 -0.0815
20815W        W34229  12.126  15.396  15.146 -0.0573 -0.0116 -0.0229
20816W        W34230   0.970   6.259  14.937 -0.4057 -0.0713 -0.2527
20817W        W34231  13.662   1.439   3.354 -0.1119  0.0291 -0.2187
20818W        W34232  13.959   2.026   3.764 -0.1060 -0.0051  0.0912
20819W        W34233   6.526   2.730   3.627  0.0224  0.2426 -0.1584
20820W        W34234   5.803  11.395  14.813  0.0611  0.0925 -0.0777
20821W        W34235  13.692   7.958   3.143 -0.2621 -0.1787  0.1901
20822W        W34236   6.654  11.101   4.982  0.0407 -0.2316 -0.0790
20823W        W34237   0.995   4.107   4.802  0.0260 -0.0002 -0.0479
20824W        W34238  11.957   7.033  11.671 -0.0651  0.0566  0.2270
20825W        W34239   6.902  10.534   9.692 -0.0885  0.0936  0.2077
20826W        W34240  10.727  15.560  13.991 -0.3820 -0.0611  0.1636
20827W        W34241   2.941  13.323  14.215  0.0407 -0.0272  0.1102
20828W        W34242  11.196   9.310  11.365 -0.0177 -0.1760 -0.0219
20829W        W34243   6.936  14.164  12.836 -0.1049  0.0800 -0.1203
20830W        W34244   8.024  17.764  12.428 -0.2591 -0.2067  0.0373
20831W        W34245  11.556  10.222  12.724 -0.2153  0.0299  0.1954
20832W        W34246   6.905  11.219  10.820 -0.0484 -0.1886  0.0809
20833W        W34247   5.260   9.046  14.404 -0.1284 -0.1306 -0.1047
20834W        W34248   3.321  12.246  10.585  0.0740  0.0657  0.1496
20835W        W34249   2.182   1.714  14.754 -0.4328 -0.2560  0.0772
20836W        W34250   6.266   7.965  12.191  0.3022  0.3152 -0.2068
20837W        W34251  12.512  18.096  11.135 -0.2219 -0.0985 -0.0962
20838W        W34252   5.584   9.348   1.125  0.0101 -0.0269  0.1111
20839W        W34253   9.486  16.468  12.234 -0.2343 -0.1333 -0.1368
20840W        W34254   4.042   9.380   4.912  0.0415  0.0242  0.3087
20841W        W34255   9.866  10.411  12.764 -0.0541 -0.2953  0.0815
20842W        W34256   6.256  16.611   2.786  0.0636 -0.4256  0.2367
20843W        W34257  11.780   2.551   2.101 -0.2809 -0.0241  0.3570
20844W        W34258  15.886   6.730   0.671 -0.3596 -0.0394 -0.1937
20845W        W34259   8.366  17.954   2.119 -0.0131 -0.1275  0.0695
20846W        W34260  12.387  12.500   3.293 -0.1943  0.2418 -0.0785
20847W        W34261   9.224   5.203   2.372 -0.2907 -0.1104 -0.3258
20848W        W34262   1.534   3.165  13.085 -0.1127  0.2487  0.3199
20849W        W34263   5.913   7.010  14.276  0.1318  0.2215 -0.1456
20850W        W34264  10.592  13.341   1.159  0.1957 -0.1535  0.1389
20851W        W34265   4.398  10.874  14.932 -0.0442 -0.2671 -0.3316
20852W        W34266   9.655  10.001  11.724 -0.2069  0.1108 -0.0537
20853W        W34267   5.055  17.377   6.484  0.0345 -0.0470  0.0133
20854W        W34268  13.657  10.985   3.018 -0.1043  0.2112 -0.1070
20855W        W34269   1.532  10.572  11.244 -0.1651  0.2150  0.0150
20856W        W34270  12.854   5.214   5.299  0.0247 -0.0240 -0.0932
20857W        W34271  11.767   3.559   0.784 -0.1418 -0.1731 -0.1382
20858W        W34272  11.776   6.876  13.029 -0.2612 -0.0973  0.0776
20859W        W34273   4.559  14.747   2.704 -0.0218 -0.0547 -0.0906
20860W        W34274   1.311   6.546  13.924  0.4242  0.2750 -0.1442
20861W        W34275  17.068  10.514   0.143 -0.0392 -0.1664  0.1619
20862W        W34276   0.104   1.720  12.567  0.0665 -0.2368  0.3155
20863W        W34277   1.128  16.060   0.443  0.1986  0.1454 -0.3245
20864W        W34278  14.409   8.902   0.901 -0.2357  0.0768 -0.1705
20865W        W34279   3.402   1.465   3.293 -0.3201 -0.0484  0.0059
20866W        W34280  12.972  11.375   1.356 -0.1533  0.1591 -0.0265
20867W        W34281   2.878   8.875   4.944 -0.1703  0.1518 -0.2207
20868W        W34282  16.593  17.452  14.878  0.0485 -0.2751  0.1224
20869W        W34283   2.967   5.939   1.886  0.0348 -0.1420  0.0836
20870W        W34284  11.740  17.565   1.163  0.1499  0.2616 -0.0494
20871W        W34285  11.245  16.345  13.703  0.1929  0.0632  0.1728
20872W        W34286  15.194   5.539  16.133 -0.2249 -0.0929  0.0299
20873W        W34287  13.035   6.992  12.793 -0.1220  0.1884  0.1398
20874W        W34288   6.517  16.462   4.831  0.0930  0.0130 -0.0407
20875W        W34289   9.743   6.646  14.826  0.2053  0.1047  0.1160
20876W        W34290  13.764   4.432   1.759 -0.0099  0.2469  0.1123
20877W        W34291  15.276   0.284   4.298 -0.0685 -0.0996  0.1011
20878W        W34292   1.849  16.758   5.196  0.0575  0.0543  0.1515
20879W        W34293  12.454   2.581   6.164  0.2105  0.1290 -0.2886
20880W        W34294   9.101   2.203   0.614  0.1636  0.0297 -0.1780
20881W        W34295  13.832  15.016  11.732  0.1471 -0.2118 -0.1805
20882W        W34296   8.040  15.069  13.472 -0.0014  0.1229 -0.3157
20883W        W34297   6.770   8.784   5.313  0.0802 -0.0948  0.1721
20884W        W34298   6.017   7.285  16.051  0.0098 -0.1455  0.0315
20885W        W34299   5.544  10.561   5.656 -0.3558  0.0143 -0.1464
20886W        W34300   7.509  12.877  11.204  0.0725 -0.3105 -0.0171
20887W        W34301   7.105  11.466  11.581 -0.2120 -0.2060 -0.0379
20888W        W34302  14.045   0.992   1.601 -0.3011  0.1495 -0.0233
20889W        W34303  16.791  15.692  14.967  0.0961 -0.0382  0.0216
20890W        W34304   3.749   4.145   1.724  0.0184 -0.0593 -0.1297
20891W        W34305  13.637  10.576  13.312  0.2444  0.2515  0.1481
20892W        W34306   6.499  18.455   3.346 -0.1886  0.0838 -0.1687
20893W        W34307  10.932  13.317   1.541  0.0626  0.3223  0.1507
20894W        W34308  11.339  13.356  13.395 -0.1743 -0.0777 -0.3099
20895W        W34309  16.917  17.975  11.756 -0.2593 -0.1576  0.2258
20896W        W34310  11.312  11.814   4.452 -0.0668 -0.1151  0.3998
20897W        W34311   6.038  15.637   0.069 -0.1382  0.1730  0.0161
20898W        W34312  15.522   3.392  11.020  0.2173 -0.0649 -0.2635
20899W        W34313   7.220  14.029   2.187 -0.0240  0.1880 -0.1456
20900W        W34314  11.183   0.210  12.546  0.2858  0.0524  0.0592
20901W        W34315   8.227  12.171   3.875  0.2049 -0.2395 -0.1009
20902W        W34316  15.740  14.968   2.465 -0.1853 -0.0367  0.2096
20903W        W34317   3.004  11.604  13.144  0.1509 -0.3573 -0.0990
20904W        W34318   1.586   3.726  11.693  0.1222  0.3321 -0.0311
20905W        W34319   8.678   9.433  14.041  0.0799  0.0234 -0.3566
20906W        W34320  13.348  17.679  15.168  0.1140  0.0486  0.3876
20907W        W34321   2.693  14.941   4.530 -0.0909  0.1854 -0.2220
20908W        W34322   3.000  18.289   5.356 -0.1078 -0.2564 -0.2958
20909W        W34323   4.920   8.499   1.183 -0.0422  0.3913  0.1135
20910W        W34324   6.336   6.172   5.017  0.0726 -0.1422  0.1778
20911W        W34325  12.452   5.435  13.133 -0.0582 -0.1525  0.0385
20912W        W34326  10.615  12.381   2.315 -0.1495  0.0372 -0.0125
20913W        W34327  14.463   1.439  12.263 -0.1582  0.3922  0.0051
20914W        W34328   4.832  10.897   1.323 -0.0457 -0.0238  0.1875
20915W        W34329  13.226   6.167   3.193  0.0318 -0.0132  0.1332
20916W        W34330  17.321   1.676  11.901 -0.3220  0.0845  0.1387
20917W        W34331   8.372  16.352  14.830 -0.0389  0.1050 -0.0837
20918W        W34332  12.010  16.131  10.899 -0.0290 -0.0404  0.0337
20919W        W34333  17.650   8.648   4.883 -0.3153  0.1632  0.1462
20920W        W34334  10.636  11.906   5.577 -0.1668 -0.0824  0.0872
20921W        W34335  12.613   4.317   4.991 -0.1503  0.0925 -0.3458
20922W        W34336   1.105   6.848  13.400 -0.0375 -0.0196 -0.1945
20923W        W34337   3.761   3.113   2.310  0.1696  0.1270  0.1238
20924W        W34338   8.682   2.980   2.102  0.3140 -0.0136 -0.0834
20925W        W34339   8.753   0.845   4.594 -0.2008  0.1607 -0.1285
20926W        W34340  10.190  14.828  12.765  0.3878 -0.0653 -0.3881
20927W        W34341   2.597   2.061  14.846 -0.0735  0.0690 -0.3497
20928W        W34342   7.239   9.300  11.684 -0.4044  0.0986 -0.1302
20929W        W34343   3.874  15.100  11.421  0.0389  0.0416  0.0384
20930W        W34344  11.839   8.612  14.745 -0.0926  0.0077 -0.0777
20931W        W34345   3.225   7.709   1.036 -0.0609 -0.0283  0.0027
20932W        W34346   5.911   2.232   4.023 -0.0607 -0.0930  0.0917
20933W        W34347   2.947  16.815   0.542 -0.0428  0.1047 -0.0621
20934W        W34348  10.303   0.614  13.080 -0.1472  0.0530  0.1821
20935W        W34349   5.443  10.721  15.772 -0.0082 -0.2127  0.1667
20936W        W34350   3.490   0.672  11.253  0.1892  0.0685 -0.0975
20937W        W34351   8.829  13.249   1.502 -0.6582 -0.1705  0.0967
20938W        W34352  10.906  17.444  11.372 -0.1068  0.2476 -0.0427
20939W        W34353   4.775  14.428   2.268 -0.4117  0.0802  0.1368
20940W        W34354  13.549  11.250   3.445 -0.1002  0.1105  0.1073
20941W        W34355  15.558  15.493  13.907  0.2972  0.1308  0.1428
20942W        W34356  14.387  15.034  10.618 -0.0766 -0.0940 -0.0538
20943W        W34357   4.207  15.933  15.977  0.0315 -0.0943 -0.4085
20944W        W34358  16.286  14.510   3.384  0.0639  0.1146  0.0643
20945W        W34359  15.267   4.998  13.719  0.0762  0.3081  0.0482
20946W        W34360  15.772   5.557  12.387  0.1841 -0.1195 -0.1534
20947W        W34361   4.075  11.277  14.448 -0.2186 -0.0907 -0.1690
20948W        W34362   7.265  17.483   0.383 -0.0659  0.0329 -0.1364
20949W        W34363  17.225   3.301   0.206 -0.0413  0.1406 -0.2646
20950W        W34364   5.258  15.124   2.848  0.0672  0.0954  0.1071
20951W        W34365  16.326   1.121   2.187 -0.1188 -0.0705 -0.0690
20952W        W34366  17.840   3.155  11.792  0.4869  0.2060  0.0248
20953W        W34367   6.531  17.795  13.253 -0.2469 -0.3278 -0.0803
20954W        W34368   4.654  14.430   5.174  0.4215  0.2672  0.0463
20955W        W34369   6.065   2.690   2.112 -0.0403 -0.2328 -0.0435
20956W        W34370  15.606   4.695   2.935  0.0129  0.1766  0.1535
20957W        W34371  16.612  11.337   0.352  0.2397 -0.2275 -0.3527
20958W        W34372  12.499  14.694   0.302  0.1209 -0.1652 -0.1404
20959W        W34373  14.115  13.065   0.190  0.4391  0.3692 -0.0157
20960W        W34374  17.652   7.463   6.194  0.0443 -0.4486  0.0130
20961W        W34375   1.289  12.128   0.698 -0.0640 -0.2986  0.1434
20962W        W34376   8.396  11.555   0.284  0.1512 -0.0188  0.0687
20963W        W34377   3.544  15.434   0.269  0.1775  0.1333  0.0005
20964W        W34378  17.961   9.649  12.644  0.2324  0.0749 -0.0451
20965W        W34379  11.888   3.207   5.871 -0.0962 -0.4286  0.4751
20966W        W34380   5.803   3.787   5.103 -0.2330  0.0188  0.2621
20967W        W34381   5.153   6.896   0.364 -0.1071  0.1564 -0.1994
20968W        W34382   5.090   3.288   2.410  0.1212 -0.2078 -0.0680
20969W        W34383  15.438   4.144  15.925 -0.4651 -0.1963 -0.1902
20970W        W34384  12.483  11.293   1.211 -0.2931 -0.2989 -0.0139
20971W        W34385   6.446   8.408   3.054 -0.0961  0.0099 -0.1869
20972W        W34386   9.571  12.299  11.398 -0.0418  0.1404  0.2901
20973W        W34387   3.973  14.670   0.402  0.2056  0.0501  0.2699
20974W        W34388   3.160   8.869  12.744  0.1621  0.0214 -0.2966
20975W        W34389   9.645  10.660   0.232  0.0796  0.3035 -0.1384
20976W        W34390   0.382  18.318   1.761 -0.0065  0.1130 -0.0249
20977W        W34391   0.101  16.948   4.863  0.1871 -0.0013 -0.2780
20978W        W34392   7.683   8.285   6.051 -0.3045 -0.3217  0.0854
20979W        W34393   4.541   2.013  14.664 -0.0854  0.1331 -0.0451
20980W        W34394  12.880  11.444  13.918 -0.0427 -0.2230  0.1839
20981W        W34395  15.716  13.249   2.593  0.2891  0.1982  0.0111
20982W        W34396   3.253   7.544   0.197  0.1088 -0.0106  0.3000
20983W        W34397   9.144   0.837  11.821  0.2218 -0.0053 -0.1141
20984W        W34398   8.816  13.716  12.928  0.2223  0.0010  0.1160
20985W        W34399  11.724   5.856  14.757  0.3437  0.3445 -0.1917
20986W        W34400   4.363  13.952  14.677 -0.1676  0.0485 -0.2577
20987W        W34401   7.661   1.540  13.444 -0.1590 -0.4110 -0.0659
20988W        W34402  11.985  13.207   1.655  0.1415 -0.3265  0.1430
20989W        W34403  17.716   5.743   3.191 -0.0003  0.1130  0.0056
20990W        W34404   6.140   5.486  10.289 -0.1508  0.0654 -0.1215
20991W        W34405  12.588   5.192   6.273 -0.3347 -0.4229  0.4992
20992W        W34406   3.589  10.274  12.934 -0.2698  0.2523 -0.3928
20993W        W34407  16.167   4.145  15.179 -0.0684 -0.0736  0.2056
20994W        W34408   3.103   6.089  10.506  0.3448  0.0691 -0.2802
20995W        W34409   3.786  13.716   5.756  0.0045 -0.0805 -0.2403
20996W        W34410   7.536   6.731  12.743  0.1223  0.0707 -0.0755
20997W        W34411  14.792   8.775   4.820 -0.2436 -0.0632  0.1223
20998W        W34412   9.557   5.506   0.048 -0.3280  0.1123  0.2237
20999W        W34413   4.313   4.715   3.027 -0.0519  0.0436 -0.0994
21000W        W34414  16.309   1.431   3.623  0.3449 -0.0114  0.1476
21001W        W34415  18.119  11.001  12.823  0.0293  0.1372 -0.1684
21002W        W34416   1.579   9.974   5.133 -0.0755  0.0909 -0.1143
21003W        W34417   8.422   2.717  13.018  0.1966  0.1798 -0.0644
21004W        W34418   6.389  14.570   3.140  0.0780 -0.1518 -0.3220
21005W        W34419  11.316   4.529   0.993 -0.2148 -0.2339 -0.2344
21006W        W34420   5.129   4.399   0.470  0.1498 -0.1043 -0.1655
21007W        W34421   8.334   7.751   1.265 -0.3023 -0.1706  0.2014
21008W        W34422  13.376  11.575  14.774  0.0075  0.0746  0.3720
21009W        W34423  16.880   0.204  15.196 -0.1443 -0.0750  0.0676
21010W        W34424  10.640  15.134  13.432  0.3205 -0.0318 -0.0176
21011W        W34425   0.495   7.592   4.948  0.1570  0.1442  0.0913
21012W        W34426   0.950   3.876  12.246 -0.0025  0.0716  0.1756
21013W        W34427  11.375   5.699   0.182  0.2163  0.0631  0.0381
21014W        W34428  16.432  11.717   1.007  0.2311  0.0513  0.0526
21015W        W34429   5.581   8.637   1.782 -0.1851  0.0543  0.2607
21016W        W34430   9.851   2.247   5.369  0.0148 -0.0542  0.1316
21017W        W34431   1.362   7.255  14.644  0.0036 -0.2660  0.0401
21018W        W34432  13.953   4.821   5.983 -0.2441 -0.3384  0.2436
21019W        W34433   8.846   3.441  11.895 -0.1042  0.2869 -0.2361
21020W        W34434  12.561   8.715  10.374 -0.0861 -0.2296  0.0556
21021W        W34435   0.008   8.603   4.631 -0.0764 -0.1036 -0.0499
21022W        W34436  11.304  16.914  13.125  0.3053 -0.2282 -0.0006
21023W        W34437  17.638   9.010   3.916  0.0024  0.0914 -0.1542
21024W        W34438  16.710   9.737  12.270 -0.1712  0.2612 -0.0035
21025W        W34439  14.202   1.299  11.222  0.2134  0.0351 -0.3837
21026W        W34440   8.344   1.860  15.163 -0.0665 -0.0585 -0.0770
21027W        W34441   7.879  10.100  15.705 -0.0154 -0.0232  0.3804
21028W        W34442   1.281  16.970  15.800 -0.2804 -0.2385  0.0846
21029W        W34443   1.641  18.243   0.269 -0.0120 -0.0818 -0.0129
21030W        W34444   8.369  18.036  12.940  0.0884  0.2191  0.1302
21031W        W34445   5.684   0.561  14.132  0.1775 -0.2002  0.1158
21032W        W34446  17.480   5.740  15.119  0.1110 -0.1712  0.2449
21033W        W34447  18.145   5.467   1.680 -0.2674  0.3512  0.0425
21034W        W34448   2.263  15.592  15.206  0.1583 -0.1528 -0.1776
21035W        W34449  10.260  15.864  13.848  0.2125  0.0611  0.0527
21036W        W34450  11.612   0.223  13.799 -0.0013 -0.2200  0.0277
21037W        W34451  14.334   3.099   4.606 -0.1372  0.3480  0.2424
21038W        W34452  16.941   9.766  12.714  0.0047 -0.2927  0.1007
21039W        W34453  11.367   7.220  14.794  0.0773  0.3021 -0.3128
21040W        W34454  16.375  14.588   1.370 -0.2829 -0.0134  0.4114
21041W        W34455  14.815  14.218  11.378  0.2676 -0.1713  0.0047
21042W        W34456   5.730   2.753  13.563  0.1063 -0.0008  0.1433
21043W        W34457   9.744  18.222  15.233 -0.1820  0.1055  0.0338
21044W        W34458   7.546  15.486   5.007 -0.0608  0.1333 -0.1789
21045W        W34459  13.660  17.019  12.165 -0.3832 -0.1059  0.0296
21046W        W34460   8.377   8.378   3.288 -0.2100 -0.1688  0.1871
21047W        W34461   2.120  15.360  12.885 -0.1395  0.0668 -0.0065
21048W        W34462  14.237   5.211  10.807 -0.1305  0.0056 -0.1591
21049W        W34463  11.013   3.770   0.863  0.1067 -0.1908  0.3318
21050W        W34464  14.068  10.675   1.582  0.2268  0.1541  0.1276
21051W        W34465   4.281  10.411  11.036 -0.0031 -0.1575 -0.1382
21052W        W34466  17.929  13.599  13.977  0.0275 -0.2469 -0.0919
21053W        W34467   8.037   2.398  16.144 -0.0602 -0.0896  0.1072
21054W        W34468   5.407  12.429   3.657  0.1149 -0.0828 -0.0528
21055W        W34469   4.873   5.880  16.162 -0.1168  0.1426 -0.1777
21056W        W34470   9.649   2.633   4.466 -0.0825 -0.0261 -0.2719
21057W        W34471   8.724  12.864  12.191  0.2067 -0.2316 -0.0274
21058W        W34472  12.916   1.459  14.692  0.0624  0.2326 -0.5946
21059W        W34473  15.319  16.782  10.202 -0.0050  0.1562  0.3366
21060W        W34474  12.269  10.315   4.439 -0.0584  0.0999 -0.1493
21061W        W34475  15.730  11.322  14.190 -0.0906 -0.2370  0.1785
21062W        W34476  13.308  17.067  10.541  0.2575  0.0144 -0.1529
21063W        W34477   9.691  14.830   4.014 -0.4722  0.1274 -0.1326
21064W        W34478   3.117  10.772   5.048  0.0821 -0.3855  0.0136
21065W        W34479  13.958   7.492   0.651 -0.0148 -0.0860 -0.0185
21066W        W34480   8.400  15.994   0.478  0.1151 -0.0102  0.3107
21067W        W34481  14.602   9.806  13.684 -0.0038  0.0166  0.3774
21068W        W34482   3.106   8.145   1.967  0.4221  0.3474  0.1788
21069W        W34483   9.465   4.070  13.978  0.2754 -0.2580 -0.2563
21070W        W34484  12.766  12.172   2.258 -0.1631  0.0121  0.1009
21071W        W34485  12.518  10.929   0.351 -0.2810 -0.2058 -0.3243
21072W        W34486   5.171   8.904  11.846 -0.1446 -0.2073  0.0687
21073W        W34487  14.870  13.225  10.774 -0.0346 -0.0567  0.0878
21074W        W34488   4.529  15.562  14.241 -0.0927  0.1116 -0.0682
21075W        W34489   0.825  17.543  15.493 -0.1808  0.4663 -0.1066
21076W        W34490   8.146   3.242   1.104  0.1328 -0.0468 -0.2858
21077W        W34491  11.043   2.637  15.131  0.0815 -0.1794 -0.0721
21078W        W34492   4.517   2.136  11.718 -0.0796  0.0429  0.2555
21079W        W34493  11.089   4.125   4.160  0.3064 -0.1943 -0.2241
21080W        W34494   7.569   9.099   3.177  0.2628  0.2698 -0.4124
21081W        W34495  14.360  11.745   5.583  0.0231 -0.0389  0.0057
21082W        W34496   7.917  13.252   5.604 -0.1534 -0.2227 -0.0119
21083W        W34497   8.951  15.392  13.564  0.0280 -0.2653  0.1202
21084W        W34498  16.863   4.909   3.568  0.1585 -0.0835 -0.1107
21085W        W34499  10.447   4.951   2.532 -0.1922 -0.1730  0.2694
21086W        W34500  14.971  17.445  11.300 -0.1158  0.0142 -0.0692
21087W        W34501  15.713  16.323   5.462 -0.0971  0.0047  0.0216
21088W        W34502   3.111  13.021   1.164  0.2660  0.1483  0.0056
21089W        W34503  10.843   1.219   4.336  0.1848  0.1841  0.1359
21090W        W34504  11.917   4.020   0.544  0.1345  0.0285 -0.0461
21091W        W34505   2.348   3.303   2.165 -0.4713  0.1293 -0.0732
21092W        W34506   7.682   6.344   4.733  0.2075 -0.2765  0.0939
21093W        W34507  17.665   2.241  14.812  0.0658 -0.0739 -0.2190
21094W        W34508   2.030  11.600   0.502 -0.1355 -0.1977  0.1305
21095W        W34509   9.389   7.447  11.031 -0.0686  0.0673  0.4068
21096W        W34510  17.983  15.730   0.335  0.0466  0.0130  0.0444
21097W        W34511   0.906   8.880   4.617  0.1656 -0.2559  0.2675
21098W        W34512   0.334  10.056  15.748  0.2010  0.3340  0.0608
21099W        W34513  10.469   8.477  11.155 -0.2011 -0.1366 -0.3776
21100W        W34514  12.656   1.022   0.210  0.2583 -0.3989 -0.0005
21101W        W34515  16.929  17.056   1.398 -0.0306  0.1445 -0.1415
21102W        W34516  12.383  14.127  12.802  0.1264 -0.2520  0.0142
21103W        W34517   3.666  14.433   3.786 -0.0693 -0.1220 -0.0116
21104W        W34518  13.195  17.359   2.197 -0.0388 -0.1236  0.1167
21105W        W34519   1.140  13.903   1.349  0.1068 -0.0284 -0.3291
21106W        W34520  13.539   1.271   2.821  0.2167 -0.4206  0.0643
21107W        W34521   0.017   1.105   3.864  0.0422  0.0742 -0.1100
21108W        W34522   9.419  10.618   4.832  0.0481  0.1151  0.2021
21109W        W34523  10.169  11.551   0.828 -0.3760  0.0379 -0.2328
21110W        W34524  11.596   9.677   5.834 -0.1812 -0.2415 -0.0491
21111W        W34525  16.286  17.749  11.282  0.0436 -0.1854  0.1276
21112W        W34526   4.903   8.585   0.182  0.0577 -0.1574  0.0606
21113W        W34527  15.642  14.730   5.641 -0.0566 -0.1819  0.1158
21114W        W34528  10.517   5.578  12.722 -0.1826  0.0269 -0.0810
21115W        W34529  14.236   3.556   1.585 -0.4893 -0.0440 -0.2287
21116W        W34530   8.586   8.170   5.578  0.0525 -0.2159 -0.1893
21117W        W34531  13.068   8.993   2.033 -0.0334  0.1925  0.1661
21118W        W34532   0.297  17.737   3.721  0.5196  0.0493  0.0686
21119W        W34533  13.228   1.410   3.616  0.1465  0.1242  0.1760
21120W        W34534  17.079  11.768  10.812 -0.0022  0.3829  0.0412
21121W        W34535  16.096   6.357   4.103 -0.0624  0.3196  0.0583
21122W        W34536   1.149  13.311   0.133  0.0896 -0.0751 -0.2087
21123W        W34537   0.688  10.823  16.032 -0.2313 -0.0541 -0.2547
21124W        W34538   5.032   2.368   9.947  0.0445  0.1619  0.0903
21125W        W34539   0.886   6.129   6.477 -0.0866 -0.0251  0.1649
21126W        W34540   1.516   7.376  11.057  0.6539 -0.0709 -0.0236
21127W        W34541   2.353   0.054  16.123  0.2615 -0.1151 -0.1239
21128W        W34542  16.395  18.455  10.938 -0.0296  0.1316  0.4368
21129W        W34543   3.158  13.632  10.918  0.0273  0.1674 -0.1521
21130W        W34544  15.388   3.651   5.453  0.0171  0.1312 -0.0672
21131W        W34545   5.177   3.646   4.321  0.1717 -0.1410 -0.1516
21132W        W34546  17.026  14.566   0.920 -0.3832 -0.0745 -0.2294
21133W        W34547   2.287   3.531   0.209 -0.2200 -0.0387  0.0582
21134W        W34548   3.028   8.259  15.543 -0.2874  0.0625  0.1968
21135W        W34549   6.143   8.261   1.841 -0.0585 -0.0077  0.0561
21136W        W34550   7.339   5.440   3.977 -0.1104  0.1239 -0.2044
21137W        W34551   0.766   5.483   3.918 -0.4811  0.2532  0.3387
21138W        W34552   2.188  13.724  14.518  0.0651 -0.1647 -0.1107
21139W        W34553   7.726  11.899  16.063 -0.0373  0.2953  0.1027
21140W        W34554  10.379   9.382   1.278 -0.0107  0.1404 -0.2093
21141W        W34555  15.118  17.035  12.736 -0.1741  0.0329  0.0453
21142W        W34556   4.878  11.573  12.999 -0.0457  0.0596 -0.2638
21143W        W34557   0.822  16.032   4.966  0.0968 -0.1083  0.0103
21144W        W34558   3.324  18.185  15.277 -0.1114 -0.2230  0.3053
21145W        W34559  14.123  17.602   0.177 -0.1427  0.2729 -0.3644
21146W        W34560   6.492   1.357  15.518  0.0298 -0.0240  0.2311
21147W        W34561   9.520  15.380   2.083  0.0171  0.0024 -0.0732
21148W        W34562   9.005   6.674  11.589 -0.0575 -0.1287 -0.1282
21149W        W34563   2.245  11.285  13.974  0.1299  0.2177  0.1232
21150W        W34564  10.041  11.857   1.739  0.3191 -0.2922  0.0117
21151W        W34565  13.900   4.447   0.835  0.2523 -0.0472 -0.1370
21152W        W34566   8.979  13.406  11.124 -0.1770  0.0870  0.1773
21153W        W34567  18.332   3.973   1.102 -0.1486 -0.2345 -0.1139
21154W        W34568  12.212  15.171   4.390  0.2143  0.0351  0.1217
21155W        W34569  17.344   8.403  12.088 -0.0411  0.2328 -0.3033
21156W        W34570   1.864  17.898   2.926 -0.2773  0.0741  0.1641
21157W        W34571   3.175   6.882   2.436 -0.0427  0.1678 -0.0672
21158W        W34572   9.442  14.546   0.062 -0.0771 -0.0577 -0.0610
21159W        W34573   3.342   4.886  12.200 -0.1763 -0.0353  0.4218
21160W        W34574   0.578   4.968   2.658 -0.0048  0.1829 -0.1248
21161W        W34575   2.660  11.814  10.720  0.1052 -0.1959  0.1540
21162W        W34576   4.844   0.270  13.247  0.1118 -0.0624  0.0070
21163W        W34577  15.500  17.674   1.443  0.0397 -0.0234  0.2534
21164W        W34578  17.533  17.558   2.008  0.2124 -0.1560 -0.0408
21165W        W34579   4.992  14.318  11.826 -0.3986  0.0075  0.2135
21166W        W34580  10.754   0.573  14.165  0.1295 -0.0953 -0.1528
21167W        W34581  15.009  11.597  13.802  0.2498 -0.1753 -0.2756
21168W        W34582   0.170   3.620  11.125  0.2146 -0.3563  0.1484
21169W        W34583   6.191   7.277  11.078 -0.2530 -0.0891  0.1294
21170W        W34584   8.888   6.830   0.518 -0.1360  0.3803  0.0451
21171W        W34585  12.573  11.410   2.669 -0.4010  0.4429  0.3147
21172W        W34586  12.921  14.288  14.671  0.2374 -0.2433 -0.2022
21173W        W34587  18.015  14.593  14.489 -0.4303  0.3286 -0.2143
21174W        W34588   4.087   6.949   1.107 -0.2279 -0.1587  0.0043
21175W        W34589  17.159  17.802  14.259  0.1916  0.1776 -0.0144
21176W        W34590  13.838  18.352   2.390  0.0318  0.0301  0.1817
21177W        W34591   4.859  10.139  11.483 -0.2106  0.3488  0.2067
21178W        W34592  11.704  11.158   1.816 -0.1451 -0.0939  0.1819
21179W        W34593   4.541  18.401   3.778  0.0374  0.1675  0.0633
21180W        W34594  11.038  10.119  10.538 -0.0119  0.3165 -0.0078
21181W        W34595   1.894  11.467   0.053 -0.2187  0.0425 -0.0988
21182W        W34596  17.507  17.900  10.920  0.4008  0.4126 -0.2169
21183W        W34597  17.230   6.882   4.330  0.1715  0.1744 -0.0173
21184W        W34598  13.297   7.683  13.996 -0.0588  0.0240 -0.0806
21185W        W34599  17.830  15.891  15.714 -0.1324 -0.0633  0.1774
21186W        W34600  16.798  12.960  13.978 -0.1741  0.0722  0.0184
21187W        W34601  14.197   3.660  14.006  0.0792 -0.2495 -0.0383
21188W        W34602   4.822   8.640   3.371  0.2726  0.0886 -0.3457
21189W        W34603  15.254  14.225  13.577  0.3862 -0.0658  0.0663
21190W        W34604   3.800  16.739   1.116 -0.1214  0.2317  0.0341
21191W        W34605  16.036  10.626   1.645  0.0540  0.2895 -0.2253
21192W        W34606  10.533   9.609   6.008 -0.2693 -0.3542  0.0373
21193W        W34607  14.710   5.417  14.912  0.2030 -0.0450  0.1561
21194W        W34608  14.537   5.534   4.832 -0.0106  0.0581 -0.3903
21195W        W34609   8.444  11.495  11.279 -0.1811  0.0267 -0.1903
21196W        W34610  10.177   6.457   5.296  0.1189  0.1323 -0.0103
21197W        W34611  18.032   8.563   0.861 -0.3301 -0.1011 -0.0026
21198W        W34612  12.156   5.388   2.518 -0.2294  0.0518  0.1662
21199W        W34613  17.632  15.389   2.232 -0.0649 -0.1992  0.1335
21200W        W34614   2.051  10.899   3.195  0.0609 -0.0707  0.0491
21201W        W34615  14.142  11.322   1.540  0.4636 -0.2107  0.2830
21202W        W34616   5.656  17.138   1.844  0.0408 -0.4234  0.0966
21203W        W34617  11.121  14.322   4.450  0.2169  0.0239 -0.4777
21204W        W34618   3.140  13.261  10.337 -0.0383  0.1424 -0.0543
21205W        W34619   4.962  12.164  12.138  0.1504  0.1513 -0.1355
21206W        W34620   0.812  13.482  15.897  0.1980 -0.2602 -0.1370
21207W        W34621  10.482   5.068   3.524 -0.2044  0.1427  0.0850
21208W        W34622  14.154  15.115   4.067 -0.2202 -0.1610 -0.0884
21209W        W34623   9.993  14.021  13.435 -0.1256  0.2652  0.2334
21210W        W34624   9.057   1.702  13.927  0.0450 -0.2605 -0.0063
21211W        W34625   9.283  16.765   4.142  0.2370  0.1869  0.1753
21212W        W34626   7.158  14.382  15.331  0.3273  0.0317 -0.0785
21213W        W34627   1.423  15.909   4.209 -0.0093  0.2009 -0.3356
21214W        W34628  16.227  18.271   1.403  0.2713 -0.2388  0.1966
21215W        W34629  15.370   8.817   5.575  0.1567 -0.0016 -0.0750
21216W        W34630  17.274  11.144   5.975  0.0941  0.1972  0.2183
21217W        W34631   2.437  16.775   4.699 -0.1647  0.1452 -0.0980
21218W        W34632  15.787   2.717  15.889  0.0218 -0.0103  0.0681
21219W        W34633   6.352   0.849   9.850  0.2435  0.0682  0.1790
21220W        W34634  10.027  10.509   5.074  0.3003  0.0460  0.0344
21221W        W34635   9.830  10.341  11.327  0.0195 -0.2375  0.1715
21222W        W34636   4.856   2.734  10.818 -0.1083  0.1112  0.0476
21223W        W34637   3.080   5.728   0.931  0.4921  0.0676  0.0782
21224W        W34638  13.292   4.849  14.240  0.1180 -0.2750  0.0272
21225W        W34639  10.957   8.354   2.296 -0.2480 -0.0569 -0.1098
21226W        W34640   6.220  13.993  10.218 -0.2755 -0.0665  0.0786
21227W        W34641   1.475  14.891  13.155  0.1930 -0.0519 -0.2316
21228W        W34642   1.434  15.523  11.332  0.1273  0.0611 -0.1698
21229W        W34643  12.077   3.423   4.266 -0.0616 -0.1530  0.1681
21230W        W34644   5.462  11.546   1.997  0.1833 -0.0771 -0.3393
21231W        W34645   7.116   5.351   1.462 -0.3011 -0.0085  0.1700
21232W        W34646   5.411   0.917  13.171 -0.3253  0.1197  0.0676
21233W        W34647  14.380  15.600   4.171 -0.0855 -0.2204  0.2045
21234W        W34648   1.839  15.780  12.777  0.0802  0.2436 -0.2682
21235W        W34649  14.597   3.039  14.296 -0.0807 -0.4130 -0.5223
21236W        W34650   8.227   9.353  13.161  0.1586  0.1589 -0.1265
21237W        W34651  10.698   4.562  15.427  0.0661 -0.1644 -0.1304
21238W        W34652  14.723  11.915  13.448  0.2520  0.1190 -0.1235
21239W        W34653  11.476   1.713   1.405  0.2436  0.1573 -0.0827
21240W        W34654  10.445   3.838  11.388  0.0521  0.1659 -0.0494
21241W        W34655  13.619   9.132   3.082  0.3625 -0.4380 -0.2457
21242W        W34656  10.625   7.053   3.740 -0.2335 -0.1783  0.2720
21243W        W34657  17.531  10.786   0.902 -0.3702 -0.1717  0.3215
21244W        W34658   4.061  11.884  14.666  0.1882  0.1492  0.1173
21245W        W34659   6.069   2.449   4.969  0.0474  0.1488  0.0620
21246W        W34660  16.105  14.030   4.091 -0.2621  0.2789  0.0288
21247W        W34661   5.362   9.637  11.049  0.1946  0.0912  0.2644
21248W        W34662   8.594  10.673   4.872 -0.2853  0.0248 -0.2215
21249W        W34663  13.165  14.830   4.458  0.1259  0.1544 -0.0213
21250W        W34664   4.122  15.266  13.213 -0.2052  0.1168  0.0787
21251W        W34665   8.596   8.162   4.072  0.0068  0.1268  0.0047
21252W        W34666  16.660  12.126  15.727 -0.1110 -0.0154  0.4088
21253W        W34667   0.617  15.296   2.404 -0.1538 -0.1055  0.0130
21254W        W34668  11.668  18.021  14.811  0.1981  0.2981  0.4608
21255W        W34669  11.086   6.676  15.487 -0.0411  0.0019  0.0723
21256W        W34670  10.744  10.473  10.208 -0.1285  0.0920 -0.1547
21257W        W34671   2.450  14.226  11.699  0.2266  0.2059  0.1050
21258W        W34672  17.584   0.052   0.748  0.3733  0.0608  0.0445
21259W        W34673   5.097  13.557   4.896  0.0122 -0.3281  0.0196
21260W        W34674   9.357   0.558  15.207  0.0172  0.4236  0.1771
21261W        W34675   3.126  18.055   2.099 -0.1775  0.0535 -0.1907
21262W        W34676   5.419   7.761  13.208 -0.0880  0.1468 -0.1788
21263W        W34677  15.938   0.511   1.143 -0.0606 -0.1746  0.2315
21264W        W34678   9.590   8.964  16.209 -0.0697 -0.0196  0.0797
21265W        W34679  14.527   3.597   3.488 -0.2671  0.1829 -0.0646
21266W        W34680   4.360   3.017   4.616 -0.0145  0.2638  0.1521
21267W        W34681  17.992   7.014   2.069 -0.3115  0.0463  0.0723
21268W        W34682  13.220   8.759   5.357 -0.2311  0.1895  0.4130
21269W        W34683  14.064   2.407  13.812  0.0471 -0.0829  0.0042
21270W        W34684   8.175  10.754  13.569 -0.0677  0.3684  0.1663
21271W        W34685   8.378  14.139  11.494 -0.1565 -0.1284  0.0666
21272W        W34686  13.666  11.386   5.398  0.3207  0.2755 -0.0091
21273W        W34687   8.223  10.140   6.127 -0.0045  0.1462  0.3305
21274W        W34688   5.273  16.376  10.969  0.0545 -0.0539  0.0451
21275W        W34689   9.927   3.290  14.253 -0.1372 -0.0024 -0.0142
21276W        W34690   4.840  11.901  13.936 -0.0438 -0.3152 -0.2257
21277W        W34691   3.326   3.782   0.318 -0.1166  0.2088  0.1903
21278W        W34692   5.370   8.105  11.957 -0.0806  0.0692  0.1531
21279W        W34693   3.731   1.911   3.284  0.1401 -0.1837  0.0906
21280W        W34694  14.537  17.852  12.675 -0.1390  0.0954  0.0635
21281W        W34695  12.547   2.742   1.576  0.2278 -0.0440 -0.1141
21282W        W34696  16.856  14.879  15.408  0.0052 -0.0199 -0.1463
21283W        W34697  17.813   6.351  14.352 -0.0364  0.1327  0.2098
21284W        W34698  15.285   3.831  15.510 -0.0968 -0.1915 -0.0480
21285W        W34699  18.320  16.231   5.126  0.0342  0.1801 -0.0640
21286W        W34700  14.680  12.090   3.712  0.2712 -0.3546 -0.0354
21287W        W34701  17.244   1.959   3.275  0.3144  0.1547  0.0584
21288W        W34702   4.189   4.749  15.945  0.0704 -0.1387  0.1365
21289W        W34703   2.918   8.746  13.787  0.0962  0.1432  0.2000
21290W        W34704  16.222   8.283   4.235 -0.3136 -0.1847 -0.0443
21291W        W34705  17.874   8.559   1.886 -0.0758 -0.2129 -0.0131
21292W        W34706   4.416   8.234  14.832 -0.0486  0.0447  0.0352
21293W        W34707  15.183   1.366   4.556  0.0610 -0.1336 -0.0573
21294W        W34708  12.481   9.624  14.270 -0.2171 -0.1040  0.1019
21295W        W34709  16.846   2.325   5.037 -0.0990 -0.1060  0.1229
21296W        W34710  15.632  11.790   3.866 -0.0242 -0.1407 -0.3377
21297W        W34711  11.792   2.885   0.640  0.0936 -0.1455  0.0211
21298W        W34712   5.147   5.314   5.412 -0.0088  0.0381 -0.0472
21299W        W34713  12.552   1.323  10.605  0.0951  0.2459 -0.0856
21300W        W34714   7.552  11.017  15.108  0.3371 -0.0700 -0.2071
21301W        W34715  12.557  15.838   2.024 -0.0154  0.2266  0.2127
21302W        W34716   1.976  16.842   3.356  0.0109 -0.1385  0.1862
21303W        W34717   8.187   6.917  14.154  0.0566  0.1104  0.0009
21304W        W34718   3.400  16.020   4.069 -0.2200 -0.1187 -0.0405
21305W        W34719   7.350  10.997  11.796 -0.6194 -0.0457  0.0088
21306W        W34720   8.204  10.331  10.805 -0.1782 -0.1870 -0.2828
21307W        W34721  14.282  13.154   5.110  0.1091  0.0597  0.0900
21308W        W34722  15.925  12.348   4.517 -0.2694 -0.1096  0.0641
21309W        W34723  12.162  12.151   3.016  0.0221 -0.0928 -0.6227
21310W        W34724  14.713  16.929  14.519 -0.1631 -0.0593 -0.2660
21311W        W34725  17.267  13.962  12.754  0.0712  0.1635  0.1635
21312W        W34726  13.187   3.230   0.244 -0.0123  0.0160 -0.0956
21313W        W34727   2.584   9.739   1.900  0.4188  0.0287  0.3375
21314W        W34728  13.140  14.560   1.632  0.3938  0.2902  0.2284
21315W        W34729  10.430   3.377   5.870 -0.2389 -0.1508 -0.1359
21316W        W34730  16.525  10.642   3.098 -0.1002  0.1411  0.0067
21317W        W34731   4.672   7.067  12.578  0.0177  0.2268  0.1923
21318W        W34732  11.894  11.150  12.750 -0.0643 -0.0114  0.0671
21319W        W34733  13.803  14.482  12.693 -0.3155 -0.0869  0.0755
21320W        W34734   3.614   5.435   0.419 -0.0384 -0.3874 -0.3092
21321W        W34735   0.356   9.176  14.917  0.3064  0.2632 -0.1101
21322W        W34736  17.548   8.662   2.819 -0.2193 -0.0547 -0.0085
21323W        W34737  18.521  11.301  13.770  0.0310 -0.3375 -0.0256
21324W        W34738  10.829  12.517  10.568 -0.2183  0.0907 -0.2478
21325W        W34739   8.448   3.311  11.022  0.1315 -0.1399  0.3098
21326W        W34740   5.755  17.866  12.186 -0.0313 -0.1312 -0.1099
21327W        W34741  14.087  12.813   3.314  0.0108 -0.1207  0.0444
21328W        W34742   3.606   8.715  12.023 -0.1111  0.2588  0.1415
21329W        W34743  18.030   1.289   3.722 -0.1852  0.2174 -0.3001
21330W        W34744  17.912   3.054   5.422  0.1682 -0.2678  0.0844
21331W        W34745   6.313  11.051  15.739 -0.1767  0.0025 -0.2969
21332W        W34746   6.247   7.640   4.540 -0.4105 -0.0913 -0.1168
21333W        W34747   1.536   9.451   2.916  0.1074  0.0401  0.3283
21334W        W34748   2.928   2.032  12.540  0.1719  0.2219 -0.0682
21335W        W34749   3.961  14.242   5.675  0.2308  0.2369  0.2144
21336W        W34750   3.820   3.206  14.661 -0.2478  0.2483 -0.1366
21337W        W34751  15.197   7.187  11.288  0.1523  0.0429  0.0521
21338W        W34752  12.282  15.372  15.942 -0.0784 -0.2913 -0.0197
21339W        W34753  11.395   7.365  11.155 -0.2081 -0.1774  0.2371
21340W        W34754   8.772   0.502   3.348  0.0728  0.0743 -0.5861
21341W        W34755  12.176   0.414   3.363  0.2938 -0.2746 -0.3084
21342W        W34756  17.221   7.890   3.433  0.3395  0.2641  0.1529
21343W        W34757  13.036   1.420   0.224 -0.1811  0.1853  0.0102
21344W        W34758  14.869  17.477  12.790 -0.0053 -0.1682 -0.0750
21345W        W34759  10.071   9.507  16.157 -0.3758 -0.0512 -0.1527
21346W        W34760   7.674   5.221   0.394 -0.2168  0.1219 -0.2849
21347W        W34761  17.178   7.831   1.426 -0.1314  0.0893  0.0417
21348W        W34762  12.679   7.422   3.954 -0.1278 -0.2649 -0.1657
21349W        W34763   9.099   7.318   4.434  0.1791  0.3267 -0.1866
21350W        W34764  16.086   1.902   0.933  0.4529 -0.1550  0.2222
21351W        W34765   8.828  11.294  13.801 -0.1819  0.0518 -0.3097
21352W        W34766   5.199   6.751  12.174 -0.1493  0.4296  0.0395
21353W        W34767   0.217   9.162   2.309 -0.0476 -0.0506  0.3383
21354W        W34768   5.036   1.252  15.730  0.2292 -0.2058  0.1683
21355W        W34769  16.664  14.129   5.767 -0.3682 -0.2135 -0.3959
21356W        W34770  13.836  16.567  12.261  0.0989 -0.0138  0.0778
21357W        W34771   7.193   9.733  12.922  0.0123  0.1023  0.1572
21358W        W34772  16.319   5.426   0.529 -0.1984  0.3650 -0.0909
21359W        W34773   5.673   6.482  10.490  0.1988  0.1101 -0.1375
21360W        W34774   6.602   0.793   3.424 -0.1670  0.0666 -0.1009
21361W        W34775  14.021  16.330  11.246 -0.1886  0.3184 -0.1710
21362W        W34776  12.260   5.041  12.183 -0.0582  0.2242  0.2779
21363W        W34777  18.141  16.295  15.943  0.2442  0.1153  0.2482
21364W        W34778  11.035   1.637   1.185 -0.2915  0.0669  0.0582
21365W        W34779  15.069   6.819   1.544  0.2813 -0.0057 -0.2144
21366W        W34780   6.091  14.253   3.990 -0.0493 -0.1053 -0.2879
21367W        W34781   4.740   1.463   5.231  0.0766 -0.0915 -0.1023
21368W        W34782   1.495  12.181   4.865  0.0921 -0.0137  0.0523
21369W        W34783   6.317   7.045  14.677  0.3553 -0.1085 -0.1276
21370W        W34784   1.388   5.349   3.019 -0.1600 -0.1081  0.2594
21371W        W34785   1.845   0.236   6.414  0.0847 -0.0191  0.2954
21372W        W34786   8.614   0.241   4.289 -0.1252 -0.1363  0.1999
21373W        W34787   9.660   4.411   2.067  0.1231 -0.3548  0.3323
21374W        W34788  14.396   3.147  11.478  0.0238  0.2066  0.2285
21375W        W34789  14.103  13.492   4.646 -0.4277 -0.2312  0.0953
21376W        W34790   3.816   1.436  13.791  0.0645 -0.0326 -0.2628
21377W        W34791  13.640  15.504  13.877 -0.1814  0.2642  0.0141
21378W        W34792  17.605   6.599   5.839  0.0387  0.2414  0.2377
21379W        W34793   0.642   5.313  14.750 -0.1184  0.3718 -0.0272
21380W        W34794   9.260  17.719  10.913  0.0053 -0.2715 -0.1350
21381W        W34795   2.029  17.842  13.520  0.2036  0.0351 -0.2953
21382W        W34796   6.341   4.487  15.232  0.3090  0.0079  0.0243
21383W        W34797   5.779   4.736  11.542 -0.0271  0.2901  0.0802
21384W        W34798  14.032   2.251  12.801 -0.3183 -0.0726 -0.1413
21385W        W34799  17.785   4.335   4.383  0.3963 -0.1438 -0.3301
21386W        W34800   1.449  14.584  15.526 -0.2575  0.1368 -0.0095
21387W        W34801   8.202   9.063  11.783 -0.2959  0.1132  0.0388
21388W        W34802  10.743   3.958   5.171 -0.0819 -0.3003  0.3414
21389W        W34803  11.326  16.916   0.484  0.1778  0.0933  0.0601
21390W        W34804   7.762   5.988   5.701 -0.0714  0.1830 -0.0387
21391W        W34805   6.223   2.933  11.226 -0.1362 -0.5184  0.1176
21392W        W34806   2.289  14.316  10.045  0.1226  0.4188 -0.0892
21393W        W34807   8.060   2.245  14.822 -0.0326  0.1082 -0.2686
21394W        W34808   0.682   4.501  16.027 -0.2105 -0.3511 -0.2598
21395W        W34809   2.176  14.772   4.373 -0.0723 -0.0132  0.1538
21396W        W34810  15.024   8.802   6.392 -0.0137  0.0561 -0.0204
21397W        W34811   8.963   7.737   3.121 -0.1126 -0.1995  0.0586
21398W        W34812   3.731  14.276  14.575  0.1247 -0.0812 -0.2730
21399W        W34813   2.670   0.818  14.897 -0.2402 -0.0867  0.2490
21400W        W34814  16.565   2.917  12.654 -0.1204  0.0437  0.1598
21401W        W34815  11.032  12.799   5.565 -0.0566  0.0866 -0.3278
21402W        W34816   4.902  14.868   5.220  0.0082 -0.0365  0.3487
21403W        W34817   6.142  16.444  11.674 -0.0632 -0.1676  0.0190
21404W        W34818   8.304   1.470  11.171 -0.0951  0.2926  0.2538
21405W        W34819  16.531  14.346  13.062  0.2746  0.2218 -0.1228
21406W        W34820   0.887   4.552   2.691 -0.0141  0.3405 -0.1397
21407W        W34821   2.698  14.025  13.091  0.3532  0.0744  0.0376
21408W        W34822  16.336   3.435   4.577  0.0191 -0.0768 -0.2975
21409W        W34823   9.579  11.560  15.026 -0.3008  0.2066  0.1380
21410W        W34824   2.867   1.178  10.227  0.0957  0.0287 -0.0003
21411W        W34825   4.438   9.780   5.383 -0.1199 -0.1608 -0.0790
21412W        W34826   4.283  13.446  15.487 -0.1424 -0.0401 -0.3527
21413W        W34827  12.013  17.657  11.766 -0.2646 -0.0837 -0.0525
21414W        W34828   6.335  10.334  15.818 -0.1408 -0.0227  0.1971
21415W        W34829  11.118  10.824   4.905 -0.1267 -0.0523  0.0755
21416W        W34830   0.172   1.472  10.681 -0.0680 -0.4112 -0.1566
21417W        W34831  10.763   4.626   2.798 -0.0389 -0.1063 -0.0774
21418W        W34832   6.950   5.716   1.882 -0.0404 -0.0162 -0.0463
21419W        W34833  16.889   5.086   2.577  0.0998 -0.2748 -0.2411
21420W        W34834   3.738  16.104   2.065  0.2239 -0.1099 -0.1162
21421W        W34835   9.301  13.829  11.211  0.2107 -0.0650 -0.0175
21422W        W34836   3.480   5.897   0.642  0.3867 -0.2127  0.1026
21423W        W34837  11.311   6.339  14.718 -0.1135  0.1096 -0.3065
21424W        W34838   4.659   3.464  11.972  0.1002  0.1060 -0.1418
21425W        W34839   9.647  17.664   1.428 -0.0799 -0.0962 -0.3657
21426W        W34840   1.866  15.576   4.355 -0.4022  0.0135 -0.3350
21427W        W34841  13.454   0.752  11.615 -0.0675  0.1919  0.0571
21428W        W34842   4.954   2.727  14.333 -0.3512  0.1809 -0.0360
21429W        W34843  12.810  11.407   0.373  0.2693 -0.0788  0.0989
21430W        W34844  14.752   4.022   0.949 -0.1061  0.0099  0.0055
21431W        W34845   0.196   3.113   5.478 -0.5450 -0.2216 -0.0439
21432W        W34846  15.406   0.258   0.401 -0.3959  0.3364 -0.0078
21433W        W34847   8.161   5.917  14.491 -0.1778  0.0729  0.1155
21434W        W34848  15.661   0.406  13.696  0.0330 -0.1283 -0.1386
21435W        W34849   6.826   3.800   6.306 -0.2390  0.0039 -0.1507
21436W        W34850  11.137   0.468  15.057 -0.4976 -0.1536  0.1758
21437W        W34851  10.720   5.060   5.645  0.3532 -0.1620 -0.1682
21438W        W34852   8.377  13.330  11.081 -0.0623 -0.2569  0.2343
21439W        W34853   3.829  12.232  15.928  0.2176 -0.1113 -0.1160
21440W        W34854   3.603  13.546   0.572  0.2692  0.0224  0.1391
21441W        W34855   5.145   7.114  10.250  0.2691  0.2368 -0.0408
21442W        W34856   3.916  15.103  10.256  0.1033  0.1253 -0.1867
21443W        W34857  15.253   5.806   2.502  0.0524 -0.0292  0.0456
21444W        W34858   5.467   2.308  13.468  0.2403  0.3079 -0.0389
21445W        W34859   1.581   7.296  12.817  0.1696 -0.2837 -0.1751
21446W        W34860   9.864  16.407   4.591 -0.0739  0.0737 -0.0264
21447W        W34861   8.147   7.026   5.433 -0.0236  0.2358 -0.2681
21448W        W34862   4.834   4.113  14.476 -0.0666 -0.4260 -0.1369
21449W        W34863   8.144  15.728  15.078  0.1155 -0.2297  0.2106
21450W        W34864   6.236   9.690  13.636  0.1618  0.2347  0.0378
21451W        W34865   6.952   6.498  13.559 -0.1391  0.1722  0.0971
21452W        W34866   1.306   1.169  11.267 -0.0585 -0.1968 -0.3273
21453W        W34867  15.772  14.241  10.474  0.1393  0.3695  0.0321
21454W        W34868   0.597  13.391  13.727  0.0455  0.2876 -0.0355
21455W        W34869  17.491  14.533   6.439  0.2220 -0.2494  0.0475
21456W        W34870  16.489  17.095   0.609  0.0522 -0.1945 -0.2450
21457W        W34871   2.005  11.608   3.534  0.0389 -0.1548  0.0343
21458W        W34872   7.770   1.496   2.344 -0.1917  0.2608 -0.1833
21459W        W34873   1.310   0.028  14.837  0.0649  0.1019 -0.0819
21460W        W34874  15.213  10.097  12.938  0.1361  0.2657  0.2326
21461W        W34875   5.901  13.710  16.010  0.1759  0.1503  0.2129
21462W        W34876  12.559   9.012   5.033 -0.0416  0.1593 -0.2366
21463W        W34877  10.883  13.535   0.696 -0.0756 -0.2059 -0.1799
21464W        W34878   7.158  10.118   1.133  0.0695 -0.0123  0.0385
21465W        W34879   8.488  14.067   1.801 -0.2110 -0.2998  0.1752
21466W        W34880   5.059   4.391  11.582  0.0032 -0.1894 -0.1907
21467W        W34881   9.845  18.045   4.618 -0.0292  0.1283 -0.3037
21468W        W34882   9.610   4.587   6.211 -0.0289 -0.0637  0.0918
21469W        W34883  15.939  11.671  11.072 -0.0445 -0.1225 -0.3482
21470W        W34884  16.661   5.051   5.753 -0.2647  0.0722  0.1351
21471W        W34885   4.867  17.432   1.598 -0.1850  0.1611  0.0888
21472W        W34886   8.154   4.357   1.800  0.0085  0.3815  0.2910
21473W        W34887   8.913   6.238  12.460 -0.4474 -0.1406  0.3519
21474W        W34888  15.360  15.614   1.812  0.3021 -0.1796 -0.0710
21475W        W34889  16.254   8.747   2.902 -0.0757 -0.0144 -0.0738
21476W        W34890   9.559  16.687   0.195  0.0293  0.0745 -0.3268
21477W        W34891  17.516   4.272   2.937  0.0050 -0.1854  0.0348
21478W        W34892  10.689   2.232  12.435 -0.1156  0.0825  0.0295
21479W        W34893   6.998   7.578  14.956 -0.1473 -0.1068  0.3843
21480W        W34894   1.731   3.452  11.290 -0.1443  0.2534 -0.0912
21481W        W34895  17.746  13.288  13.244 -0.0584 -0.0416  0.1187
21482W        W34896   9.636   2.782  10.729 -0.0865  0.0793 -0.0825
21483W        W34897  16.986   3.733  12.920 -0.2903  0.1801 -0.0859
21484W        W34898  14.818   1.886  14.419 -0.0848  0.0958  0.1354
21485W        W34899   4.605   5.241  15.610  0.2775  0.3405  0.0703
21486W        W34900   5.917   0.949  12.659 -0.0680 -0.0522  0.0012
21487W        W34901   8.979  11.371   0.863 -0.2507  0.0171  0.2579
21488W        W34902   3.432  13.814   2.484  0.2371  0.2529  0.0933
21489W        W34903   7.892   7.569  14.268 -0.2366  0.0215  0.1810
21490W        W34904   6.422   2.010  14.204 -0.1905 -0.2128 -0.0973
21491W        W34905   9.391  10.861   4.319 -0.0989 -0.1723 -0.0013
21492W        W34906  10.861   2.612  11.012  0.1223  0.3541  0.3555
21493W        W34907  14.029  12.024   2.866 -0.1072 -0.0770 -0.0792
21494W        W34908   7.798   8.655  13.390  0.2903  0.0662  0.1696
21495W        W34909   0.079  17.374   1.515 -0.3567  0.0797  0.4400
21496W        W34910  13.480  14.656   5.496  0.2157 -0.0115 -0.1048
21497W        W34911   4.326   6.300   4.827 -0.0968  0.2197 -0.0898
21498W        W34912   3.082   6.102  16.150  0.2917  0.1019 -0.0155
21499W        W34913   3.791   6.473  11.214 -0.2807  0.1044 -0.2688
21500W        W34914   0.624   9.784  12.711 -0.1482  0.3431  0.1883
21501W        W34915   5.888  16.583  15.853 -0.1332  0.0084 -0.1517
21502W        W34916   0.376   9.849  10.979 -0.0480  0.1058 -0.2710
21503W        W34917   5.065   9.168  13.204  0.1070  0.0048 -0.1248
21504W        W34918  16.600   0.753   0.660  0.2998  0.0051  0.2468
21505W        W34919  18.060  15.284  13.255  0.1290  0.0637  0.0652
21506W        W34920   9.675   4.508  11.941  0.0166 -0.1836 -0.2977
21507W        W34921   3.700   6.100  14.032 -0.0648 -0.0906  0.1948
21508W        W34922   6.363  14.406  10.851 -0.0488 -0.1287  0.0399
21509W        W34923   1.604   1.677   5.804 -0.0757 -0.0990  0.1593
21510W        W34924   0.689  17.944   1.805 -0.3837  0.1175 -0.1117
21511W        W34925  18.005   7.649  13.157  0.0526  0.0945  0.2277
21512W        W34926   5.389  11.410   2.685  0.0325  0.0812  0.0160
21513W        W34927   2.983   0.423  13.914 -0.1903  0.0795 -0.0443
21514W        W34928   1.894   6.889   2.836 -0.2720 -0.0514 -0.3616
21515W        W34929  12.569  14.143   1.142  0.1179 -0.1174 -0.1561
21516W        W34930   9.770   5.341   1.304  0.1467 -0.1208  0.0006
21517W        W34931   6.676   1.254   3.202  0.0351  0.0225 -0.2674
21518W        W34932   0.970   9.978   4.418 -0.1725  0.2618 -0.0149
21519W        W34933  17.199   6.636  11.472  0.4643  0.1259 -0.1758
21520W        W34934   4.845   8.593   2.363 -0.0714 -0.0993 -0.1919
21521W        W34935   2.280   8.881  14.790  0.0101  0.0720 -0.0047
21522W        W34936  16.990  13.434   6.076 -0.3555 -0.0831 -0.2192
21523W        W34937   8.348   6.715   2.996 -0.1753  0.1808 -0.0511
21524W        W34938  18.128   3.514   1.344 -0.0501  0.1564 -0.1462
21525W        W34939   2.149  17.576   4.777 -0.5328 -0.3406  0.1883
21526W        W34940  10.568  16.542  11.144 -0.4348  0.1441 -0.0140
21527W        W34941   7.958   5.864   3.956  0.2060 -0.4318 -0.1089
21528W        W34942  18.031   9.949  14.544 -0.4977 -0.0841  0.1462
21529W        W34943   4.981  10.157   2.390  0.2155  0.2046  0.2331
21530W        W34944   4.415   0.212  12.375  0.0394 -0.2462  0.0494
21531W        W34945   1.386  15.438   4.476  0.0787 -0.1062  0.1503
21532W        W34946  17.173   3.685  12.039 -0.1016  0.1331 -0.1557
21533W        W34947  15.980  15.028  15.187 -0.0182  0.1339 -0.0919
21534W        W34948   8.777   1.670  12.070  0.2592 -0.0625 -0.1726
21535W        W34949   6.798  17.646   1.749  0.1435  0.5090 -0.1664
21536W        W34950   0.986  10.541   2.158  0.1961  0.3360  0.1368
21537W        W34951  18.081   3.390   4.288 -0.1951  0.1477 -0.4064
21538W        W34952   2.397  17.842   0.313 -0.1528  0.0764 -0.0461
21539W        W34953  16.627   3.922  15.374  0.2070  0.2146  0.0853
21540W        W34954  14.995  13.962   4.028 -0.1111 -0.1573 -0.0853
21541W        W34955   2.229   8.763  10.859 -0.2044 -0.0499  0.1005
21542W        W34956  11.700   3.188   4.911 -0.1186  0.0505  0.1176
21543W        W34957  15.331  16.527   1.661  0.0216  0.0457 -0.0222
21544W        W34958   9.123   9.405   1.736 -0.2547  0.1595  0.0021
21545W        W34959   5.795  10.810   4.736  0.2153  0.1398 -0.1806
21546W        W34960  12.306  11.469   3.568  0.3707  0.0080 -0.0766
21547W        W34961  14.066  12.691   0.556  0.2056 -0.0844  0.1687
21548W        W34962  10.935   8.729  13.443  0.0455 -0.1356  0.1472
21549W        W34963  10.947   2.334   2.778 -0.2720 -0.0980 -0.0404
21550W        W34964   8.563   1.757   0.330 -0.1625  0.0555 -0.0811
21551W        W34965  16.618  16.177   4.749 -0.2267 -0.1634  0.1276
21552W        W34966   4.569   4.261   1.647 -0.0742 -0.1236  0.0221
21553W        W34967   3.806  15.203  12.030 -0.0620  0.0831  0.4527
21554W        W34968   2.032  14.094  11.936 -0.0390 -0.1822 -0.1563
21555W        W34969   1.952   8.575   4.513  0.0173 -0.0003  0.3594
21556W        W34970   1.934   5.506   4.919 -0.2536  0.0763 -0.0924
21557W        W34971  14.663   7.801   6.347 -0.2402  0.1190  0.2527
21558W        W34972  16.151   5.100   0.127  0.0949  0.0998 -0.1045
21559W        W34973  15.093  17.436  15.436 -0.0373 -0.4951  0.0302
21560W        W34974  11.049  10.500   6.925  0.0763  0.1286 -0.4127
21561W        W34975   3.047  13.359  12.783  0.2304  0.1799 -0.2201
21562W        W34976  13.350  13.075  14.521  0.0962  0.2198 -0.1174
21563W        W34977   0.174  10.675   2.786  0.4699 -0.2266  0.4484
21564W        W34978   1.607   5.602   3.575  0.0675 -0.0508 -0.1944
21565W        W34979   4.316   3.876   5.818  0.0817  0.1816 -0.1960
21566W        W34980  12.834   9.559   2.081 -0.1972 -0.3070  0.1769
21567W        W34981   0.380   9.184  12.069 -0.0609  0.0340  0.0307
21568W        W34982   6.120   5.132   1.068 -0.0641 -0.1646  0.1163
21569W        W34983   5.541  17.716  13.812 -0.0784 -0.2006 -0.1986
21570W        W34984  10.564  10.021  14.405 -0.2531 -0.2334  0.0623
21571W        W34985  15.769   3.306   1.511 -0.1679  0.1927 -0.0356
21572W        W34986  12.547   3.355  10.654 -0.1250 -0.0181  0.2255
21573W        W34987  17.084  11.253  14.674  0.2698 -0.1761 -0.2427
21574W        W34988   2.563   9.616   3.170 -0.2366  0.1041 -0.0092
21575W        W34989  11.349  14.412  15.787 -0.2960  0.2627 -0.1239
21576W        W34990   0.509   5.767  16.160  0.1644 -0.1852 -0.3812
21577W        W34991   8.300  17.310  14.353  0.0672 -0.2200  0.0848
21578W        W34992   2.016   9.965   4.295 -0.1881 -0.0232  0.1979
21579W        W34993  13.898   9.139  13.264  0.1758 -0.2464  0.2267
21580W        W34994   8.312   5.518  11.303  0.1529  0.1530  0.0424
21581W        W34995  16.274   6.897  15.397  0.1429  0.2199 -0.3200
21582W        W34996   1.987   3.921   3.584 -0.0921  0.2275  0.0872
21583W        W34997   0.012   7.532  12.196 -0.1823 -0.1442 -0.1520
21584W        W34998  10.146  15.149   1.984  0.2771 -0.1067  0.0694
21585W        W34999   0.246  14.525   0.140 -0.0469  0.0294  0.0441
21586W        W35000   1.132   1.928   2.079  0.0849 -0.2274 -0.1251
21587W        W35001  18.106  14.492  12.836  0.2614 -0.2940  0.2444
21588W        W35002   1.475  17.871  10.731 -0.2435 -0.1521  0.1590
21589W        W35003   0.733   8.534  15.419  0.0764  0.0935  0.0875
21590W        W35004  18.215  14.742   4.920  0.2485 -0.2364 -0.1898
21591W        W35005  15.589  11.552   6.237  0.1171  0.0729 -0.1877
21592W        W35006   6.317   9.580  10.150  0.1576  0.3805 -0.0890
21593W        W35007   8.353  11.910   4.998 -0.0659  0.0072  0.0195
21594W        W35008  16.934   7.402  10.332  0.4530 -0.2827 -0.1348
21595W        W35009   2.711   6.989  13.595  0.0496  0.2578  0.0983
21596W        W35010   9.696  11.049  13.243 -0.0121  0.2144 -0.1160
21597W        W35011  14.628  15.856   0.444  0.2758  0.3981  0.1305
21598W        W35012   5.180   2.120  13.817  0.0764  0.2675  0.0164
21599W        W35013   1.802  12.050  13.933  0.1409  0.1454  0.0049
21600W        W35014   0.056   5.776   4.588  0.1176 -0.0864 -0.2562
21601W        W35015   9.853  11.703  13.425 -0.0833  0.2029  0.3506
21602W        W35016   2.385  16.302   1.029 -0.0157 -0.1394 -0.2333
21603W        W35017   8.782   9.673   4.952 -0.1856  0.2164  0.1075
21604W        W35018   0.090  14.458   2.381  0.2192 -0.2929  0.1634
21605W        W35019   4.318   0.837  12.735 -0.1499  0.0189 -0.0183
21606W        W35020   5.422   6.716  15.485  0.4972 -0.1977 -0.1980
21607W        W35021   3.598   8.205  11.826 -0.1119  0.0695 -0.0134
21608W        W35022  12.473  17.844  15.827 -0.1552 -0.3718 -0.1300
21609W        W35023   6.839   2.267  11.442  0.2003  0.2354  0.0042
21610W        W35024   4.341   9.974  11.942  0.2673 -0.3242  0.2811
21611W        W35025   8.475   2.130   0.635 -0.0644 -0.2570  0.0868
21612W        W35026   9.337   8.601   3.709  0.0797  0.1301 -0.1735
21613W        W35027  15.772   3.715   0.386  0.0090 -0.0623 -0.2942
21614W        W35028   6.286  15.985   5.653 -0.2446 -0.0651 -0.1069
21615W        W35029  18.093  13.807   0.247 -0.0971  0.0896  0.2328
21616W        W35030  15.067  13.102   4.500 -0.0922  0.1618  0.1226
21617W        W35031   3.435  17.599  11.307  0.1159  0.0035 -0.4418
21618W        W35032  10.259   7.084   0.982 -0.2395  0.1376  0.0358
21619W        W35033  14.700  16.937  12.508  0.0848 -0.1713  0.0319
21620W        W35034  11.752  14.181   3.787  0.0558  0.2084  0.0382
21621W        W35035   4.004   2.907   6.065  0.1264  0.0442 -0.0995
21622W        W35036   7.156   1.922  13.642 -0.0742 -0.0315  0.0259
21623W        W35037   4.418  10.705   0.606 -0.0351  0.2534  0.0711
21624W        W35038   5.089  12.261  10.727  0.3435 -0.1506 -0.2888
21625W        W35039  12.700   8.705  13.041 -0.1027 -0.6348  0.2819
21626W        W35040   8.091   6.743   0.378 -0.3833 -0.0956 -0.0055
21627W        W35041  15.519   9.095   0.699 -0.0311 -0.0879 -0.2553
21628W        W35042   8.741  17.866  12.152 -0.0730  0.0768 -0.0665
21629W        W35043   7.867   1.011   5.590 -0.0580  0.0987  0.2370
21630W        W35044   4.690  12.878  15.024 -0.1048 -0.0580 -0.1891
21631W        W35045   3.692   3.421   1.075 -0.0887  0.1708 -0.2222
21632W        W35046  10.917  15.477  14.489 -0.0529 -0.1012  0.1065
21633W        W35047   8.683  14.564  15.830 -0.3586  0.1723 -0.0597
21634W        W35048   0.064   7.112  12.519  0.0917 -0.2707 -0.0775
21635W        W35049   3.873  16.152   3.338  0.0428 -0.0945 -0.2626
21636W        W35050  12.422  10.404  10.928 -0.1425 -0.1922 -0.0095
21637W        W35051  17.019   0.834   4.178  0.0505 -0.2181  0.0467
21638W        W35052  15.238  16.179  12.928  0.4064  0.0124  0.0475
21639W        W35053  15.291   7.966   5.588 -0.0544  0.0747  0.1643
21640W        W35054  15.432  12.205   3.016  0.0398  0.0038 -0.0378
21641W        W35055  17.666   1.591   1.502 -0.0552  0.3402  0.1026
21642W        W35056  14.209   3.911   2.040  0.0827 -0.0642  0.0119
21643W        W35057   4.989  14.944  12.610 -0.0781  0.0765 -0.0321
21644W        W35058  14.967  17.759  13.171  0.0093  0.0185  0.1802
21645W        W35059   2.227   8.779  12.055  0.0485 -0.3253  0.1982
21646W        W35060  17.953  12.298  12.151 -0.1574  0.1698 -0.1108
21647W        W35061  12.643   4.188   1.667  0.0798  0.1880 -0.0673
21648W        W35062   8.650  12.425   3.249 -0.1342  0.1508  0.0041
21649W        W35063  12.931   4.829   1.062  0.0521  0.2637  0.0478
21650W        W35064   9.323   4.025  11.209 -0.2574 -0.1088 -0.2504
21651W        W35065  12.234   0.897  14.827  0.0012 -0.2082  0.1163
21652W        W35066  18.091   2.792  12.466  0.2329  0.3279 -0.0986
21653W        W35067  17.267   3.649  12.545 -0.5553 -0.2709  0.2644
21654W        W35068  17.590  18.224   9.818  0.0474  0.0543 -0.0063
21655W        W35069   6.762   2.646  14.819 -0.0118 -0.0989  0.3104
21656W        W35070  17.885   2.064   2.077 -0.2351 -0.1118 -0.2596
21657W        W35071   6.063  11.943  15.577 -0.0850 -0.0403  0.0614
21658W        W35072  12.217  14.293   4.710 -0.1075 -0.0727  0.0119
21659W        W35073   6.033   1.919   2.841 -0.0209 -0.6231  0.1328
21660W        W35074  11.068  16.201  12.315 -0.0592 -0.0137  0.2168
21661W        W35075  11.341   0.069   2.336 -0.0574 -0.0375 -0.2586
21662W        W35076  11.108   8.310  12.101  0.1293 -0.0078  0.0862
21663W        W35077  18.354  13.172   2.439 -0.1992  0.0662  0.0795
21664W        W35078   8.709   1.249   2.502 -0.2040  0.0469  0.1953
21665W        W35079   0.544  16.999  14.525  0.2657 -0.0888 -0.1034
21666W        W35080   1.458   7.423   2.478 -0.4060  0.1680 -0.1489
21667W        W35081   0.885   3.644   0.080  0.0661 -0.0316 -0.0026
21668W        W35082   2.297   2.836   5.221 -0.0023 -0.1221  0.1169
21669W        W35083  11.816  10.793  16.122  0.1880  0.2145  0.1094
21670W        W35084   2.042   1.377   5.726  0.2214  0.2178 -0.0030
21671W        W35085   8.223  17.038   4.822  0.0002  0.0796 -0.1611
21672W        W35086   0.738  15.950   0.727  0.0246  0.0269  0.0215
21673W        W35087  15.339  14.987  15.446  0.1508  0.0465  0.2308
21674W        W35088  16.295  12.616   2.804 -0.1056  0.1136 -0.0211
21675W        W35089  17.469   8.164  10.088 -0.0083 -0.1630  0.0975
21676W        W35090   6.411  12.825   1.888 -0.0358  0.2325  0.0016
21677W        W35091   9.919  16.081   2.117 -0.1208 -0.0909 -0.0004
21678W        W35092   3.455   3.022  10.995 -0.1206  0.1276  0.1522
21679W        W35093  13.522  14.780  10.089 -0.1393  0.0629 -0.0896
21680W        W35094   4.403   5.998   3.971  0.1295  0.4318  0.0459
21681W        W35095  12.147  18.180   4.417 -0.1425  0.1585  0.0153
21682W        W35096   4.450   9.425   5.744  0.1879 -0.0234 -0.0706
21683W        W35097   2.046   8.614  12.497  0.0985 -0.0721  0.4537
21684W        W35098   6.297  17.016  12.532 -0.2345 -0.2337  0.1132
21685W        W35099  13.827   9.547   3.872  0.0359  0.3420 -0.0872
21686W        W35100   5.078   0.301  11.239 -0.2939 -0.0282 -0.2677
21687W        W35101   4.784  15.324   0.615  0.0967  0.5600 -0.4567
21688W        W35102   4.077  10.437   5.336 -0.1655 -0.2662 -0.0653
21689W        W35103   7.471   6.340  14.607 -0.0157  0.2448 -0.2227
21690W        W35104  15.876   6.085  12.457  0.1368  0.2048  0.1313
21691W        W35105   6.729  11.225  14.083 -0.3069 -0.0264 -0.0287
21692W        W35106  13.448   1.005   0.376  0.1452 -0.0697 -0.3737
21693W        W35107  13.041   9.480   1.650 -0.2520 -0.2790 -0.0932
21694W        W35108   1.432  10.989   1.397  0.1406  0.5925 -0.0592
21695W        W35109   7.012  12.364   4.280 -0.1080  0.3152 -0.2633
21696W        W35110  17.484  18.185  11.585  0.1739  0.4057 -0.2981
21697W        W35111   7.306  13.753   3.879 -0.3151  0.0927  0.1540
21698W        W35112   5.975   1.582  13.381  0.3847  0.0537 -0.0897
21699W        W35113   2.823  15.728  12.779 -0.4142 -0.0252 -0.0150
21700W        W35114  12.478   9.111  14.383  0.0200  0.2517 -0.0402
21701W        W35115  15.356  13.181   3.765  0.1564 -0.1773  0.1106
21702W        W35116  11.176   5.895   4.661  0.0151  0.0267  0.2310
21703W        W35117   0.229  18.437  10.398  0.1639 -0.0246 -0.2592
21704W        W35118  10.915  12.676   0.791  0.0020  0.3378 -0.1255
21705W        W35119  10.823   6.480  12.397  0.1387  0.1655 -0.2562
21706W        W35120   9.397   3.387   3.092 -0.0564  0.0315 -0.0008
21707W        W35121   7.773   3.693   3.657 -0.0652 -0.1489 -0.1001
21708W        W35122  14.540   4.099  12.398 -0.0132  0.0753 -0.4551
21709W        W35123  17.848   1.488   5.839 -0.0968 -0.0495 -0.1747
21710W        W35124  15.736   3.439  13.191  0.0605 -0.2249 -0.2299
21711W        W35125  14.077  17.500   0.677  0.1348 -0.3538 -0.2716
21712W        W35126   0.115   7.652  12.678  0.0677 -0.0548  0.3323
21713W        W35127   7.915   8.757   1.567 -0.1402  0.3135  0.0325
21714W        W35128   0.421  17.752   1.420  0.1270  0.0727 -0.1043
21715W        W35129  16.432   8.189  10.519  0.1093 -0.0511 -0.2567
21716W        W35130   1.195  10.295  12.387  0.2392  0.0370  0.0871
21717W        W35131   4.659   5.307  13.362  0.0754 -0.0698 -0.1853
21718W        W35132   5.220   1.612   2.943  0.4726 -0.2916  0.1503
21719W        W35133   7.619   2.295  15.632  0.1766 -0.2476 -0.2115
21720W        W35134  10.201   7.953  12.015  0.3879 -0.3066  0.5202
21721W        W35135  14.568  14.027   0.217 -0.2100 -0.0007 -0.0984
21722W        W35136  14.330   2.407  15.414  0.1000 -0.0165  0.1309
21723W        W35137  11.889   0.677  13.541  0.1416 -0.0843 -0.1197
21724W        W35138   6.976   5.364  14.986 -0.1205  0.1725  0.1911
21725W        W35139  16.389   7.959   0.893  0.2318 -0.0593 -0.0679
21726W        W35140  15.728   6.123  14.874 -0.3114 -0.1776  0.0243
21727W        W35141  13.170   6.203  12.883  0.1556  0.4310  0.2297
21728W        W35142   8.148  14.249   0.534 -0.1643 -0.0435 -0.0971
21729W        W35143   3.432  18.014   4.598 -0.0010  0.0968 -0.2319
21730W        W35144  11.781  11.408   0.196 -0.1982  0.2212  0.4419
21731W        W35145   6.092   3.807  10.511 -0.4233  0.0782 -0.0699
21732W        W35146   7.374  14.111   1.289 -0.0418 -0.1675  0.0389
21733W        W35147  13.426  16.789  13.120 -0.1658  0.1256  0.0885
21734W        W35148  16.691  11.621   2.662 -0.1255 -0.2842 -0.2128
21735W        W35149   8.256   4.798   0.877  0.1472 -0.0852  0.0350
21736W        W35150  15.414   8.412   2.479  0.1441 -0.1057 -0.2825
21737W        W35151   6.610  14.029   3.293  0.0070 -0.3488  0.0796
21738W        W35152  14.173   1.076  14.281 -0.0538 -0.0714  0.4418
21739W        W35153   0.186   3.592   0.507 -0.0224  0.0776 -0.2121
21740W        W35154  16.788  18.028   2.296  0.1236 -0.2203  0.1200
21741W        W35155  17.777  16.174   1.465 -0.1664 -0.2548 -0.0544
21742W        W35156   8.929   8.481  14.076 -0.1214  0.1811  0.0601
21743W        W35157   5.236  16.232   9.944  0.0682 -0.0859 -0.0200
21744W        W35158  18.430  14.389   3.691  0.2357 -0.2775 -0.1344
21745W        W35159  17.472  18.066  14.685 -0.0592  0.1214 -0.0558
21746W        W35160   9.356  10.723  15.969 -0.0829  0.0846  0.2520
21747W        W35161   9.378   6.508  14.443 -0.1322  0.2052 -0.3672
21748W        W35162   5.614  17.628  12.583 -0.0003  0.1524  0.2198
21749W        W35163   0.135  10.322  13.938  0.0292 -0.3567  0.1257
21750W        W35164  16.055   3.653   1.657 -0.1595  0.0831  0.1174
21751W        W35165   8.267   3.697   3.931  0.0235  0.0021  0.1061
21752W        W35166   6.219   3.183  14.283  0.1203 -0.0408  0.1708
21753W        W35167   6.260  11.472  14.492  0.0709 -0.1383 -0.2173
21754W        W35168   7.335  15.949   0.592  0.0627  0.2302 -0.1082
21755W        W35169   0.092   4.864  11.610  0.0726  0.3164  0.2884
21756W        W35170  10.022  12.089   4.043 -0.1445 -0.0641  0.0148
21757W        W35171  12.835  13.258   3.288  0.2278  0.1065  0.1716
21758W        W35172   0.863   5.883   3.596  0.0148  0.0805  0.1783
21759W        W35173  13.760  12.199   2.246 -0.0100  0.1666  0.2463
21760W        W35174  17.669   8.247   3.548 -0.0700 -0.1889 -0.1142
21761W        W35175   2.383   4.726  12.708  0.1345  0.1563 -0.0297
21762W        W35176  13.843  15.384   2.867 -0.0513 -0.1273  0.0219
21763W        W35177   9.591  11.255  12.367 -0.0446  0.3036 -0.2319
21764W        W35178  16.019  14.788   1.023  0.1468 -0.1426 -0.2878
21765W        W35179   4.829   4.011  11.061  0.0352 -0.1423 -0.0249
21766W        W35180   6.090   2.737  12.218  0.0815 -0.0059  0.0590
21767W        W35181  16.467   3.909   2.564  0.0618 -0.1838 -0.0789
21768W        W35182  12.679   7.875   9.793  0.0075 -0.0862  0.1153
21769W        W35183  16.838   7.698  14.974  0.0381  0.0610  0.0203
21770W        W35184   7.440  12.213   4.549 -0.2431 -0.0607 -0.0213
21771W        W35185  10.645   9.158   3.495 -0.5668 -0.1399  0.0277
21772W        W35186   4.116  10.661  13.674  0.3266 -0.1510  0.2756
21773W        W35187  16.146   0.236  12.657 -0.0506  0.0249  0.0665
21774W        W35188   9.390  12.119  12.269  0.0191  0.2271  0.0568
21775W        W35189   7.072  16.703  13.022 -0.2063  0.2350 -0.2226
21776W        W35190   3.461   1.798  11.195 -0.2311 -0.2260 -0.0098
21777W        W35191   5.794  11.739  10.483 -0.2278  0.2682 -0.0048
21778W        W35192   3.349  17.808  10.075 -0.1303 -0.1609 -0.0881
21779W        W35193  14.905   7.153   1.936  0.0745 -0.0425  0.0589
21780W        W35194   7.630   0.054  15.911  0.0616 -0.1211 -0.2595
21781W        W35195  14.626   0.482  12.940 -0.3071 -0.1172 -0.2788
21782W        W35196  10.346   3.026   4.312  0.3187 -0.2813  0.4711
21783W        W35197   6.391   7.599  11.835 -0.0424  0.2577  0.0794
21784W        W35198   9.295  18.135  14.663  0.2425  0.1739  0.2309
21785W        W35199   2.581  14.569  14.659  0.0796 -0.2262  0.1572
21786W        W35200  18.266   9.261  14.837  0.2153 -0.1007 -0.4811
21787W        W35201   5.686   6.914   4.714  0.2082 -0.0225 -0.0876
21788W        W35202   9.305   9.969  12.437  0.2405  0.0886 -0.2555
21789W        W35203   5.913   4.418  11.891  0.1676  0.1413  0.0977
21790W        W35204   8.754   6.853   2.724 -0.5625  0.1577  0.1389
21791W        W35205   6.649  12.919  14.572 -0.1373  0.1488 -0.3069
21792W        W35206  15.875   5.699   0.290  0.0667  0.1127 -0.0338
21793W        W35207   6.038   1.984  14.573  0.0482 -0.3028 -0.1200
21794W        W35208   7.159  12.686   4.737  0.4333  0.1635 -0.0524
21795W        W35209   4.919  10.004   0.447  0.0311  0.3096 -0.0803
21796W        W35210  10.890  15.469   0.767  0.1359  0.1488 -0.2215
21797W        W35211  10.642   7.437  15.492  0.0556 -0.0374  0.1553
21798W        W35212  14.479   2.040  13.015 -0.1904 -0.2069 -0.0885
21799W        W35213  13.073   6.981  16.104 -0.3183 -0.0181  0.0692
21800W        W35214  18.412   3.874  14.612  0.0661 -0.1125 -0.1984
21801W        W35215  10.220   9.078  12.993  0.0586  0.0463 -0.1059
21802W        W35216  14.451  17.003   1.511 -0.0435  0.2792  0.1284
21803W        W35217  11.568  11.821  13.431 -0.1479  0.1211 -0.0530
21804W        W35218   7.872   8.682  15.210  0.0685 -0.1757  0.0086
21805W        W35219   4.015  14.755   0.933 -0.1082  0.1593 -0.0215
21806W        W35220  12.396  14.842  16.066  0.0847  0.1488 -0.2844
21807W        W35221  10.068   0.898  14.970  0.1684 -0.2473  0.1428
21808W        W35222   3.998  15.758  12.137  0.1414  0.0832 -0.1333
21809W        W35223   2.792   1.055  12.444  0.3899  0.1737 -0.1879
21810W        W35224  18.266   6.437   3.292  0.2644 -0.1359 -0.0587
21811W        W35225   9.679   0.831   0.024 -0.0308  0.1129 -0.2304
21812W        W35226  10.416   0.094   0.808 -0.3020 -0.0817 -0.2336
21813W        W35227   2.496   7.241  12.391  0.1784 -0.1334  0.2029
21814W        W35228   8.776   0.600  13.601  0.0020 -0.0891 -0.0924
21815W        W35229  14.151  12.438  11.078 -0.0660  0.0058 -0.0516
21816W        W35230   1.525  14.132  11.744 -0.1827  0.0701  0.2398
21817W        W35231  17.050   9.711   2.161  0.2176 -0.1908  0.2745
21818W        W35232  10.679   9.510   6.496 -0.2103 -0.1294 -0.2579
21819W        W35233   9.672  13.128   1.061  0.2459  0.0483 -0.1117
21820W        W35234   3.827   1.985  14.060  0.1843 -0.3416 -0.0608
21821W        W35235  11.665  16.134  13.345 -0.2311  0.2139  0.1169
21822W        W35236  12.278   6.628   2.809 -0.5454  0.0424 -0.3226
21823W        W35237   0.033   6.703  16.106  0.0653  0.1382 -0.0045
21824W        W35238   9.465  16.291  14.856  0.0180 -0.0825 -0.3563
21825W        W35239   9.649  14.708  12.837 -0.2718 -0.2585  0.3474
21826W        W35240   6.918   6.775  10.621 -0.0167 -0.1458  0.2486
21827W        W35241  14.664  11.022   3.155 -0.0305  0.0792 -0.1894
21828W        W35242   7.125   1.232   3.067  0.0623  0.0688 -0.0183
21829W        W35243   5.914   4.990   0.531  0.1902  0.1332 -0.0218
21830W        W35244  16.018   2.080   4.864 -0.0800  0.1726  0.1390
21831W        W35245  13.313   2.952  11.594 -0.1723 -0.2244 -0.0494
21832W        W35246  18.195  12.635   5.654  0.3848  0.0060 -0.5037
21833W        W35247  17.572   6.425  12.363  0.3525 -0.0645 -0.1495
21834W        W35248   5.770   6.135   5.096  0.0138  0.0365 -0.0379
21835W        W35249  18.318   2.221   0.412  0.0290  0.1253 -0.1973
21836W        W35250  14.218   4.962   6.490  0.1088 -0.0766  0.0296
21837W        W35251   5.607   4.284  13.731  0.0618 -0.0069  0.1958
21838W        W35252   0.139   5.857  15.073 -0.0689  0.1571 -0.0810
21839W        W35253   8.656   6.477  12.051 -0.0729 -0.0620  0.1686
21840W        W35254   4.008  10.872   0.378  0.2016 -0.0275  0.1902
21841W        W35255  15.394  17.163   0.064 -0.0285  0.0254 -0.1171
21842W        W35256   5.783  15.032   5.308 -0.1217 -0.0360  0.0893
21843W        W35257  14.562   0.896   1.342  0.2440  0.0049 -0.2310
21844W        W35258   0.129   1.364  12.186 -0.0575 -0.1102  0.1393
21845W        W35259  14.491  12.637  12.523  0.2523 -0.0266  0.0370
21846W        W35260   0.546  15.263  11.763 -0.0857  0.0804 -0.0751
21847W        W35261  12.285   5.045  15.065  0.1620  0.0972 -0.0066
21848W        W35262   7.996  12.042  10.471  0.0764 -0.1067 -0.1512
21849W        W35263   9.955  16.921  10.651 -0.1422  0.0117  0.1892
21850W        W35264  14.996  13.628   1.457  0.2084 -0.2685 -0.0297
21851W        W35265  10.948  14.596  13.461 -0.2038 -0.0759 -0.2364
21852W        W35266   3.776   7.074   1.474  0.1675 -0.1031  0.2406
21853W        W35267   2.305   2.902  15.774 -0.0933 -0.2500  0.0403
21854W        W35268  12.662   3.215   5.718 -0.0797 -0.0328  0.0431
21855W        W35269  12.900   5.616  14.640  0.1836 -0.0243  0.0174
21856W        W35270   7.847   6.188  11.698  0.0442  0.0387  0.1418
21857W        W35271   5.204  17.532  10.146  0.1374 -0.0624  0.0246
21858W        W35272   3.221   9.069  11.719 -0.3306  0.0876 -0.4490
21859W        W35273   1.065  16.210  11.141 -0.1372 -0.1642  0.2531
21860W        W35274  14.552   3.523  11.045 -0.0280 -0.0889  0.3423
21861W        W35275   1.476   3.086  10.985 -0.1230 -0.0166  0.1522
21862W        W35276   2.185   7.381  14.045 -0.0332  0.2425 -0.0040
21863W        W35277   4.420  18.517   5.300  0.0470 -0.2264  0.1555
21864W        W35278  15.910  14.426   1.480  0.4170  0.3087  0.2696
21865W        W35279  16.631   7.866   2.129  0.0287  0.0024  0.0625
21866W        W35280  10.917   0.823  10.444  0.0751  0.0784  0.2950
21867W        W35281   2.529  14.482   4.088  0.3147  0.0476 -0.0782
21868W        W35282   2.527   3.331  10.956  0.2563 -0.0080 -0.2398
21869W        W35283   8.318  12.838  10.809 -0.2708  0.4253  0.1210
21870W        W35284   1.900  14.647   1.807  0.1098  0.3495  0.1147
21871W        W35285  16.732  16.128  11.779 -0.2196  0.1328  0.0885
21872W        W35286   3.293   1.999   2.094 -0.2149 -0.0668 -0.1145
21873W        W35287   4.774  17.222  12.864 -0.1990  0.0593 -0.5206
21874W        W35288   9.815   8.507  15.505  0.1873 -0.0897 -0.0376
21875W        W35289   8.420   6.720  14.641 -0.0797  0.2219  0.0590
21876W        W35290  17.600  18.395   2.369 -0.1486  0.2965  0.4886
21877W        W35291   2.227   6.581  10.701 -0.0390 -0.0570 -0.2754
21878W        W35292   5.936  12.239   4.445 -0.2890  0.0812 -0.1205
21879W        W35293   3.934  13.101  11.104 -0.1577  0.2432  0.0246
21880W        W35294  15.444   7.727   2.216 -0.0482  0.0293  0.1701
21881W        W35295  17.181  15.810   2.924 -0.0483 -0.4919 -0.0748
21882W        W35296  15.887  10.080  12.558  0.3738  0.1096  0.1599
21883W        W35297   6.704  11.344  11.288 -0.2206 -0.1366  0.0667
21884W        W35298   6.747  12.213  11.506  0.0513  0.0630 -0.2453
21885W        W35299   7.437  13.932  11.802 -0.0158 -0.0940 -0.2005
21886W        W35300   2.453   5.493   3.262 -0.1061 -0.0169  0.2820
21887W        W35301   6.214  11.755  13.619  0.0806 -0.1086  0.1467
21888W        W35302  13.645   8.117  12.400  0.1437  0.0121  0.1956
21889W        W35303   8.274   0.931  11.242 -0.2171 -0.2510 -0.0154
21890W        W35304   9.710   1.356   4.285 -0.1535 -0.0769  0.2292
21891W        W35305   3.736   3.641   4.371  0.0153 -0.2830  0.0400
21892W        W35306   4.630   7.160   1.089 -0.0493 -0.1635  0.0350
21893W        W35307  11.740  15.582   1.923 -0.3802 -0.3652 -0.0468
21894W        W35308   9.703   6.742   2.673  0.2360 -0.0658 -0.1360
21895W        W35309   1.762  14.756  11.246  0.1142  0.1858  0.0649
21896W        W35310   2.856  17.948  14.845  0.0229  0.1113 -0.0673
21897W        W35311  14.169  10.493   5.818 -0.0275 -0.0681  0.1278
21898W        W35312  12.373   9.364   0.120  0.0411  0.2413 -0.1045
21899W        W35313   4.231   3.013  15.005 -0.0570 -0.0805 -0.3025
21900W        W35314   7.099  11.933   3.281 -0.1330 -0.3057 -0.0179
21901W        W35315  14.322  11.133   2.322 -0.1624  0.3449  0.0837
21902W        W35316  10.141   4.715  10.537  0.1444 -0.0271  0.2507
21903W        W35317   8.306  16.323  15.852 -0.2062 -0.0082 -0.1689
21904W        W35318   8.552   5.654   1.416 -0.0562 -0.3068 -0.1456
21905W        W35319   0.185   0.468  13.480 -0.2335  0.1679  0.1768
21906W        W35320   8.187   8.577   0.759 -0.3441  0.2610 -0.2908
21907W        W35321  15.167   1.739   4.101 -0.2464  0.0821 -0.2174
21908W        W35322   8.925  12.405   4.289  0.0955 -0.0312 -0.0551
21909W        W35323   6.765  12.213   1.642 -0.0576  0.1121 -0.0020
21910W        W35324  14.456   4.854  15.454  0.1152  0.0453 -0.1736
21911W        W35325  15.731   5.945   5.195  0.4781 -0.1103 -0.4176
21912W        W35326   2.093  10.443  13.613 -0.2258 -0.1126 -0.1664
21913W        W35327  16.802   1.439  12.208 -0.1302 -0.3072 -0.1400
21914W        W35328   0.667   7.069   0.117  0.2269  0.2212 -0.0335
21915W        W35329  14.568   0.695  13.528  0.1003 -0.2631 -0.0248
21916W        W35330   4.704  16.315   6.039  0.2506 -0.0865 -0.3118
21917W        W35331  18.193  13.268   4.920 -0.1807  0.0449  0.0943
21918W        W35332   3.050  11.189  15.087 -0.1528 -0.0602  0.2314
21919W        W35333  12.572  11.647   0.847  0.0822 -0.1470 -0.1914
21920W        W35334   8.604  17.707  15.294  0.1019 -0.1037  0.0323
21921W        W35335  17.725  10.142   4.816 -0.0325 -0.1295  0.2658
21922W        W35336  18.181  13.726   2.622 -0.0613  0.4161  0.0674
21923W        W35337  10.916   7.360  12.197 -0.1463  0.4700  0.1682
21924W        W35338   6.257  12.627  14.851 -0.1895 -0.3561  0.0518
21925W        W35339  11.329   7.690  13.418  0.3102  0.0092  0.2035
21926W        W35340  18.207   7.228  16.159  0.1559 -0.1986  0.0546
21927W        W35341  13.766  10.418   2.603 -0.1985  0.1799 -0.1266
21928W        W35342   1.057   3.351   2.599  0.3174 -0.0275 -0.0388
21929W        W35343   8.550  15.008   0.300 -0.0022 -0.2442  0.2428
21930W        W35344  17.531   7.829   2.301  0.1372  0.3690  0.1846
21931W        W35345  13.527   3.503  16.230  0.0928 -0.0628 -0.1671
21932W        W35346  12.310  18.481  14.120  0.2191  0.2914 -0.3008
21933W        W35347   2.540   0.137  12.027  0.1696  0.2548 -0.0844
21934W        W35348   7.825   1.339  13.841 -0.1208 -0.1456  0.0866
21935W        W35349   8.991  15.650  15.095 -0.1119  0.1193  0.1230
21936W        W35350  10.641   1.946   1.348 -0.4692  0.0787 -0.0029
21937W        W35351   1.294   1.666  10.734 -0.0295  0.2903  0.0474
21938W        W35352   6.674  14.404   4.191  0.2945 -0.0151 -0.0848
21939W        W35353   7.918   5.765   6.651  0.2644 -0.2627 -0.1098
21940W        W35354   4.944  18.247  13.779 -0.3224  0.0929  0.1812
21941W        W35355   4.323   5.236   6.047 -0.2023 -0.0053 -0.1146
21942W        W35356  11.263   1.649  15.605  0.0349 -0.4524  0.1471
21943W        W35357   1.851   1.019   4.990 -0.1348 -0.0305 -0.2136
21944W        W35358  15.594  15.842  15.067  0.1981 -0.0784  0.0542
21945W        W35359   6.534  16.829  11.562  0.0752 -0.2296 -0.2940
21946W        W35360  13.240   8.189   5.026  0.2993  0.0696 -0.0909
21947W        W35361  13.946  17.587  14.073  0.3109 -0.0507  0.2218
21948W        W35362  10.770   7.597  15.977 -0.1233 -0.2531 -0.2543
21949W        W35363  16.320  17.684  13.305 -0.1721  0.0719  0.1395
21950W        W35364   0.468  14.467   4.517  0.1230  0.0771 -0.0812
21951W        W35365  13.767  17.500  11.309 -0.1827 -0.0044  0.2243
21952W        W35366  12.033   9.711   5.586  0.2566  0.2540  0.2360
21953W        W35367  15.458  18.262  12.942  0.0727  0.3738  0.0974
21954W        W35368   1.826   6.210  13.487 -0.3336 -0.6104  0.0070
21955W        W35369   8.996  14.151   3.012  0.0686 -0.2136 -0.4110
21956W        W35370   0.229   0.801   3.153  0.1162  0.2391  0.2177
21957W        W35371   0.841  16.146   2.350  0.3441  0.1152 -0.3159
21958W        W35372   9.809   3.848  14.321  0.0287 -0.1625  0.1696
21959W        W35373  18.462   0.321  10.953 -0.1988  0.0507  0.2787
21960W        W35374  11.481  17.105   1.414  0.0483  0.1739  0.0003
21961W        W35375   0.598  10.881  14.456 -0.0955  0.3158  0.0634
21962W        W35376  15.035  10.048  15.217  0.2622  0.0948 -0.0238
21963W        W35377   5.839   2.357   5.944  0.0312  0.1806  0.1239
21964W        W35378   2.726  14.681  13.902 -0.2352 -0.0564  0.1919
21965W        W35379  11.063  17.479  16.120  0.1292 -0.0793  0.0670
21966W        W35380  14.019   4.320   5.204  0.2946  0.0313 -0.1411
21967W        W35381   7.732   5.109   3.100  0.0210  0.4761 -0.0823
21968W        W35382  18.427  16.021   4.608 -0.0029  0.1988 -0.2688
21969W        W35383   8.214   1.524   1.813  0.1061  0.0660  0.0856
21970W        W35384  14.961   2.763  11.007 -0.1449 -0.1253 -0.1849
21971W        W35385   2.777   0.091  14.188 -0.2303  0.0663 -0.0124
21972W        W35386   2.151  10.103   2.186 -0.1996  0.1546 -0.2246
21973W        W35387  13.629  13.418  15.801  0.0701 -0.2610  0.2286
21974W        W35388  10.894   5.579   0.582  0.3666 -0.0010  0.1188
21975W        W35389   5.408   4.613  10.717 -0.1034 -0.3063  0.0023
21976W        W35390   1.312  11.515   2.326 -0.3810 -0.3128 -0.3195
21977W        W35391   7.479   3.432  10.750 -0.2193 -0.0155  0.0423
21978W        W35392  16.591   7.361   6.066 -0.3457  0.2113  0.1090
21979W        W35393   6.185  11.188  10.588  0.1046  0.0154  0.2715
21980W        W35394  15.131   2.966  13.803  0.2021  0.2129  0.0239
21981W        W35395   7.794   1.449   5.200  0.1006 -0.0163 -0.0305
21982W        W35396  16.185   2.206  13.077 -0.0368 -0.2854  0.2452
21983W        W35397  13.467  14.806  11.967 -0.2647  0.1631  0.1384
21984W        W35398  15.168  16.138  14.916 -0.1279  0.1183  0.0396
21985W        W35399   9.500   9.894  11.172 -0.0182 -0.1379 -0.3950
21986W        W35400   8.970   0.362   6.133 -0.0841  0.2616 -0.3513
21987W        W35401   0.633  17.206  15.111  0.0773 -0.0989  0.1988
21988W        W35402  14.079  14.516  13.975 -0.1372  0.2139  0.0288
21989W        W35403   4.495   8.751  14.898 -0.1310  0.1330 -0.2519
21990W        W35404   0.630  13.821   1.416  0.0937  0.5415 -0.1399
21991W        W35405   6.954   4.887  15.648  0.0289  0.1682 -0.0360
21992W        W35406  11.031   4.851  14.816 -0.1401 -0.2329  0.0716
21993W        W35407  13.646  17.395   3.836  0.0623 -0.0939  0.2257
21994W        W35408   6.628  17.701  16.026 -0.1363  0.2828  0.0924
21995W        W35409  13.158   1.837  16.211 -0.0799 -0.1515 -0.0418
21996W        W35410  14.957   0.026   0.271 -0.3514 -0.0390  0.0994
21997W        W35411   4.088  11.523   1.870  0.1721 -0.0385 -0.0656
21998W        W35412   8.045  14.561   1.814 -0.1227  0.5632 -0.2889
21999W        W35413  12.892  10.190  13.093  0.1984  0.2020  0.0513
22000W        W35414   9.253  13.874  10.752 -0.1218  0.1107  0.0561
22001W        W35415  11.509  15.121   3.402 -0.3389 -0.0307 -0.1806
22002W        W35416   5.930   5.294  13.073 -0.0506 -0.1381  0.2167
22003W        W35417   1.476   7.827   6.287 -0.0523 -0.1255  0.1132
22004W        W35418   8.590  14.508   2.032  0.1548 -0.0137 -0.2773
22005W        W35419   8.544   7.590  11.631  0.1092 -0.3533  0.2150
22006W        W35420   2.507   4.140   5.648  0.2181  0.0702  0.2742
22007W        W35421  10.337   2.539   4.322  0.3049 -0.1055  0.1163
22008W        W35422  15.247  11.382  13.271  0.0553  0.3410 -0.3452
22009W        W35423   6.614  13.401  11.722  0.0735 -0.2193  0.1732
22010W        W35424  16.252  14.896   2.424 -0.2367 -0.1345 -0.0725
22011W        W35425  13.801   5.142  10.069  0.1044  0.0158  0.0152
22012W        W35426  14.534  15.592  11.265 -0.3058  0.1962  0.0023
22013W        W35427  14.087  11.797  14.300  0.0609 -0.1658  0.0756
22014W        W35428  17.592   5.463   1.722 -0.0817  0.0297 -0.1133
22015W        W35429  14.689  14.830   3.650  0.1792  0.1034  0.1477
22016W        W35430   8.110  15.495   3.896 -0.0359 -0.1661 -0.3920
22017W        W35431  10.340  11.217   2.852  0.0648 -0.0389 -0.1499
22018W        W35432   2.397   4.181  13.389  0.2759 -0.0548 -0.2932
22019W        W35433   6.399  13.551  13.459 -0.2258 -0.1184 -0.2483
22020W        W35434  16.529  16.303  10.403  0.1909  0.0673 -0.2798
22021W        W35435  12.518  17.108   1.279 -0.0668 -0.2087  0.0414
22022W        W35436   1.198   7.165  15.544  0.0181  0.0942  0.1571
22023W        W35437  14.296   0.117  11.203 -0.0520  0.0105 -0.2063
22024W        W35438   1.795  15.845   1.038 -0.2164  0.3708  0.2859
22025W        W35439  15.674  10.888   3.379 -0.0405  0.0956  0.1244
22026W        W35440   5.535  17.134  12.764 -0.1581 -0.1197 -0.0057
22027W        W35441  11.405   5.397   0.592  0.0403  0.4140  0.3135
22028W        W35442  16.412  12.805   0.455  0.3070  0.2662  0.1038
22029W        W35443  13.046   7.341  15.214  0.2652  0.2578 -0.1117
22030W        W35444  16.954   6.642  13.044 -0.0346  0.0102 -0.1218
22031W        W35445  13.720   9.421  12.452 -0.0597 -0.0805  0.1130
22032W        W35446   2.132   8.109  15.289  0.1499 -0.2838  0.1346
22033W        W35447  17.957  16.480   3.984  0.0757  0.0951 -0.1513
22034W        W35448   1.099   9.782  10.805 -0.0763 -0.4064  0.2350
22035W        W35449  16.297   6.018   5.377 -0.2342  0.2533  0.1265
22036W        W35450  15.357  12.504   2.631 -0.1593  0.0388 -0.0743
22037W        W35451  15.520   1.035   3.151  0.4243  0.0857  0.1342
22038W        W35452  17.841  13.017   4.541 -0.1647 -0.0198  0.0777
22039W        W35453   8.506   1.277   0.786 -0.3819  0.0905 -0.0074
22040W        W35454   6.409  18.232  11.991  0.0420  0.2928 -0.1179
22041W        W35455  13.539  16.552   1.160 -0.0382 -0.0027 -0.1383
22042W        W35456   9.845   4.585  10.935 -0.1295 -0.0786 -0.1657
22043W        W35457   6.679  14.036  12.413  0.0632  0.1808 -0.0787
22044W        W35458   7.891   4.774   4.071 -0.1383 -0.2283  0.1079
22045W        W35459   6.552   7.130   5.134  0.2509  0.0394  0.0172
22046W        W35460   1.687   2.770   5.753  0.0416  0.0611  0.0624
22047W        W35461  11.104   3.177  11.575 -0.3025  0.0780  0.0944
22048W        W35462   7.129   5.066   5.347 -0.0522  0.0025 -0.1799
22049W        W35463  11.211  16.037  10.661 -0.1371 -0.2101  0.1431
22050W        W35464  15.506  11.117   5.262  0.1851 -0.2664 -0.0829
22051W        W35465  12.323  11.524   5.853 -0.0334  0.2006  0.0714
22052W        W35466   0.070  18.433   5.060 -0.1248 -0.4053 -0.2060
22053W        W35467   0.035  13.115   1.311 -0.2441 -0.2199 -0.1413
22054W        W35468   5.179  17.366   2.915 -0.0498 -0.2987 -0.1744
22055W        W35469  17.417   9.168   1.577 -0.0334 -0.0379  0.1298
22056W        W35470   4.709   4.833  11.545 -0.0115 -0.2596  0.1404
22057W        W35471  14.879  15.443  10.067  0.3823 -0.0722  0.1027
22058W        W35472  14.289   5.036  11.440  0.2728  0.3302  0.0918
22059W        W35473  11.377   3.203  13.777  0.1317 -0.2947  0.1440
22060W        W35474  14.868  17.698   0.860  0.4446  0.2731  0.3133
22061W        W35475   7.602  11.468   5.152 -0.1497 -0.2398  0.0682
22062W        W35476  16.691   5.905   7.256 -0.1494 -0.2638 -0.0179
22063W        W35477  16.114   8.178   1.268  0.1462 -0.0616 -0.1414
22064W        W35478  16.617  13.404   4.721  0.2443 -0.1541  0.0403
22065W        W35479   2.772   9.583   2.443 -0.2563 -0.1104  0.0084
22066W        W35480  17.559  16.796  16.090 -0.3256  0.0439 -0.1139
22067W        W35481  18.352   4.295   2.445 -0.0698  0.0112 -0.0157
22068W        W35482  14.229   5.043  14.636  0.1740 -0.2953  0.4325
22069W        W35483  11.846   4.529   0.811 -0.2519 -0.1297 -0.1604
22070W        W35484   3.264   4.397  13.867  0.2772  0.5482 -0.0572
22071W        W35485   3.791   5.469  15.253  0.0132 -0.1992  0.1140
22072W        W35486   9.165  12.473  15.889  0.4060  0.0818  0.1290
22073W        W35487   4.969  16.572  15.074  0.2044  0.0254 -0.0054
22074W        W35488   1.976  13.434   1.293 -0.0229  0.0224 -0.2407
22075W        W35489   4.503   6.479   0.381 -0.2908  0.0192 -0.0323
22076W        W35490   7.901   6.187  15.711 -0.2642  0.0904 -0.0054
22077W        W35491   9.777  17.540  13.570 -0.1197  0.0272 -0.1490
22078W        W35492  17.765  10.130   1.715  0.0254 -0.1576  0.1662
22079W        W35493   5.111  14.053   3.143 -0.1593 -0.0922 -0.0213
22080W        W35494  16.558  11.687  14.890  0.0863  0.3778 -0.1265
22081W        W35495  12.309  13.635  15.007 -0.2057  0.0898 -0.1769
22082W        W35496  15.944   2.859  12.449  0.2800 -0.1663 -0.0968
22083W        W35497  17.687   7.669   2.752 -0.0875  0.1586 -0.1395
22084W        W35498   5.542  14.719   3.774  0.0037  0.0208 -0.3017
22085W        W35499   7.271  10.789  15.556 -0.0675  0.3310 -0.0280
22086W        W35500  11.698  14.215  15.239  0.0794 -0.1443  0.2377
22087W        W35501   7.469   1.459   2.771 -0.1889  0.0692  0.0038
22088W        W35502   1.142   3.418  12.105  0.2107 -0.3360  0.6223
22089W        W35503  12.322   0.666  11.435 -0.0053  0.4054  0.6490
22090W        W35504   8.392   3.957   0.796 -0.1854  0.0539 -0.0744
22091W        W35505  18.455  16.563  14.851 -0.2292 -0.0295  0.2004
22092W        W35506   8.099  12.553  13.537 -0.1679 -0.0747 -0.1174
22093W        W35507   7.352   3.545  13.367  0.0550 -0.3983  0.5809
22094W        W35508   0.020   6.383  10.310 -0.2998  0.1843 -0.1202
22095W        W35509   9.409   1.341   0.732 -0.0834 -0.1883 -0.1186
22096W        W35510   0.241  10.884   6.061 -0.0814  0.1894 -0.1382
22097W        W35511   7.656   9.435  13.092 -0.2143 -0.0911  0.0740
22098W        W35512   8.633  18.374   2.050  0.1717  0.0280 -0.4281
22099W        W35513   3.100   0.473  15.238 -0.0475  0.1126 -0.1356
22100W        W35514   4.374  16.661   0.520 -0.0938 -0.0441  0.1567
22101W        W35515   2.129  11.827   5.423  0.1337 -0.0349 -0.0346
22102W        W35516  11.669   4.831  13.315  0.2436 -0.1565 -0.0842
22103W        W35517   3.210   0.823   4.893 -0.0231 -0.1194  0.0728
22104W        W35518   8.999  11.932  11.155 -0.1020 -0.1862 -0.0981
22105W        W35519  15.925  12.872   0.495  0.1323  0.0805 -0.1181
22106W        W35520   4.937   4.061   1.918 -0.1448  0.0091 -0.0720
22107W        W35521   4.094   2.574   5.092 -0.0638  0.1142  0.0938
22108W        W35522   4.456  15.847   3.169 -0.2441 -0.1784  0.1722
22109W        W35523   2.623  14.983   3.262 -0.1218  0.2414  0.3415
22110W        W35524  13.429  12.204   4.270  0.1188  0.3056  0.0611
22111W        W35525  10.978   0.389  15.508  0.0378  0.1338 -0.0447
22112W        W35526   2.783   6.913  15.117 -0.4742 -0.1169 -0.0976
22113W        W35527  13.480  16.873  16.021  0.2053  0.1969 -0.0902
22114W        W35528   1.730  14.367   0.595 -0.0009  0.0205  0.0298
22115W        W35529   4.837   2.102  14.180 -0.0600  0.1007 -0.3621
22116W        W35530   2.834  18.036   5.006  0.1900 -0.0629  0.2940
22117W        W35531  10.522  11.256  14.227 -0.2273  0.1305 -0.0763
22118W        W35532   9.277  11.790  10.465  0.0462 -0.2020  0.0273
22119W        W35533  11.389  17.332  15.800 -0.0229  0.4054 -0.0189
22120W        W35534   4.064  16.452  10.723  0.0382 -0.2223 -0.0938
22121W        W35535  11.291  13.976  10.885  0.1738 -0.2262 -0.0301
22122W        W35536  10.588  10.996   3.582 -0.0996  0.3287 -0.1786
22123W        W35537  14.151   7.340  15.859  0.1910 -0.0698  0.0626
22124W        W35538  10.015  18.155   0.024  0.3732  0.1471 -0.5048
22125W        W35539  15.734  13.224   0.864 -0.1687  0.0178  0.2534
22126W        W35540  16.610  18.238   2.727 -0.0614  0.2717 -0.1720
22127W        W35541   0.598   0.126   2.637  0.0022 -0.0674 -0.0364
22128W        W35542   0.450   9.144   3.906 -0.1892 -0.0631  0.1296
22129W        W35543   5.720   3.323  14.191 -0.1474  0.2668 -0.0211
22130W        W35544  13.189   6.610   6.333  0.1857 -0.3176  0.3295
22131W        W35545  12.248   4.405  15.778 -0.2244  0.0764  0.0267
22132W        W35546  17.473  16.778   2.679  0.1853  0.1614 -0.4317
22133W        W35547  17.759   5.834  11.728  0.0411 -0.1155  0.0673
22134W        W35548   2.231  14.591  14.233 -0.0996 -0.0961 -0.0641
22135W        W35549  15.360   3.789   4.817  0.3703 -0.1631  0.0553
22136W        W35550  16.389   2.003  13.738 -0.2156  0.0928 -0.3800
22137W        W35551  14.357   4.513  12.676 -0.1804 -0.2776 -0.0711
22138W        W35552   0.942   7.194   4.697  0.0789 -0.0673  0.0491
22139W        W35553   1.101  12.165   1.575  0.1141 -0.0736  0.0413
22140W        W35554   9.478   1.828   3.454 -0.2083 -0.0284  0.0225
22141W        W35555   1.825   1.526   4.788 -0.1305 -0.1125 -0.0187
22142W        W35556   6.601   2.940   6.247  0.0094 -0.4139 -0.0840
22143W        W35557  14.953  10.283  11.408 -0.0645  0.1692 -0.0880
22144W        W35558   5.094   0.317   3.322  0.0150  0.2937 -0.1948
22145W        W35559   6.406   4.417   5.122 -0.3001 -0.1172 -0.2930
22146W        W35560  16.212  10.772  11.964 -0.1861  0.1417 -0.1048
22147W        W35561  11.021   8.380  15.136 -0.0547 -0.0855  0.0942
22148W        W35562   2.339  12.482   3.795 -0.0417  0.0098  0.1622
22149W        W35563   0.084   2.158  12.833  0.0858  0.0413  0.1154
22150W        W35564  17.866  16.398  11.491  0.1723 -0.4095 -0.0539
22151W        W35565  16.732   8.747   2.115 -0.0413 -0.4682 -0.2154
22152W        W35566   8.150   0.212   1.301 -0.2379  0.1273  0.2319
22153W        W35567  15.386   5.941  14.575  0.2566  0.0049 -0.0576
22154W        W35568   1.005  11.119  15.248 -0.3861 -0.0247 -0.1939
22155W        W35569  16.628   7.235   0.788 -0.0030 -0.1932  0.0229
22156W        W35570  14.486  16.846  10.070 -0.0459 -0.0828  0.0147
22157W        W35571  10.823  11.657  10.149  0.1567  0.0888 -0.0152
22158W        W35572  15.440   3.350   5.054  0.1288 -0.0280 -0.2810
22159W        W35573   8.454  15.934  16.186  0.2119  0.0702 -0.1662
22160W        W35574  16.881   6.906  15.319  0.0250  0.4011 -0.1800
22161W        W35575   3.713  18.271  14.656 -0.2150  0.2737  0.1204
22162W        W35576   3.164   2.168   4.692 -0.5282  0.0490  0.0019
22163W        W35577   5.509   9.851   2.205 -0.0064  0.1901 -0.2046
22164W        W35578  16.725  14.585  14.105  0.1657  0.0993  0.0267
22165W        W35579   2.413   2.520   3.359 -0.4636  0.3656  0.2474
22166W        W35580  15.852   3.315   0.708 -0.0125  0.0641  0.4228
22167W        W35581   1.888  15.830   2.148  0.1616 -0.1589  0.2947
22168W        W35582   7.009   5.628  13.477 -0.0126  0.1868 -0.0443
22169W        W35583  13.075   6.795   4.587  0.0118 -0.0804  0.1832
22170W        W35584  16.563   7.747  10.574 -0.1711 -0.0336  0.1818
22171W        W35585   8.021   2.109  12.537 -0.3509  0.2947  0.1803
22172W        W35586   4.532  11.477   1.498  0.2221 -0.0215  0.0724
22173W        W35587   5.513   6.626  11.716 -0.2095 -0.0438  0.0506
22174W        W35588   9.860   5.608   5.453 -0.0155 -0.3013 -0.2085
22175W        W35589  16.168  17.832   4.460  0.0538 -0.0143 -0.1621
22176W        W35590  15.000  10.990  13.052  0.0177  0.2178 -0.1084
22177W        W35591  12.319  14.684  14.829  0.3704 -0.1693 -0.1364
22178W        W35592   6.505  14.310   1.216  0.0495  0.0794 -0.1099
22179W        W35593   7.018   1.252  13.633 -0.1704  0.0921  0.1984
22180W        W35594  15.879  12.456  12.908 -0.2960  0.3457 -0.0336
22181W        W35595  18.329   7.884  13.709  0.4093  0.1889  0.0222
22182W        W35596   6.715  17.842   1.204  0.1368  0.0151 -0.2863
22183W        W35597   9.459   1.665  12.642 -0.0782 -0.0684  0.2702
22184W        W35598  15.006  10.691  11.801 -0.0499  0.2531 -0.3796
22185W        W35599  10.726  17.876   4.419  0.0738  0.0518 -0.0311
22186W        W35600  12.086   3.297  10.979  0.0510 -0.1737 -0.0210
22187W        W35601  15.044   1.866   0.150 -0.1216  0.1955  0.1325
22188W        W35602   1.640  10.172   1.939 -0.1061  0.0901 -0.1632
22189W        W35603  12.097   3.356  11.474 -0.1757 -0.3818  0.2715
22190W        W35604   5.968   5.801   1.702 -0.0381 -0.2964 -0.0817
22191W        W35605   5.105  16.608  12.266  0.2142 -0.4482 -0.4148
22192W        W35606   4.042  13.087  14.842  0.0278  0.0743 -0.3603
22193W        W35607  10.097   5.478  11.620  0.2317 -0.3533  0.3165
22194W        W35608   0.493   8.877   0.437  0.1264  0.1838 -0.1592
22195W        W35609   0.755  18.235   1.405 -0.3573 -0.2908  0.3286
22196W        W35610   3.116   3.678  12.711 -0.0370 -0.0428  0.0620
22197W        W35611  14.980   5.049  15.080 -0.1274 -0.2832 -0.0193
22198W        W35612  16.032   8.701   4.917 -0.1190  0.0406  0.0596
22199W        W35613   2.075   9.113   5.269 -0.0098  0.2456 -0.2272
22200W        W35614  17.893   4.074  14.269  0.2021 -0.0123  0.3693
22201W        W35615  16.838  10.998   2.362  0.0594  0.2938  0.0306
22202W        W35616   4.389   4.940  10.287 -0.0831  0.1168  0.1729
22203W        W35617  10.396  14.485   4.849  0.2477 -0.4972 -0.0187
22204W        W35618   5.804  12.731  11.192  0.1237 -0.1898  0.2064
22205W        W35619   5.706  11.678   0.789  0.0619  0.2238  0.1003
22206W        W35620   1.469   1.681   2.420  0.2046 -0.0156  0.0237
22207W        W35621   9.276  17.675   3.059  0.1954 -0.0438  0.0725
22208W        W35622   4.325  17.136   5.735  0.1069 -0.0566 -0.0403
22209W        W35623   4.086   5.771  16.122  0.0626 -0.2293 -0.0381
22210W        W35624  17.371  15.547  11.975 -0.3736 -0.0848 -0.2847
22211W        W35625   6.800  12.062  10.470 -0.1441  0.0223 -0.3761
22212W        W35626  14.352  16.887   6.074 -0.0351 -0.0310 -0.1860
22213W        W35627   2.632   7.727   2.005  0.3008 -0.1568  0.0796
22214W        W35628   1.984   9.320  13.135  0.2722 -0.4257  0.0486
22215W        W35629  16.006   5.659  11.907 -0.0030  0.0433  0.1187
22216W        W35630   5.496  16.086  11.377  0.1805  0.0372  0.2141
22217W        W35631   0.454  10.078   3.428  0.0627  0.4256  0.1191
22218W        W35632  10.106   4.560   0.008  0.1010  0.0665 -0.0571
22219W        W35633   1.749   7.229   6.714  0.0249  0.1916  0.3403
22220W        W35634   5.390  10.795   5.105 -0.1829 -0.0739 -0.2178
22221W        W35635   2.002  11.621   1.665 -0.3465 -0.5745 -0.2932
22222W        W35636   3.104   6.696  11.917 -0.4379 -0.2852  0.0321
22223W        W35637   9.791  18.112   4.106  0.0274 -0.2497  0.0857
22224W        W35638  12.902   1.341   1.763 -0.0290 -0.1548 -0.0483
22225W        W35639   8.530  14.674   2.984 -0.2502 -0.1179 -0.1689
22226W        W35640  11.881   5.107   2.189  0.2153  0.1347  0.0240
22227W        W35641  13.296   1.820   6.098  0.0854  0.2112  0.2651
22228W        W35642   5.789  15.948  14.395 -0.2752 -0.1728  0.3071
22229W        W35643   0.166   6.844  12.983 -0.2114 -0.1930  0.3039
22230W        W35644   1.461   5.489  12.825  0.1959 -0.3189 -0.6007
22231W        W35645  16.056   5.475   2.746  0.2555 -0.2871  0.1581
22232W        W35646  10.795  15.622   0.052 -0.1289 -0.4249  0.0039
22233W        W35647  16.978   5.957   0.684 -0.0700 -0.0645  0.2543
22234W        W35648   5.796   6.291   2.463  0.0134 -0.0675  0.0793
22235W        W35649   3.163   7.075   0.315  0.3104 -0.3532 -0.0264
22236W        W35650  16.341   9.129   5.171 -0.4102 -0.1624  0.1311
22237W        W35651  18.270  15.909  12.033 -0.2088 -0.1601  0.0515
22238W        W35652  11.593   7.630  14.750  0.0706 -0.0531 -0.0148
22239W        W35653   9.781  13.240  14.188 -0.1736 -0.0960 -0.0492
22240W        W35654  11.897  11.986   4.312 -0.0516  0.0999  0.2810
22241W        W35655   3.513  10.508  10.820  0.0597  0.0193 -0.1576
22242W        W35656   9.773   3.508   6.062  0.1234 -0.0289  0.2856
22243W        W35657   8.409  15.262  15.892 -0.1235  0.0562  0.0009
22244W        W35658   4.946   3.637   5.286 -0.2197  0.1244  0.3868
22245W        W35659  18.369   9.658  12.350 -0.0102  0.1737 -0.3177
22246W        W35660  15.022   6.410   0.662  0.0596 -0.3549 -0.1330
22247W        W35661  12.802   7.431   0.510  0.2707  0.0954 -0.3310
22248W        W35662  12.296   3.670  12.660  0.0416  0.0977  0.0797
22249W        W35663  13.816   4.612   2.883 -0.3438 -0.1944  0.0336
22250W        W35664  17.462   8.630  14.691 -0.2529 -0.1373  0.0847
22251W        W35665  14.033   1.741  12.345 -0.2066 -0.1659 -0.2571
22252W        W35666  13.125   9.226  14.995  0.0176 -0.0226  0.0563
22253W        W35667   2.105  12.273   1.962  0.2738 -0.1172  0.1471
22254W        W35668  13.522  17.926  11.136 -0.1535 -0.2156 -0.0111
22255W        W35669   0.838  14.983   2.876  0.1598 -0.0168 -0.0058
22256W        W35670   7.148  14.413   4.564  0.1823  0.3181 -0.1556
22257W        W35671  16.113  16.124  10.680 -0.2372 -0.0924 -0.4295
22258W        W35672  11.874  13.452   4.522  0.3620 -0.3836  0.1742
22259W        W35673   7.195   0.612   0.309 -0.0175  0.4057  0.2487
22260W        W35674   5.350   2.754   5.145  0.0117 -0.2212  0.0556
22261W        W35675  18.503  12.226   2.401 -0.2832 -0.0891  0.2737
22262W        W35676   6.127  11.002   3.140 -0.0091 -0.0639 -0.0960
22263W        W35677  16.621  10.424   0.365 -0.1447  0.0532  0.0202
22264W        W35678   7.227   2.668  15.823 -0.4446  0.1722 -0.0823
22265W        W35679  14.106  12.658   3.930 -0.0301  0.0548  0.2044
22266W        W35680   5.691  12.206   0.949 -0.1205 -0.2171  0.1621
22267W        W35681   1.979   4.237   0.857  0.2974  0.0542 -0.0667
22268W        W35682   0.007  11.680   3.527 -0.0052  0.0591  0.0044
22269W        W35683   1.375  14.186  10.512  0.1541 -0.0284  0.0228
22270W        W35684  14.836  11.275  16.102  0.2751 -0.0318 -0.1572
22271W        W35685  10.862  17.081  11.778 -0.3049  0.0117  0.2621
22272W        W35686   0.085  14.023   9.974  0.0224  0.0187 -0.0275
22273W        W35687   5.507   0.233  10.089  0.3569  0.1366 -0.0719
22274W        W35688   0.994  12.996  11.824 -0.0993 -0.0490 -0.1556
22275W        W35689  17.343   9.685   3.523  0.1639 -0.0729 -0.1882
22276W        W35690  16.490   1.478   4.109  0.5258 -0.2582  0.0168
22277W        W35691   4.867  15.466   1.785  0.0080 -0.0875  0.0079
22278W        W35692  14.409  15.053  14.195 -0.1932 -0.1265  0.2680
22279W        W35693   5.139  13.541   1.126  0.1122 -0.0441 -0.1762
22280W        W35694  14.648   4.582   3.792 -0.2460  0.0353  0.0562
22281W        W35695  13.020   4.752   3.191  0.3056  0.0741 -0.2568
22282W        W35696   0.686   7.022   2.129  0.0757  0.2920 -0.3973
22283W        W35697  15.471  12.700   6.073 -0.2493  0.1631 -0.1423
22284W        W35698  12.839   3.496  14.512  0.1246  0.1360 -0.0898
22285W        W35699   4.240  13.266   3.599  0.1812 -0.1702 -0.1346
22286W        W35700  12.688  13.291  13.191 -0.1689  0.0680  0.0465
22287W        W35701  12.505  12.035  13.257 -0.0593 -0.0261  0.0497
22288W        W35702  10.998   7.672   4.215 -0.2893 -0.0701  0.1656
22289W        W35703   3.278  12.576   2.424 -0.0207  0.3819 -0.2128
22290W        W35704  15.288   7.642   6.160 -0.2119 -0.0977 -0.2472
22291W        W35705  18.479   2.546   0.071  0.0644  0.0018 -0.0899
22292W        W35706   9.687  12.740  14.266 -0.1812 -0.0297 -0.0561
22293W        W35707  14.673  11.661   1.199  0.1046 -0.1536 -0.1144
22294W        W35708  14.532  10.732   3.682  0.2207  0.1076  0.2290
22295W        W35709  14.937  12.699   0.447  0.0675  0.1453  0.3010
22296W        W35710   9.919  10.746   2.372 -0.2227  0.1589  0.0703
22297W        W35711   7.408   5.061   0.803 -0.0582 -0.1036  0.1347
22298W        W35712  10.725   2.791   4.458  0.2298  0.0941 -0.0436
22299W        W35713  10.167   1.227   4.024  0.0677  0.3648  0.0842
22300W        W35714  15.922  16.971  14.322 -0.0349  0.1913  0.1458
22301W        W35715  17.796  13.119   0.741  0.0220  0.1424  0.2549
22302W        W35716   4.405  15.810  15.035  0.3143  0.3044 -0.2577
22303W        W35717  17.985   3.403   2.525 -0.1974  0.1394 -0.1438
22304W        W35718  11.439  16.512  12.046  0.0085 -0.2108 -0.1385
22305W        W35719   1.335  16.743   0.041 -0.1156  0.1029 -0.1146
22306W        W35720   1.919   0.079   2.464  0.0836 -0.1116 -0.1479
22307W        W35721   4.495  17.694   4.618  0.0628  0.2937 -0.1651
22308W        W35722  16.335   1.836   1.350 -0.1037 -0.5277 -0.1550
22309W        W35723  11.090   2.015   1.534 -0.0375 -0.1357  0.4362
22310W        W35724  16.291  13.256   4.345  0.0666  0.0394 -0.1260
22311W        W35725   9.432  18.521  13.743  0.0746  0.0620  0.4101
22312W        W35726  10.509   9.600  11.573 -0.0448 -0.1339  0.0920
22313W        W35727  16.499   7.898  13.129 -0.1790 -0.1100  0.0233
22314W        W35728   3.305   6.357  15.836 -0.0462 -0.4149 -0.0395
22315W        W35729  14.850   6.865   6.420  0.4408  0.1716 -0.1938
22316W        W35730   0.336  11.400   4.598  0.1002 -0.4348 -0.1020
22317W        W35731  16.949  16.748   4.720  0.0291  0.2122  0.2523
22318W        W35732   5.229   3.093   6.123  0.0035 -0.5210 -0.1389
22319W        W35733  12.120   7.141  14.058 -0.2166  0.1372  0.2495
22320W        W35734   9.526   7.667   5.695 -0.0514 -0.2798 -0.0690
22321W        W35735  11.029   8.595   3.992 -0.0333  0.0530  0.3485
22322W        W35736  10.093   6.567   3.544  0.1885 -0.1343  0.0829
22323W        W35737  15.571  12.099  16.237  0.0645 -0.0553 -0.1364
22324W        W35738  12.032  10.879  14.645  0.3533 -0.1306  0.1495
22325W        W35739  15.456   3.618   3.219 -0.1486  0.1177 -0.2321
22326W        W35740  11.896  11.125   3.799  0.0676 -0.0239 -0.0417
22327W        W35741   0.293   7.872  13.705  0.1910 -0.2310 -0.0923
22328W        W35742  18.198  12.646  14.998 -0.2098 -0.1223  0.0136
22329W        W35743  14.204   4.729   3.568 -0.2470  0.0035  0.0140
22330W        W35744   0.635  11.656  12.050 -0.0289  0.1309 -0.0189
22331W        W35745   2.110  15.601  15.767 -0.0470  0.1994 -0.0187
22332W        W35746   2.154   2.813  11.499 -0.2629 -0.3404  0.1656
22333W        W35747   0.383   0.848   1.607 -0.1575 -0.0233  0.1714
22334W        W35748   0.761   6.979  14.511 -0.0051  0.0561 -0.0562
22335W        W35749   0.752   4.250   5.895 -0.0402  0.1752 -0.0200
22336W        W35750  14.967  17.235   1.567  0.1489 -0.1286  0.0340
22337W        W35751   6.059   2.661   4.462 -0.0873 -0.2275  0.1768
22338W        W35752  14.772   8.602   2.440  0.1101 -0.0581 -0.1033
22339W        W35753  15.138  10.762   2.536  0.4032 -0.1286 -0.1053
22340W        W35754  10.870   4.923  16.211  0.1405  0.0033  0.2484
22341W        W35755  15.386  10.175   6.012 -0.2419 -0.1298 -0.1455
22342W        W35756   8.682  18.455   3.021 -0.0331  0.3530 -0.1662
22343W        W35757   7.490  14.464   5.458  0.1257 -0.3341 -0.0531
22344W        W35758   2.253  18.388  15.168 -0.4058  0.0023 -0.0187
22345W        W35759   7.468   5.901   1.150 -0.1315  0.1219  0.0186
22346W        W35760   7.357   9.181   2.754 -0.0666 -0.1699 -0.0957
22347W        W35761  13.824   7.087   0.973  0.2049 -0.0820  0.1766
22348W        W35762  11.484  16.045   1.600  0.0962 -0.0490 -0.3321
22349W        W35763   9.731   7.234   2.329 -0.0073 -0.0194  0.3667
22350W        W35764  18.446  10.743   3.260 -0.1591 -0.0646  0.0873
22351W        W35765  18.491   2.667   1.940 -0.1521 -0.0872  0.0214
22352W        W35766  13.684   8.345   1.042 -0.1712 -0.0890  0.3738
22353W        W35767  12.650   1.025   5.455 -0.0548  0.0104  0.0564
22354W        W35768  18.499  12.873  14.412 -0.1438  0.1505  0.2213
22355W        W35769  13.967  11.028   1.957 -0.0321 -0.0130  0.2263
22356W        W35770  15.123  11.649  11.923  0.0429 -0.2386  0.1829
22357W        W35771  13.829  14.839  12.318 -0.1886 -0.1839  0.0052
22358W        W35772  13.495  16.393   4.128  0.1086 -0.0726  0.0938
22359W        W35773   4.612   1.973  15.230  0.0499 -0.2719 -0.3722
22360W        W35774  13.976   0.946  13.741 -0.1687  0.1914  0.0355
22361W        W35775  16.474   5.119   4.363 -0.1143 -0.2089 -0.3381
22362W        W35776   6.471   7.871   2.081  0.1111  0.1783  0.0750
22363W        W35777  16.796   3.614  11.273 -0.2241  0.0753 -0.0921
22364W        W35778   5.987  14.204  16.079  0.3000 -0.3120 -0.0732
22365W        W35779  15.653  11.403   1.879  0.1878  0.0401  0.1288
22366W        W35780   7.564   7.993   0.513  0.1446 -0.0648 -0.3170
22367W        W35781  10.644   2.910   5.965  0.0989 -0.3175  0.2750
22368W        W35782  12.400   5.412   5.840 -0.1705  0.0001  0.0714
22369W        W35783   3.967  11.103   4.447 -0.0211  0.2608 -0.2337
22370W        W35784   3.659  11.979   0.364  0.4178  0.2567 -0.0808
22371W        W35785  18.500  16.948   0.140 -0.3587 -0.3405  0.0333
22372W        W35786   5.593   4.756  13.666  0.1141  0.5262 -0.1137
22373W        W35787  15.614  12.372  10.836  0.0834 -0.2221 -0.2749
22374W        W35788   7.054  13.593   4.272 -0.1115  0.0180 -0.4664
22375W        W35789   5.138   3.928  15.877 -0.1950  0.1213 -0.0006
22376W        W35790  15.949   4.202   0.399  0.1757 -0.0573  0.0703
22377W        W35791   7.176  11.040  15.966 -0.0763 -0.0680  0.1440
22378W        W35792   3.077   0.062   4.123 -0.4374  0.1954 -0.2752
22379W        W35793   9.635   7.647  15.380 -0.0736 -0.1134 -0.1003
22380W        W35794  14.673   9.130   6.500  0.0507  0.0377 -0.0316
22381W        W35795  10.726  18.458  12.552  0.0349 -0.0124  0.2210
22382W        W35796   0.899   9.188   0.450  0.1765 -0.4478 -0.2879
22383W        W35797   8.998  12.090  14.993 -0.1988 -0.1085  0.2754
22384W        W35798  13.914   8.416   3.166 -0.0752  0.0950 -0.0317
22385W        W35799   9.518   6.154   1.859  0.1118  0.0870 -0.0165
22386W        W35800   9.283  16.726   0.793  0.1317 -0.0927 -0.0540
22387W        W35801   9.791  10.569   4.149  0.1210  0.0645 -0.0257
22388W        W35802  16.946   8.844  12.067  0.1135  0.0376 -0.2051
22389W        W35803   2.900   7.521  12.352 -0.1036 -0.2413 -0.1210
22390W        W35804   5.429  11.364  15.688 -0.1074 -0.1477 -0.1697
22391W        W35805   5.471  16.650  12.596  0.0775 -0.0851  0.2872
22392W        W35806   6.424  11.370   2.772  0.0980 -0.0004 -0.1147
22393W        W35807   3.142   6.314  12.250  0.2038  0.0769 -0.0949
22394W        W35808  11.253   9.659   5.337  0.4202 -0.2702 -0.4451
22395W        W35809  14.057   0.989   5.592 -0.1238 -0.1833  0.0110
22396W        W35810   8.283   2.991  10.142 -0.1237 -0.3952  0.0350
22397W        W35811   7.833  11.765  14.824 -0.0689 -0.1320 -0.3453
22398W        W35812  16.558   9.194   5.605  0.2494  0.2344 -0.2344
22399W        W35813   2.216  12.621   2.376  0.2880  0.1094  0.3492
22400W        W35814  13.765  15.535   4.265 -0.0525 -0.0399  0.0211
22401W        W35815  11.838  17.588  14.532 -0.0583 -0.1314  0.1878
22402W        W35816   2.028   4.388  15.292 -0.2505  0.2067 -0.1091
22403W        W35817  15.585   0.601   5.465  0.1591 -0.1099 -0.1041
22404W        W35818   2.928   1.427   5.766 -0.0465 -0.1867  0.0180
22405W        W35819   8.641  13.889  10.691 -0.0109 -0.3255  0.0326
22406W        W35820   5.957   3.499  12.197  0.1575 -0.1124  0.2410
22407W        W35821  11.078  16.685   4.183 -0.3047 -0.0666 -0.2077
22408W        W35822  16.609  16.710  12.334 -0.0134  0.2487  0.0408
22409W        W35823   8.026   6.586  11.392  0.2250 -0.0753 -0.1379
22410W        W35824   7.443   3.596   1.706  0.3539 -0.0968 -0.0121
22411W        W35825  16.477   1.617   4.575 -0.1020 -0.0346 -0.1297
22412W        W35826   5.185   6.790   3.184  0.1102 -0.0549  0.0830
22413W        W35827  18.016   8.765   2.567  0.0963  0.0279 -0.1848
22414W        W35828  12.710   7.959   6.163 -0.1951 -0.2560  0.1627
22415W        W35829   9.848   2.689  14.344  0.3770  0.0380 -0.3406
22416W        W35830  10.250  11.301  13.783  0.0950 -0.2978 -0.0581
22417W        W35831   2.858  17.789  11.372  0.1861 -0.2210  0.0665
22418W        W35832   1.343  13.454  13.555 -0.1542 -0.1518 -0.4045
22419W        W35833   9.815   8.048   5.623  0.0511 -0.0513  0.0492
22420W        W35834   3.599  15.489   5.434  0.1180 -0.0790  0.2091
22421W        W35835   1.438  16.205   0.120 -0.1133  0.0779  0.1379
22422W        W35836  12.032   1.742   2.341 -0.3241 -0.3431  0.4436
22423W        W35837  11.505  18.163   4.053 -0.2449 -0.0413 -0.0355
22424W        W35838   2.895   1.937  10.607 -0.2821  0.0411 -0.0395
22425W        W35839  16.051  17.237  13.605  0.0822 -0.2323 -0.0266
22426W        W35840   5.688   4.117   5.487 -0.1884 -0.2260 -0.0613
22427W        W35841   4.642  11.789  11.325  0.1244  0.1031  0.4686
22428W        W35842  10.438  14.193  12.776  0.1143 -0.0095  0.1592
22429W        W35843  16.765   6.507  12.288 -0.2469 -0.0535  0.3669
22430W        W35844   7.611  10.771   1.951 -0.0850 -0.2927  0.0481
22431W        W35845   5.685  12.380  14.029 -0.3687  0.3204 -0.0063
22432W        W35846  10.218   8.553  12.828  0.0399  0.4243 -0.0393
22433W        W35847  14.498  10.262   0.607  0.2078 -0.0838  0.0194
22434W        W35848   7.481  14.064  12.634  0.0766  0.0588 -0.1130
22435W        W35849  17.206   1.770   1.365  0.4346 -0.2577 -0.0487
22436W        W35850   6.771  17.207   1.491  0.2977 -0.1768 -0.0355
22437W        W35851   9.399   7.753  13.065 -0.0819  0.3395  0.1344
22438W        W35852   4.432   7.838  15.983  0.1023  0.0494  0.2079
22439W        W35853  13.842   5.787  12.363 -0.0600  0.2971  0.0010
22440W        W35854   7.309  17.694   4.061 -0.0655  0.1036  0.1280
22441W        W35855   9.843  10.825   4.571 -0.0985  0.0273  0.2653
22442W        W35856   9.175  16.359  11.815 -0.1104 -0.1786 -0.2988
22443W        W35857   9.949  10.240   2.188  0.1584  0.0740 -0.1372
22444W        W35858  15.281  11.959   4.935  0.0849 -0.2387  0.0343
22445W        W35859  13.650   8.737   3.403 -0.0588 -0.2849 -0.0172
22446W        W35860  11.608  11.089  15.068  0.2241 -0.0634  0.1594
22447W        W35861  17.718   0.767  13.953  0.0866 -0.0603 -0.0449
22448W        W35862  16.762   1.200   2.960 -0.0491  0.2942  0.0571
22449W        W35863   9.070  13.480  13.359 -0.0308 -0.0659  0.1830
22450W        W35864  12.069   1.461   4.388  0.0192 -0.0474  0.1448
22451W        W35865   4.769   4.679  14.211  0.1460  0.0232 -0.1037
22452W        W35866   7.717   0.038  13.163 -0.1774 -0.5514 -0.1151
22453W        W35867  13.668  13.441   5.777 -0.4456 -0.1715  0.1469
22454W        W35868  11.624   6.793   1.109 -0.3179 -0.0087 -0.0124
22455W        W35869  17.388  11.606  12.142  0.1051  0.0158  0.3827
22456W        W35870   1.839  12.597   3.336 -0.1746 -0.1343 -0.1676
22457W        W35871  10.831   6.639  14.588 -0.1794 -0.2428  0.0691
22458W        W35872  18.239  17.258  11.803 -0.1129  0.3707  0.1484
22459W        W35873  13.454   0.191   1.072 -0.2852 -0.1082  0.0615
22460W        W35874   4.528  16.688   2.743  0.4342 -0.0834 -0.2365
22461W        W35875   5.355  13.583   5.350  0.0693  0.1470  0.2029
22462W        W35876   0.076   1.513   4.999  0.2089 -0.5681  0.0770
22463W        W35877  15.595   4.436   0.085 -0.2651  0.4418  0.0450
22464W        W35878   3.318  16.261  13.056  0.2224 -0.2014 -0.1971
22465W        W35879   8.746  16.690   0.382 -0.0767  0.0729 -0.0368
22466W        W35880   1.028  13.267   5.103  0.2706  0.0079  0.0475
22467W        W35881  15.221  15.289  16.249  0.0155 -0.1208  0.1152
22468W        W35882   4.699  10.196  10.937  0.0203  0.2647  0.2027
22469W        W35883   7.935  13.896  15.753  0.1929 -0.2262  0.0011
22470W        W35884  18.523  13.929   0.572  0.0776  0.1244  0.1922
22471W        W35885   3.641  11.883   4.085  0.3866  0.1235 -0.0504
22472W        W35886  12.378  17.961   6.484  0.0449  0.0533  0.3757
22473W        W35887   1.010   9.303  10.026  0.1383  0.2789 -0.2058
22474W        W35888  16.779   6.233  11.350  0.2106 -0.0461  0.1081
22475W        W35889   2.822   6.993   4.212 -0.0445  0.0567  0.0580
22476W        W35890  16.331  17.919  12.865  0.0208  0.3386 -0.0220
22477W        W35891   2.931  12.445  12.986 -0.1563 -0.3138  0.1242
22478W        W35892  16.924   0.516   3.294 -0.1395  0.0151  0.2698
22479W        W35893   4.579   9.305   4.746 -0.0358  0.0149  0.2813
22480W        W35894   4.543  11.697  16.111 -0.0597 -0.3143 -0.0904
22481W        W35895   2.684   8.129   4.587 -0.1677 -0.1567 -0.2058
22482W        W35896   2.050   5.960  12.493  0.2203 -0.1443  0.1617
22483W        W35897  10.005  14.077   2.288 -0.1819  0.2140 -0.4810
22484W        W35898   8.095   2.305  13.820  0.1289  0.1072 -0.1580
22485W        W35899   1.084   8.585   1.673 -0.1137  0.0856  0.2175
22486W        W35900  17.209  13.624   0.485 -0.0016 -0.1059  0.0403
22487W        W35901   6.747  11.027   3.649  0.1876  0.2349 -0.0790
22488W        W35902  12.369   3.100   3.564  0.1171 -0.2375  0.1280
22489W        W35903   4.602  16.434  12.463 -0.1844  0.0576  0.0937
22490W        W35904  18.309   1.485   0.000 -0.2986  0.1811 -0.1751
22491W        W35905  13.545   0.814   1.166 -0.1131 -0.1414  0.1949
22492W        W35906   5.047   8.089   4.115 -0.0254 -0.1568 -0.0948
22493W        W35907   6.212   7.568   6.054  0.1001 -0.3005 -0.1248
22494W        W35908  12.938  18.185  14.773 -0.4110 -0.4294 -0.2549
22495W        W35909   4.870  14.692  11.258 -0.1777  0.1521 -0.3676
22496W        W35910   0.890   5.770  15.815  0.1043  0.1809  0.0726
22497W        W35911   3.285   5.294  11.210 -0.0121 -0.1071  0.1632
22498W        W35912  11.141   7.138   2.409  0.1073 -0.0931 -0.1777
22499W        W35913  16.299   3.819   4.915 -0.3893  0.0842  0.2747
22500W        W35914  10.438  10.710   1.539  0.0930  0.0690  0.0635
22501W        W35915   7.331  16.132  11.730 -0.3106  0.1814 -0.2321
22502W        W35916  10.972  11.806  10.776 -0.0259 -0.2475 -0.2431
22503W        W35917  18.155  12.042   5.894  0.1114  0.2332  0.0669
22504W        W35918  17.388  13.087   4.240 -0.0736  0.3119  0.0258
22505W        W35919   1.229   4.883   2.966  0.1791 -0.4462  0.0805
22506W        W35920  10.209  14.717   3.727  0.1507  0.0622  0.0347
22507W        W35921   3.867   5.880  11.129  0.1471  0.0345  0.1140
22508W        W35922   5.381   3.274   5.170  0.1224  0.0975 -0.1843
22509W        W35923   5.256  10.680   3.064  0.3957  0.0801  0.1942
22510W        W35924  18.094   1.566  14.482 -0.1058 -0.0151  0.1062
22511W        W35925  17.650   1.001   0.554 -0.1503 -0.0326 -0.0877
22512W        W35926  16.638  16.976  15.833 -0.1598  0.1350  0.1120
22513W        W35927  11.238  10.160   5.556 -0.1296 -0.4192 -0.1787
22514W        W35928   3.792  12.204  12.451 -0.0306  0.0846  0.3440
22515W        W35929  14.681   2.676   4.232  0.1293 -0.2319 -0.0965
22516W        W35930  11.405  10.344  15.425 -0.0566 -0.0496  0.0731
22517W        W35931   0.703   1.793  11.097  0.1936  0.2741 -0.2112
22518W        W35932   3.198   9.226   3.259 -0.1172 -0.3387  0.1757
22519W        W35933  13.737   5.731   5.886  0.0176  0.0140  0.1244
22520W        W35934   6.536   1.597   5.097  0.1283 -0.0677 -0.0381
22521W        W35935   6.617  13.924  14.485 -0.2371 -0.0411 -0.3017
22522W        W35936  12.351   1.248   4.753 -0.1006 -0.1844  0.2988
22523W        W35937   2.515   0.564  12.437  0.3442  0.1493 -0.2016
22524W        W35938   1.402  15.321   1.223  0.3666 -0.1034  0.2040
22525W        W35939   3.769   6.271   1.948 -0.4207  0.0525  0.1660
22526W        W35940   0.202   0.612  15.950 -0.1117 -0.0340  0.0486
22527W        W35941   2.743   8.203   3.929 -0.1144  0.0204  0.0559
22528W        W35942  14.200   0.616  14.077  0.0204 -0.2738  0.1440
22529W        W35943   9.179   3.730   5.339  0.1368  0.0294 -0.0518
22530W        W35944  10.211   3.253  15.140  0.0692  0.3171  0.1896
22531W        W35945  13.361  16.938   1.971 -0.1805 -0.0738 -0.0426
22532W        W35946   1.878   7.667  12.397  0.3252  0.0421 -0.2099
22533W        W35947  14.047   4.133  11.545  0.0721  0.4764 -0.3302
22534W        W35948   0.467   0.512   5.766 -0.2760  0.1675  0.0202
22535W        W35949   1.659   3.766  12.554  0.3200  0.0742  0.2320
22536W        W35950   3.707  17.213  14.136 -0.0175  0.0505  0.2453
22537W        W35951  15.799  16.632   4.721 -0.1178  0.2412 -0.1284
22538W        W35952   7.382   4.823  11.275 -0.1569  0.1717  0.1644
22539W        W35953   9.036   0.444  10.975  0.1293  0.0037  0.1460
22540W        W35954  14.768  18.456  10.666 -0.1931 -0.2695 -0.1256
22541W        W35955   7.498   8.751   5.991 -0.1388 -0.0271  0.2539
22542W        W35956  17.078  10.180   1.697 -0.3024  0.2280 -0.2446
22543W        W35957   2.746   6.415  11.393  0.2372  0.1871 -0.1956
22544W        W35958   0.500   7.659   3.063  0.0963 -0.0420 -0.1330
22545W        W35959   5.846   9.695   0.293  0.1832  0.0347 -0.0270
22546W        W35960   6.529   7.236  15.972 -0.4749 -0.2537 -0.0241
22547W        W35961  14.851   3.374   3.148 -0.0181 -0.0462  0.0221
22548W        W35962   9.215   7.958   5.997  0.0953  0.0460 -0.0123
22549W        W35963  14.555   5.967   2.005  0.1039 -0.1513 -0.0353
22550W        W35964  11.012   7.308  13.688  0.1159  0.0384 -0.1310
22551W        W35965   9.161  17.723  11.897  0.1174 -0.0055  0.0612
22552W        W35966  16.452  12.795   5.650  0.0573  0.3398 -0.2517
22553W        W35967   7.160  17.139   1.060 -0.0836 -0.0018 -0.3058
22554W        W35968  12.083   6.058   6.117 -0.0520 -0.1242  0.2282
22555W        W35969   4.290  12.027  12.885  0.1075 -0.1399  0.0696
22556W        W35970  16.807   7.004  13.325 -0.0142  0.1729  0.1869
22557W        W35971  13.793   4.953   3.227  0.3035 -0.2407  0.0074
22558W        W35972  11.563   8.826   0.479 -0.2526 -0.0192 -0.0586
22559W        W35973   0.113   4.545   3.799  0.0812  0.3576  0.1892
22560W        W35974   8.285   4.255  12.739 -0.5154  0.2039 -0.1870
22561W        W35975   6.180  17.887   1.202 -0.2499  0.1204 -0.0339
22562W        W35976  13.314   3.399  14.081 -0.1742  0.0580  0.1995
22563W        W35977   6.999   9.338   2.987  0.1028 -0.2333 -0.1907
22564W        W35978  16.126  13.983  14.582  0.1790  0.1522 -0.1676
22565W        W35979  10.999   5.659  11.328  0.2655 -0.1972 -0.1278
22566W        W35980   1.462   7.323   1.043  0.1076  0.0665  0.0197
22567W        W35981  11.951   9.458  12.135  0.1748 -0.1420  0.1070
22568W        W35982  10.173   5.308   5.673  0.0770  0.1025 -0.0639
22569W        W35983  11.772  10.111   6.412 -0.2718 -0.0748 -0.0121
22570W        W35984   0.825   2.870   0.072 -0.0164 -0.2654  0.3418
22571W        W35985   0.708  12.536  11.657  0.2594  0.1408 -0.3262
22572W        W35986   5.942   3.820   5.763 -0.2000  0.2204  0.2492
22573W        W35987   8.222   1.565  12.496 -0.0064  0.0340 -0.2505
22574W        W35988   6.757   3.809  14.223  0.2430  0.3699 -0.1426
22575W        W35989  12.225   0.358   5.182  0.0995  0.1749 -0.1061
22576W        W35990  13.943  18.022   0.405 -0.0063  0.0256  0.1917
22577W        W35991   8.708  14.450  14.988 -0.0625 -0.0202 -0.0895
22578W        W35992   3.228  10.964  15.696 -0.0031  0.2594 -0.0026
22579W        W35993   5.711   1.602   2.273  0.2923 -0.0324 -0.1172
22580W        W35994  12.784   6.295   4.535 -0.0394 -0.3103  0.0642
22581W        W35995   3.315  17.818   5.747  0.2261  0.0240  0.2122
22582W        W35996   3.588   1.914   4.638  0.1198  0.1725 -0.0613
22583W        W35997  12.596  16.567   3.836 -0.0253  0.0848  0.2025
22584W        W35998  12.821   7.578   3.543 -0.0440  0.1775  0.2565
22585W        W35999   7.408  14.158   4.946  0.2834  0.2846  0.3998
22586W        W36000  16.198   5.399  15.380 -0.0310 -0.3875 -0.1763
22587W        W36001  17.308   6.211  15.614 -0.0324 -0.1146  0.0524
22588W        W36002  10.547  13.090   0.678  0.3848  0.0787  0.0506
22589W        W36003   0.733   4.663   3.156 -0.3691 -0.1152 -0.3150
22590W        W36004   7.054  17.488  12.416 -0.0262 -0.0489 -0.0871
22591W        W36005  16.994   1.805   2.524 -0.1254  0.1022 -0.0596
22592W        W36006   7.124  12.324  12.966  0.1100  0.0013 -0.1758
22593W        W36007   1.198  10.897  11.585  0.0057  0.0270  0.0947
22594W        W36008  10.973  16.665   3.107 -0.1581 -0.0112  0.1998
22595W        W36009  12.185   7.606  12.376  0.2094  0.0323 -0.4407
22596W        W36010   5.430   6.621   1.398  0.1880  0.1637 -0.0272
22597W        W36011   4.829   8.294  10.390  0.2488  0.0568 -0.3216
22598W        W36012  14.433   1.861   0.925 -0.2453  0.2892 -0.0135
22599W        W36013  10.056  14.399   1.524  0.0337 -0.3301  0.1215
22600W        W36014  16.758   2.509  13.019  0.1290 -0.2412  0.2394
22601W        W36015   9.478  15.850   2.352  0.1968 -0.0847 -0.4936
22602W        W36016   8.601  15.243   1.221  0.0471  0.1510 -0.0587
22603W        W36017   0.327  10.821   3.508 -0.0389  0.2088 -0.2603
22604W        W36018   5.902   2.037   0.892 -0.2390 -0.0098  0.3242
22605W        W36019   1.017  16.451  14.948 -0.1986  0.0212  0.0412
22606W        W36020  12.768   7.300   1.498 -0.2224 -0.0289  0.2656
22607W        W36021  16.935   9.694   1.465  0.2245  0.0326 -0.0022
22608W        W36022  18.375  11.235   0.762 -0.2555 -0.2301 -0.0997
22609W        W36023   1.652   2.081   2.156  0.0515  0.1152 -0.0062
22610W        W36024  14.216   5.847   0.708 -0.1498  0.0018  0.1452
22611W        W36025  12.363   8.612   4.835  0.3354 -0.0033  0.2928
22612W        W36026  12.265  18.244  16.009  0.1336  0.1770 -0.0672
22613W        W36027  16.607   6.795  15.815  0.0979  0.1707 -0.0869
22614W        W36028   7.716   6.328  13.783  0.0828  0.2911 -0.2723
22615W        W36029  12.673  14.450   3.837 -0.0111  0.5240 -0.1744
22616W        W36030   5.215   9.349  11.464  0.1592 -0.3260  0.0133
22617W        W36031  14.592   5.538   3.672 -0.3087  0.1547  0.2915
22618W        W36032  18.415  11.037   1.535 -0.0248 -0.0048  0.0311
22619W        W36033  15.136   1.544   0.732  0.0357  0.1230  0.1975
22620W        W36034  16.329   5.036  11.644 -0.0888 -0.0562 -0.0401
22621W        W36035  11.675   2.845  14.088 -0.0691 -0.0276  0.0489
22622W        W36036  16.691  17.014   0.111 -0.1711 -0.2406  0.0988
22623W        W36037  14.924   3.040   1.175 -0.1414 -0.1298 -0.1960
22624W        W36038  10.011   8.540  10.842 -0.1328 -0.1841  0.0628
22625W        W36039   1.817   9.610   4.611 -0.0850 -0.0311 -0.0382
22626W        W36040  17.616  12.086  11.289  0.1398  0.1973 -0.1340
22627W        W36041  16.994  16.464  10.319  0.0401 -0.0543 -0.0585
22628W        W36042   5.476   2.164  12.131  0.4214  0.1152  0.0908
22629W        W36043   8.705  17.911   1.720  0.2112  0.2412  0.0562
22630W        W36044   4.230   7.007  10.440  0.1034  0.0195 -0.0417
22631W        W36045  17.569  11.364   0.320  0.2690 -0.1379 -0.2891
22632W        W36046   1.517   3.424   5.067  0.0789  0.1787  0.0296
22633W        W36047  17.533  16.906  11.161 -0.2729  0.1960 -0.0139
22634W        W36048   1.727  18.294  13.502  0.2542  0.1348 -0.3369
22635W        W36049  10.238   3.433  13.549  0.1472  0.2991  0.2452
22636W        W36050   5.282   7.664  14.957 -0.2026  0.1947 -0.1372
22637W        W36051   4.268   7.517   0.281  0.4754 -0.3476 -0.3613
22638W        W36052  12.374   0.100  13.098 -0.0492  0.2024  0.1595
22639W        W36053   0.287  15.677  11.983  0.1625  0.3183  0.1146
22640W        W36054   1.923  14.349  11.458 -0.3945  0.0063  0.0801
22641W        W36055   4.485   6.512   2.469  0.0850 -0.0941 -0.2655
22642W        W36056   6.246   1.269  13.032 -0.1588 -0.1906  0.1726
22643W        W36057  16.915  13.105  12.566 -0.0460 -0.0076  0.2889
22644W        W36058  13.375   7.556   0.738  0.0361 -0.0600 -0.2309
22645W        W36059  11.533   6.517  16.038 -0.2045  0.2300  0.0645
22646W        W36060  10.873   9.293  14.196  0.1096 -0.0697 -0.2623
22647W        W36061   0.128  15.613   9.743  0.1764  0.1101 -0.1525
22648W        W36062  11.231  13.523   3.016  0.1205  0.4367 -0.2965
22649W        W36063  11.882   3.562   6.269 -0.1183 -0.3270  0.1826
22650W        W36064  13.208   7.382   5.962 -0.1542  0.1077  0.2153
22651W        W36065  13.713  18.179   5.004  0.2906 -0.2221 -0.2269
22652W        W36066   2.056  17.989  14.313 -0.0046  0.0646  0.1330
22653W        W36067   0.795  15.628   5.224 -0.1411 -0.0031  0.0013
22654W        W36068  10.864  13.767   1.697  0.0311 -0.1317 -0.1752
22655W        W36069  16.969  13.236  11.658 -0.3299 -0.1050 -0.0073
22656W        W36070   4.666   7.327  12.155 -0.1769  0.4589 -0.1509
22657W        W36071   2.984  10.870   4.431 -0.3621 -0.1412  0.0421
22658W        W36072  10.524   1.134   4.778 -0.3230 -0.1013 -0.1202
22659W        W36073   2.550   2.435  11.331  0.1674 -0.1324 -0.3570
22660W        W36074  11.856  16.295  12.827  0.1286  0.3233 -0.1968
22661W        W36075  15.300   8.509  13.099 -0.0301  0.1132  0.0783
22662W        W36076  17.493  15.761  10.854  0.1057 -0.3358  0.1663
22663W        W36077  14.575  18.150  13.155 -0.0843  0.0249  0.1926
22664W        W36078   3.611  11.869  16.096 -0.3712  0.1814 -0.2070
22665W        W36079   7.330   3.510   3.613 -0.0909 -0.0942  0.0458
22666W        W36080   4.451  18.263   2.302 -0.1959 -0.3262  0.2767
22667W        W36081  10.517   4.591   5.839  0.1368  0.2065 -0.0196
22668W        W36082   5.033  17.080   4.922 -0.1895  0.0371 -0.1581
22669W        W36083   9.991  11.961  13.970  0.0496  0.0897  0.0459
22670W        W36084   0.642  10.908  13.230 -0.0132 -0.0014 -0.1057
22671W        W36085  17.576  11.322   3.969 -0.0055 -0.1037  0.2919
22672W        W36086   4.237  18.515   0.647  0.1406 -0.0062 -0.1709
22673W        W36087   0.179  11.513  10.933 -0.6349 -0.1090 -0.2032
22674W        W36088  13.089   3.810  12.479 -0.2170 -0.2852  0.1073
22675W        W36089   3.794   3.958  13.065  0.1076  0.2130  0.2636
22676W        W36090   5.920   4.849   1.822 -0.0705 -0.0610 -0.1070
22677W        W36091   5.593   4.329   3.751 -0.1713 -0.0262 -0.1392
22678W        W36092   6.178   9.465  11.524  0.1521  0.1591 -0.1638
22679W        W36093   2.112  18.170   0.073 -0.1308 -0.0775 -0.2067
22680W        W36094  10.789   5.419   5.982  0.4580  0.0101 -0.0469
22681W        W36095  12.408   8.154   1.557  0.0478  0.0943  0.2603
22682W        W36096   3.823   9.924  13.376  0.1327 -0.3983 -0.1938
22683W        W36097  18.160   1.385  14.062 -0.1070  0.0705 -0.0035
22684W        W36098  17.046  10.783   4.724  0.1802  0.2052  0.0668
22685W        W36099  13.383   3.298   2.022 -0.2045  0.1284  0.2635
22686W        W36100   4.399  13.186   5.180 -0.1131 -0.1105  0.0157
22687W        W36101   2.089  12.961   2.811  0.4673  0.0372 -0.1891
22688W        W36102  17.489   1.749   0.403  0.1811 -0.1558  0.0114
22689W        W36103  13.507   1.755   3.914 -0.1202  0.0211 -0.2326
22690W        W36104   6.502   7.793  14.258  0.0066  0.1435 -0.4556
22691W        W36105   3.439   7.948   3.524 -0.0684 -0.0930  0.2866
22692W        W36106  15.985   6.444   2.135 -0.0805 -0.1264  0.1332
22693W        W36107   3.664  13.615  10.963  0.0381  0.4697  0.1400
22694W        W36108   3.032  13.559   0.427 -0.0642 -0.2256 -0.0472
22695W        W36109  15.454  16.298  13.890 -0.0403  0.0252  0.3068
22696W        W36110   0.534   4.298   1.085 -0.2108 -0.0966  0.1361
22697W        W36111   0.582  11.651   0.213 -0.0964  0.3309  0.1294
22698W        W36112   5.116   2.461   2.055  0.0354 -0.1879 -0.2872
22699W        W36113  16.283   2.915  10.558 -0.0723  0.0027 -0.0655
22700W        W36114   0.614   4.789  14.786 -0.4167 -0.0536  0.0609
22701W        W36115   8.452   8.636   5.297 -0.0174  0.1528 -0.0040
22702W        W36116  11.530   6.970   0.658  0.0820 -0.3285 -0.2110
22703W        W36117  13.665  15.539  11.731 -0.1535 -0.3105 -0.4193
22704W        W36118  15.440   6.443   1.912  0.0275  0.1412  0.0314
22705W        W36119   6.893  15.423  13.103  0.1146  0.2208 -0.3831
22706W        W36120   5.842   0.816   5.233  0.1156 -0.1997  0.0018
22707W        W36121   1.425   6.309   0.925  0.1748 -0.0476 -0.1740
22708W        W36122  14.315  16.078   0.742 -0.4127 -0.2154  0.0094
22709W        W36123   1.296   2.915   1.026 -0.1801 -0.0291  0.0709
22710W        W36124   0.951  14.194  12.851  0.0742  0.0470  0.2065
22711W        W36125  14.743  17.046   2.043 -0.0650  0.1146  0.0618
22712W        W36126  10.676  12.839  12.674 -0.1266  0.3282  0.0383
22713W        W36127  15.675   4.489  11.851 -0.0369  0.1011  0.0722
22714W        W36128  10.481   0.848   1.976  0.1457 -0.1849 -0.2161
22715W        W36129   6.867   1.111  11.843  0.0869 -0.0732  0.0490
22716W        W36130  16.133   1.735  11.995 -0.3457  0.1380  0.1375
22717W        W36131   9.888  16.503  11.518 -0.2403 -0.1765  0.1385
22718W        W36132  14.379   0.862   4.298  0.1555 -0.2299 -0.4738
22719W        W36133  11.532   2.118   4.110  0.0291  0.3313  0.2070
22720W        W36134  18.018  11.285   4.281  0.1003 -0.0297  0.0359
22721W        W36135   3.720  14.306   0.624 -0.2622 -0.1077  0.2661
22722W        W36136   3.682  10.814  15.590 -0.2094  0.2561  0.0053
22723W        W36137   3.088   9.313   5.027  0.1363  0.1961  0.2638
22724W        W36138  12.392   3.370  12.251 -0.1582  0.0923  0.0687
22725W        W36139  13.237  11.117  14.879 -0.0054  0.2000  0.1087
22726W        W36140   3.926  14.380  13.268 -0.2822 -0.0825 -0.0034
22727W        W36141  16.789  16.572   3.386 -0.0099  0.2156 -0.4225
22728W        W36142   2.164  15.156  15.553 -0.2433  0.0031 -0.3130
22729W        W36143   5.306   9.290   5.023  0.0772  0.0781 -0.0420
22730W        W36144  13.076  16.227  10.241  0.1068 -0.1598 -0.3940
22731W        W36145   1.105  15.436   4.023  0.0545  0.1035  0.3227
22732W        W36146   4.651   7.623  15.628 -0.0509  0.1746  0.1265
22733W        W36147   7.488   2.223   3.799 -0.1170  0.0322 -0.0918
22734W        W36148   7.955   1.865   0.674 -0.1132 -0.0196  0.0045
22735W        W36149   6.652  16.211   0.105  0.0412 -0.0471  0.1146
22736W        W36150  16.316   3.418  15.841 -0.0137  0.5232  0.0089
22737W        W36151   8.743   5.913  15.676 -0.0511  0.0520  0.1037
22738W        W36152   4.323  11.354  15.831 -0.0918 -0.1676  0.2919
22739W        W36153   8.388   3.200   3.761 -0.2235  0.1337 -0.1719
22740W        W36154   7.141  18.039  14.958 -0.0746 -0.0530  0.2362
22741W        W36155   0.989   9.172  14.040  0.1664  0.1413 -0.0304
22742W        W36156   8.159  12.983   3.804 -0.2791 -0.3416 -0.4674
22743W        W36157  17.046  13.973   6.151  0.1429  0.2160  0.1608
22744W        W36158  17.468   4.154   1.027  0.0219  0.0181  0.0598
22745W        W36159   7.859   8.657   0.246 -0.1593 -0.2841 -0.0507
22746W        W36160  11.883   9.131  11.235 -0.2085 -0.2409  0.0452
22747W        W36161   3.364  13.647  11.404 -0.1331 -0.3048 -0.1806
22748W        W36162   6.603  16.960   2.873 -0.1022  0.2237  0.0166
22749W        W36163   4.720   7.040   4.097 -0.2939 -0.1704  0.3566
22750W        W36164  15.537  11.679   2.783 -0.2120 -0.1126 -0.1430
22751W        W36165  12.861  15.854  10.453 -0.2080 -0.0846 -0.2105
22752W        W36166   9.171   9.855  11.544 -0.1541 -0.2509  0.2047
22753W        W36167   6.142   3.192   2.203 -0.0876  0.2620 -0.0709
22754W        W36168   8.679   3.755  15.076 -0.1492  0.0277  0.4464
22755W        W36169   5.272   3.261  10.857 -0.0434 -0.3027  0.2807
22756W        W36170  17.914   0.773  13.148  0.0336  0.0178  0.0075
22757W        W36171   7.850   1.841  15.302 -0.0234  0.1667 -0.0764
22758W        W36172   1.539  12.276   2.926 -0.2805  0.3606  0.2919
22759W        W36173  14.338   1.371   0.563 -0.4442  0.1193 -0.1311
22760W        W36174   6.453  17.969  15.590  0.0096  0.1797  0.1445
22761W        W36175   7.902  16.006  11.581  0.2914  0.0212  0.0057
22762W        W36176  14.147   3.772  14.683  0.0935  0.2955  0.2489
22763W        W36177   3.155   7.786  13.888  0.0108  0.1320  0.0693
22764W        W36178   9.203  14.904   2.350  0.0265  0.2916  0.0940
22765W        W36179  11.079   0.321   0.048 -0.0443 -0.2438  0.1342
22766W        W36180   9.541   9.678  12.106 -0.3000  0.0919  0.0164
22767W        W36181   7.163   0.649  10.889 -0.2524  0.3278  0.1966
22768W        W36182   1.186   0.485   5.236  0.0810  0.0747  0.2611
22769W        W36183   2.245  13.030   1.580  0.3697 -0.0893 -0.2205
22770W        W36184   4.152   8.757  15.780  0.2341 -0.4498  0.1445
22771W        W36185   1.494  13.421   5.180  0.0458 -0.2353 -0.1945
22772W        W36186  17.246   7.865  10.396  0.2043  0.0523  0.2319
22773W        W36187   6.950  17.193  14.260  0.1090 -0.0569  0.0130
22774W        W36188   1.241   1.542  11.736 -0.1793 -0.1454 -0.2064
22775W        W36189  16.139   0.514   5.482  0.0748  0.0894 -0.1211
22776W        W36190   7.166   5.157   1.953  0.0733  0.0237  0.1521
22777W        W36191  10.551  15.020  10.426 -0.0038  0.2964  0.2790
22778W        W36192  12.727   1.728  13.508 -0.4396  0.0153 -0.0030
22779W        W36193  11.704  16.835   3.198 -0.0993  0.0927 -0.0750
22780W        W36194  12.360   3.188  12.740  0.1954  0.2664  0.1488
22781W        W36195   5.295  11.883  14.715 -0.1261  0.1292 -0.1821
22782W        W36196   6.134  10.586  12.249 -0.1190  0.1345  0.3569
22783W        W36197   0.089   3.331   3.116 -0.1592  0.0902  0.1071
22784W        W36198  10.165   6.742   2.384  0.0536  0.1874  0.0501
22785W        W36199  14.356   7.656   2.707 -0.0282 -0.1640 -0.0135
22786W        W36200   5.155  10.637  13.337 -0.0415  0.2267 -0.1583
22787W        W36201  13.541  18.233   1.162  0.4024  0.1007 -0.0880
22788W        W36202   3.291   4.816   1.080 -0.1859  0.0484  0.2426
22789W        W36203  16.218   0.998  15.661 -0.0112 -0.2419  0.1753
22790W        W36204   9.208  16.988  14.366  0.4378  0.1153  0.0098
22791W        W36205  10.577  11.586   5.037  0.1847  0.2464  0.0933
22792W        W36206   8.225  10.666   5.251 -0.0410  0.0742 -0.0823
22793W        W36207   2.897  14.205  15.070 -0.0410 -0.0269 -0.2273
22794W        W36208   2.789  13.000  14.571  0.2424 -0.0162  0.2000
22795W        W36209  10.937  16.891  14.957 -0.1680  0.5862  0.0181
22796W        W36210  10.321  10.025   2.480  0.0039 -0.0481 -0.5217
22797W        W36211  13.860  18.174  14.449  0.0413 -0.2109  0.1967
22798W        W36212   6.705  10.304  14.098 -0.0564 -0.1750  0.0358
22799W        W36213  12.671  11.030   3.461  0.1675 -0.0059 -0.0884
22800W        W36214   3.246  15.243   1.188 -0.1041  0.1410  0.0344
22801W        W36215   7.921   9.756   6.318 -0.2171  0.1477  0.0453
22802W        W36216  11.280  12.839  12.017 -0.4044  0.0737 -0.0100
22803W        W36217  11.784  12.895   3.124 -0.0477 -0.3481  0.0328
22804W        W36218   6.131  16.733  14.053  0.0148  0.1785  0.3467
22805W        W36219  12.772   3.330  11.755  0.3666 -0.3200  0.1298
22806W        W36220  17.394   9.676  14.710  0.2496  0.1690 -0.0338
22807W        W36221   9.695   2.326   2.793 -0.1821  0.1380 -0.2135
22808W        W36222   2.067   7.880   3.367  0.1548  0.1212  0.2934
22809W        W36223  10.353   3.705   1.632 -0.0648  0.1891  0.0561
22810W        W36224   9.571   0.813  10.777 -0.1228  0.2371 -0.0285
22811W        W36225   8.809   5.187  14.021  0.0100  0.0273  0.2769
22812W        W36226   9.038   3.074  10.269 -0.1906  0.2832  0.2182
22813W        W36227  11.980   9.087  16.238  0.2533  0.2456  0.2053
22814W        W36228  14.364   0.805  15.983 -0.2830  0.1389 -0.1867
22815W        W36229   7.420   4.778  13.251  0.1246  0.2336  0.3615
22816W        W36230   5.181  10.102   2.926 -0.1347 -0.2299 -0.0796
22817W        W36231   6.052   3.299   2.679  0.0457 -0.0936 -0.2448
22818W        W36232   9.099  16.350   0.442 -0.0173 -0.1378  0.2454
22819W        W36233   1.930   8.860  13.355  0.1462 -0.1332 -0.2143
22820W        W36234  13.805  15.777  14.471  0.1726 -0.4561 -0.1350
22821W        W36235  13.095  10.099  15.313  0.0289 -0.0362 -0.0696
22822W        W36236   1.718   4.004  15.350 -0.1299 -0.1170 -0.0106
22823W        W36237   7.398   2.473   2.317  0.1065  0.1058 -0.1556
22824W        W36238  13.355   5.412  15.439 -0.1057  0.1340  0.4241
22825W        W36239   9.675  17.997  11.603 -0.1569 -0.0364  0.0463
22826W        W36240  14.378   5.252  15.794 -0.1028 -0.0559 -0.1362
22827W        W36241   8.434   3.830  10.679  0.0187  0.1307  0.2615
22828W        W36242   1.945  13.319   0.208  0.2955 -0.0069 -0.1553
22829W        W36243   7.739   3.096  14.447 -0.2115 -0.0474 -0.3398
22830W        W36244  16.960   4.152   1.771  0.1356 -0.1653  0.0433
22831W        W36245   7.859  13.890   2.423  0.0919  0.1866 -0.0167
22832W        W36246   0.993   7.281   2.965  0.1091  0.1305  0.1265
22833W        W36247   1.406   9.415  14.083 -0.3219 -0.0185 -0.0614
22834W        W36248   0.422  17.623   5.567  0.0970 -0.3991  0.1737
22835W        W36249  15.847  15.612   2.034 -0.0556 -0.0627 -0.1066
22836W        W36250  11.967  12.248   3.803  0.3083 -0.0782  0.2301
22837W        W36251   8.774   9.128  12.903  0.1105  0.1862  0.2293
22838W        W36252  17.786  14.073   1.265 -0.1363 -0.2204 -0.2478
22839W        W36253   6.402   4.084   0.062  0.1325  0.0602 -0.2565
22840W        W36254   0.469  13.628  12.540  0.0672 -0.2814  0.0861
22841W        W36255   7.152   5.318   6.283 -0.1129 -0.1827  0.1112
22842W        W36256  16.184   1.588  15.082  0.0552  0.1063  0.0672
22843W        W36257  11.791   1.362   1.530 -0.1361 -0.0201  0.3094
22844W        W36258  11.458   0.031  12.017 -0.0455  0.0758  0.2024
22845W        W36259  13.362  13.297   3.157  0.0233 -0.1463 -0.1088
22846W        W36260   9.170   2.028   6.078 -0.0417 -0.1222 -0.1993
22847W        W36261   6.190  17.337   0.959  0.2712  0.2817  0.1043
22848W        W36262   6.413   2.316  13.746 -0.2177 -0.1340 -0.1855
22849W        W36263  14.370   3.284   0.050  0.0233  0.3135 -0.2387
22850W        W36264  18.430   2.045   4.083 -0.0111 -0.1264  0.1898
22851W        W36265  18.363  14.711  13.403 -0.2675  0.2313 -0.2084
22852W        W36266  10.456   0.248  11.525  0.0667  0.1572 -0.3680
22853W        W36267   3.874  11.933   1.781  0.2960 -0.0748  0.0751
22854W        W36268   7.254   9.696  10.545 -0.0542 -0.1175 -0.0482
22855W        W36269  13.493   6.930   5.318 -0.3199  0.0034  0.1840
22856W        W36270   8.049   4.623   3.157  0.1974  0.2245  0.0998
22857W        W36271  17.031   2.388   4.331  0.0063  0.1377  0.1539
22858W        W36272   5.950  12.400   0.095 -0.1147  0.2693 -0.0996
22859W        W36273   9.216  13.136  11.998 -0.0874 -0.2034  0.1262
22860W        W36274   0.949   6.916  11.701  0.0917  0.1659  0.1381
22861W        W36275  11.786   0.349   2.597 -0.2436  0.0823 -0.1745
22862W        W36276   0.902   3.088   0.690 -0.0017 -0.1270  0.2417
22863W        W36277   9.720   3.343  11.487  0.2243 -0.1109 -0.3557
22864W        W36278   1.278   0.727  14.409  0.1629  0.1394  0.0619
22865W        W36279  10.859   1.685   5.349  0.0030  0.1081 -0.0030
22866W        W36280   2.248   8.827  13.779 -0.1007  0.1225 -0.0130
22867W        W36281  16.315   7.167  16.263 -0.3023  0.2318 -0.2096
22868W        W36282   3.457  11.071  14.786 -0.1896  0.4108  0.1663
22869W        W36283  14.430  18.232  13.651 -0.3051 -0.1025 -0.0282
22870W        W36284   9.024   6.983   5.688  0.0960  0.3368  0.1425
22871W        W36285  10.321  11.242  15.050 -0.0176  0.0188 -0.1687
22872W        W36286   9.659  12.495  13.714 -0.1586 -0.1682 -0.0559
22873W        W36287  18.025  12.259   2.113 -0.2661  0.0908 -0.1726
22874W        W36288   1.189   6.283  15.829  0.4820 -0.1238  0.0154
22875W        W36289   9.021  11.901   1.717 -0.2376  0.3074 -0.0560
22876W        W36290   3.105   4.525   4.953 -0.2055  0.1258 -0.0763
22877W        W36291  15.013   6.692  15.245 -0.4520  0.3257  0.1622
22878W        W36292   5.717   6.157  11.490 -0.1627 -0.2420 -0.0328
22879W        W36293  17.025   3.956   1.272 -0.6184 -0.0864 -0.2103
22880W        W36294  13.349  10.201  15.884 -0.0817 -0.0008 -0.3231
22881W        W36295  14.206   3.991  15.142  0.0755  0.0097  0.2527
22882W        W36296  12.597  16.245   0.625 -0.1072 -0.0973  0.0126
22883W        W36297  10.914   6.966  12.795 -0.1893  0.1733 -0.2173
22884W        W36298  10.308   1.276   1.152  0.3013 -0.1930 -0.1963
22885W        W36299   3.273  11.726   2.083  0.1240  0.3415 -0.1898
22886W        W36300   5.960   1.135  10.526 -0.1533 -0.0384 -0.0291
22887W        W36301   7.691   1.108   0.689 -0.0080 -0.0220 -0.1517
22888W        W36302  14.227  13.615  15.753  0.1203  0.2522 -0.1242
22889W        W36303  15.189   2.396  11.285  0.0940 -0.1587  0.1403
22890W        W36304  13.608   9.009  14.088  0.1770 -0.3351  0.0894
22891W        W36305  14.534   6.098   5.790  0.0427  0.1219 -0.1034
22892W        W36306  15.724  11.515  12.173  0.0567  0.3278  0.1254
22893W        W36307   3.074  15.679   0.882  0.0268  0.1623  0.0368
22894W        W36308  12.658  17.613  13.847  0.2143 -0.0760 -0.2520
22895W        W36309   0.179   6.225   1.716 -0.0243  0.0175 -0.3187
22896W        W36310  14.666  17.708   3.792 -0.0683 -0.4004  0.1558
22897W        W36311   5.515   9.134   4.584  0.0548  0.1035  0.0668
22898W        W36312  11.583  11.991   5.566 -0.0853 -0.0310  0.0774
22899W        W36313   1.100  15.291   4.896 -0.0500 -0.1358 -0.1465
22900W        W36314   4.001   2.088   4.369 -0.0977 -0.0469  0.1546
22901W        W36315  12.616  11.320   5.554  0.1076  0.0306  0.1538
22902W        W36316  10.202  10.164   0.848  0.2388  0.0793 -0.1384
22903W        W36317   4.219   3.914   4.289  0.2281  0.4510  0.0601
22904W        W36318  15.445   2.538  13.952  0.0930  0.1106 -0.2555
22905W        W36319   5.262   6.200  16.036  0.1647  0.0942  0.2605
22906W        W36320   1.712  14.523   4.433  0.2538  0.3758  0.0261
22907W        W36321   8.640  12.521   3.873  0.2048  0.0272  0.0600
22908W        W36322   4.777   2.787  12.262  0.1108  0.0438 -0.1636
22909W        W36323   9.905  12.932  15.151  0.0824  0.0846  0.1892
22910W        W36324  10.696   1.746   6.382  0.0684 -0.1402  0.0368
22911W        W36325  11.730  11.585   4.583  0.1823 -0.2689  0.0798
22912W        W36326   9.515   1.032  15.271 -0.0798 -0.1202  0.2089
22913W        W36327   2.538   7.459  15.776  0.0077  0.1124  0.3121
22914W        W36328  16.167  10.996   3.092  0.0903 -0.0945  0.1654
22915W        W36329   8.255   4.912  14.762 -0.0205  0.0077  0.2348
22916W        W36330  12.031   8.929   3.955  0.2764 -0.0093  0.1473
22917W        W36331   8.923   2.854   2.549 -0.1585  0.5095 -0.1033
22918W        W36332   6.410   9.823   1.307  0.1022 -0.2000 -0.1896
22919W        W36333   0.344  15.923   2.183 -0.0838  0.2629  0.0580
22920W        W36334  16.253   7.838  10.214 -0.1934 -0.1129  0.1139
22921W        W36335   9.106  16.668  15.056  0.1245 -0.2292  0.0261
22922W        W36336   3.557   5.404  13.037  0.0667  0.1336  0.1378
22923W        W36337  10.749   8.723  10.826 -0.1021  0.4060  0.1919
22924W        W36338  13.283   6.475   5.343 -0.0152  0.0736 -0.3498
22925W        W36339   4.338   9.237   5.303 -0.0416  0.1414 -0.2698
22926W        W36340   5.520   3.993   4.187 -0.0455  0.3867 -0.1847
22927W        W36341  12.218  12.027  11.676 -0.3116  0.1306 -0.0253
22928W        W36342  14.348   6.640  12.456  0.1608  0.1925 -0.1610
22929W        W36343  14.975   3.654   4.265 -0.2062  0.1745  0.0050
22930W        W36344  15.825   8.466   4.535  0.1144 -0.0377  0.0427
22931W        W36345   3.235   6.714  12.968 -0.2384 -0.2536 -0.0836
22932W        W36346  14.477  13.739  14.222  0.2029 -0.2159  0.2017
22933W        W36347   7.463   8.315   0.168  0.3587 -0.3224 -0.1882
22934W        W36348   8.948   7.495   5.719  0.0759 -0.1238  0.0036
22935W        W36349  18.075   4.038   1.626 -0.1816  0.0343  0.1259
22936W        W36350   5.495  13.011   1.856  0.1577  0.2942  0.0643
22937W        W36351  17.411   2.158   4.769 -0.1534  0.3787  0.0219
22938W        W36352  15.005  11.964  12.940 -0.1405 -0.1338  0.0508
22939W        W36353  14.726   1.655   4.464  0.3883 -0.0901 -0.0060
22940W        W36354   9.497  14.803   4.490  0.2285  0.0506 -0.0451
22941W        W36355  10.257  11.093  11.353 -0.0665 -0.0908  0.2887
22942W        W36356   0.799  17.583   1.145  0.1468  0.1506  0.0048
22943W        W36357   2.539  16.487   0.613  0.0582 -0.0052  0.1613
22944W        W36358  10.540  12.314  14.089 -0.1041 -0.2141 -0.1584
22945W        W36359  11.420  14.714  14.795  0.1349  0.0768  0.0168
22946W        W36360  13.326  11.002   4.690 -0.0220  0.0859  0.0567
22947W        W36361  13.198   7.047   3.632  0.1640  0.2685  0.5477
22948W        W36362  11.509   1.463  13.203 -0.0733  0.0598 -0.1583
22949W        W36363  15.236   0.007  14.567 -0.0835  0.0854 -0.0342
22950W        W36364   1.413  12.073  14.874 -0.0012 -0.2538 -0.1282
22951W        W36365   5.991  10.902  11.815  0.1251  0.1030 -0.0478
22952W        W36366   4.001  15.134   0.118  0.1533  0.3903  0.2910
22953W        W36367   9.188  12.262   1.406  0.0790  0.2756  0.1238
22954W        W36368  14.024   7.870   4.519 -0.1825  0.0835 -0.0987
22955W        W36369   2.956  11.144  13.484 -0.1766 -0.0666 -0.2170
22956W        W36370   8.619  10.209   4.704 -0.2879 -0.5235 -0.0707
22957W        W36371  14.998  15.946   3.444 -0.0355 -0.1049  0.1627
22958W        W36372   6.481   2.813  13.970 -0.1796 -0.0137 -0.2730
22959W        W36373  16.368   3.341  10.940  0.1941 -0.0570 -0.0357
22960W        W36374  17.867   2.337   0.312  0.1021  0.4160 -0.1142
22961W        W36375  17.421   6.929  14.716  0.1109 -0.0218 -0.2250
22962W        W36376   7.243  13.095   2.349 -0.0647 -0.0616  0.0820
22963W        W36377   8.988  18.159  12.473  0.0885 -0.0597  0.1488
22964W        W36378  13.617   6.213   1.143  0.2307  0.4238 -0.0728
22965W        W36379   7.630  13.202   1.450 -0.0607  0.0983 -0.0574
22966W        W36380  13.467   2.770  15.602 -0.0355 -0.0686 -0.0973
22967W        W36381   4.724   6.073   5.125 -0.0913  0.3249 -0.2979
22968W        W36382  17.860  15.425  16.210  0.0817 -0.1845 -0.3578
22969W        W36383   1.657  11.485   3.236 -0.0292  0.0611 -0.1121
22970W        W36384  15.509   9.110  11.165 -0.2089  0.0342  0.1307
22971W        W36385   5.430   9.771   9.806 -0.0336 -0.1388  0.0961
22972W        W36386  15.694   2.516   5.020  0.0454 -0.1246  0.2793
22973W        W36387  17.962   7.410  10.413  0.1403 -0.0809  0.1810
22974W        W36388   8.918   3.019   4.819  0.0162 -0.2790  0.2030
22975W        W36389  13.139   1.171   1.368  0.2723 -0.2635 -0.3705
22976W        W36390  13.513  16.894   3.989  0.0513  0.0389 -0.0435
22977W        W36391  12.623  10.036  15.344  0.0433 -0.2211 -0.0437
22978W        W36392   0.103  12.400   5.673  0.0781 -0.0623  0.2754
22979W        W36393  13.889  14.133   2.517  0.2920 -0.1002 -0.0910
22980W        W36394  10.888  18.514  12.021  0.1296  0.2902 -0.1226
22981W        W36395   7.047  18.449  11.341  0.1161  0.1985  0.2768
22982W        W36396   7.841   3.335   0.084 -0.0995  0.3016 -0.5376
22983W        W36397   0.659  18.053   0.916  0.1478  0.2879 -0.1746
22984W        W36398  16.556   4.333   3.771  0.3332 -0.0830 -0.2676
22985W        W36399  13.723   3.412  10.803 -0.2088  0.0080  0.3241
22986W        W36400   9.907   8.711  11.291 -0.1686 -0.1185 -0.1579
22987W        W36401   2.978  17.992  15.560 -0.1247  0.0013 -0.1818
22988W        W36402  10.409  11.401   3.336 -0.0766 -0.3786  0.2533
22989W        W36403   9.897   1.896  12.473 -0.1891 -0.2242  0.1453
22990W        W36404   9.424  11.231  15.861  0.0518  0.1137  0.0712
22991W        W36405  17.989   1.455  13.568 -0.0970 -0.0763 -0.1923
22992W        W36406   0.028   7.072  13.976 -0.0053 -0.1501 -0.1311
22993W        W36407  14.955   1.373   6.091 -0.1569 -0.2733 -0.0005
22994W        W36408  13.929  16.789   4.325 -0.2432 -0.0490  0.0504
22995W        W36409  11.459   6.042  14.335 -0.0782 -0.0525 -0.0961
22996W        W36410   7.798   4.620  10.444 -0.0785  0.0374  0.2525
22997W        W36411  16.729   2.282   2.690  0.4479 -0.2384 -0.0781
22998W        W36412  17.668  10.231  11.043 -0.0296  0.5335  0.0457
22999W        W36413   0.850  10.357   5.808  0.3752 -0.2973 -0.0646
23000W        W36414  12.249  11.440   0.515 -0.0277  0.2634 -0.2640
23001W        W36415   4.534   2.427  14.422 -0.2086 -0.2077 -0.2587
23002W        W36416  12.351   1.194  16.082  0.0165  0.3065  0.0794
23003W        W36417  12.078  13.628   2.369 -0.0839 -0.2532 -0.1233
23004W        W36418   6.727  12.921  10.814 -0.0726  0.0186 -0.1756
23005W        W36419  15.205   9.497   5.897 -0.1314  0.5098  0.0971
23006W        W36420   1.472   3.058   2.457 -0.0457 -0.0957  0.2839
23007W        W36421   6.972  10.104   5.304 -0.0737  0.1419  0.1315
23008W        W36422  16.169   3.890  15.557  0.4687  0.0394 -0.2261
23009W        W36423  13.662  11.587  12.533 -0.1448 -0.0478  0.0815
23010W        W36424   2.540  17.059  13.916  0.0322 -0.0911 -0.1993
23011W        W36425   3.367   4.389  11.986 -0.3088 -0.2351  0.2621
23012W        W36426  14.923  10.711   0.068  0.0207 -0.1889 -0.1367
23013W        W36427  16.116   9.523  11.778  0.1109 -0.1039  0.1129
23014W        W36428  17.655   5.713   4.171  0.0065 -0.0359  0.0046
23015W        W36429   3.338   3.644   1.292  0.0253 -0.3351 -0.1863
23016W        W36430  15.276  15.733  13.545  0.0233 -0.1456  0.1168
23017W        W36431  12.480  18.501   5.541  0.2442 -0.0879  0.2026
23018W        W36432   8.352   3.030   6.111 -0.0906 -0.1433 -0.2519
23019W        W36433   7.997  13.447   4.045  0.2934 -0.0547 -0.1904
23020W        W36434  15.864  13.724  12.107 -0.0862 -0.3650  0.0398
23021W        W36435  11.042   2.157  13.913 -0.0655 -0.0584 -0.1547
23022W        W36436   8.789  11.359   4.321 -0.1451  0.0192  0.1730
23023W        W36437   6.206   6.596  13.783 -0.1874 -0.0619 -0.4314
23024W        W36438   3.158   7.308   3.293  0.1784 -0.1879 -0.0397
23025W        W36439   1.490   6.614   0.493  0.0382  0.1326  0.2199
23026W        W36440  14.389   2.561  13.104 -0.3892 -0.0203  0.0303
23027W        W36441  18.165  16.262  11.149  0.0001  0.0022 -0.0223
23028W        W36442   4.069   9.968  10.956 -0.0195 -0.0663  0.0609
23029W        W36443   6.013   5.237   9.913  0.5676 -0.1038  0.0320
23030W        W36444  11.503  10.843   3.943  0.1689  0.3813  0.1817
23031W        W36445  13.102   8.750   4.355 -0.2503 -0.0052 -0.0850
23032W        W36446   1.058  18.365   2.753 -0.0456  0.0335 -0.0624
23033W        W36447   1.950   4.638   3.496 -0.2320 -0.3702  0.0236
23034W        W36448  13.301   8.692   3.753 -0.0804  0.0882 -0.1514
23035W        W36449  13.293   4.772   3.638  0.1767 -0.1004 -0.2111
23036W        W36450  13.776  17.669  11.795  0.0320 -0.1335 -0.2249
23037W        W36451  10.074   8.799   5.452 -0.2410  0.2461 -0.1653
23038W        W36452  18.110   2.642   6.214  0.0390 -0.3178  0.0132
23039W        W36453   9.829  17.483   1.884 -0.2646  0.2085  0.1627
23040W        W36454   8.503   0.061  11.144  0.1951  0.5967 -0.0336
23041W        W36455  17.588  10.124  15.107  0.0078  0.1188 -0.0162
23042W        W36456  16.764  13.020   1.561 -0.3307  0.2936 -0.4359
23043W        W36457  12.266   7.276   0.532  0.1408 -0.0714  0.1109
23044W        W36458   9.358  12.938  12.708  0.4087 -0.0984 -0.2960
23045W        W36459   5.029  11.946   0.185  0.3322 -0.0875  0.5248
23046W        W36460  11.914   8.467   2.032  0.0635 -0.0181  0.1455
23047W        W36461  12.352  12.496  15.876 -0.0316  0.0439  0.0491
23048W        W36462   6.697  16.054  12.477  0.1299 -0.3151 -0.0165
23049W        W36463   5.901   0.958   1.451  0.2250  0.1740 -0.0494
23050W        W36464   5.357  18.329   0.734 -0.3124  0.3760 -0.2232
23051W        W36465  13.388   6.131  11.574 -0.2412  0.1333  0.1297
23052W        W36466  17.014   4.766   5.111  0.1869 -0.2731  0.1383
23053W        W36467   5.905  11.516   3.946  0.1037  0.0088  0.0895
23054W        W36468  13.414  11.551   5.774  0.1944  0.1674  0.2449
23055W        W36469   4.266  17.348   2.779  0.0249  0.2030 -0.0230
23056W        W36470   6.794   8.217  10.700  0.1629 -0.1558 -0.0699
23057W        W36471   5.027  17.564   5.675  0.0362 -0.1208 -0.1994
23058W        W36472  10.387   1.394  16.048  0.0109  0.0679 -0.2297
23059W        W36473   4.748   8.159  14.433  0.2524  0.0583 -0.0778
23060W        W36474  17.133  17.092  13.658  0.2451 -0.3958  0.0576
23061W        W36475  12.041  18.045   1.097 -0.0973  0.1630 -0.0869
23062W        W36476   8.257   1.492  14.443 -0.1284 -0.0632  0.3749
23063W        W36477  11.787   7.010  16.099  0.0821 -0.0524 -0.0051
23064W        W36478  10.744   3.863  16.115  0.0305 -0.1287  0.1833
23065W        W36479  11.863  14.755   2.395 -0.1957  0.2464  0.0405
23066W        W36480  11.224   8.415   5.319  0.1966  0.0421  0.1450
23067W        W36481  11.341   8.378   1.043 -0.1425  0.1714 -0.1733
23068W        W36482  10.002  17.005  11.601  0.0987 -0.0544 -0.0611
23069W        W36483   2.037   4.971  14.901 -0.2814  0.1439  0.1352
23070W        W36484   6.673   2.172  12.795  0.2836  0.0439 -0.2664
23071W        W36485  12.256   3.871  14.912  0.1042 -0.4878  0.0020
23072W        W36486   2.264  12.691   4.321 -0.1933 -0.3267 -0.1614
23073W        W36487  13.512   1.372  16.238 -0.0160  0.0835  0.1993
23074W        W36488  12.278   6.122   2.388 -0.3114 -0.0824  0.1689
23075W        W36489  15.367  13.816   1.196 -0.0400 -0.1271 -0.1777
23076W        W36490  10.269   6.446  12.261 -0.0325  0.0664 -0.0372
23077W        W36491   8.770  10.924  12.471 -0.2997 -0.0046  0.1798
23078W        W36492   1.755  13.570  14.422  0.1762 -0.2124 -0.2313
23079W        W36493  11.052   8.798   0.392  0.1146  0.0044 -0.0417
23080W        W36494  11.632  17.902  11.492 -0.2305 -0.0726 -0.0478
23081W        W36495   1.460   9.451  12.146 -0.0385 -0.0138  0.1844
23082W        W36496   6.338  14.778   3.961 -0.1698 -0.2091  0.0045
23083W        W36497   4.161   0.073  15.593 -0.0077 -0.2508 -0.0437
23084W        W36498   8.981   7.692   4.801 -0.0056 -0.0115 -0.2933
23085W        W36499   9.618   9.383  14.365  0.3329 -0.1837 -0.4464
23086W        W36500  12.006   3.158  14.412  0.0682  0.0875 -0.1841
23087W        W36501  18.354  14.362   0.497 -0.0802  0.1198 -0.1802
23088W        W36502   3.335   9.977  11.408 -0.2755 -0.1601  0.1052
23089W        W36503  13.384  16.781   5.093  0.1925  0.0913  0.0550
23090W        W36504  12.037   5.393   1.667  0.0638 -0.0638  0.0160
23091W        W36505   9.481  10.600   5.379  0.1672  0.1186  0.4235
23092W        W36506   3.591  16.674   3.330 -0.2575 -0.1588 -0.2980
23093W        W36507   4.694  17.096   3.041 -0.0795 -0.3471  0.3078
23094W        W36508  11.574   0.919   5.308  0.1986  0.0627  0.2173
23095W        W36509   5.194   7.444   0.217 -0.0202  0.0101  0.0381
23096W        W36510   6.871  14.227   4.956  0.3266 -0.1160 -0.1199
23097W        W36511   3.642   5.804   1.174  0.0433  0.0709  0.1465
23098W        W36512   6.072   9.205   2.212  0.1767 -0.3892  0.0617
23099W        W36513  12.213  17.639   3.664  0.2884 -0.1213 -0.5568
23100W        W36514  12.313   9.259   5.564 -0.1939 -0.0182  0.3134
23101W        W36515  11.965  15.695   5.090  0.0474  0.2630 -0.0562
23102W        W36516  15.156   3.836  14.199  0.0761  0.1840  0.1855
23103W        W36517  18.024   0.648   0.969 -0.2952  0.0543 -0.1247
23104W        W36518   3.797   8.574   2.253  0.0276 -0.0767 -0.3071
23105W        W36519  14.252  11.561  15.280 -0.0841  0.0488  0.2924
23106W        W36520  16.702  18.029   0.807 -0.0124 -0.2848 -0.2847
23107W        W36521  12.380  10.052  14.720  0.0590 -0.1062 -0.0434
23108W        W36522  12.021   7.531   2.536 -0.1408 -0.0674  0.1119
23109W        W36523   9.456  11.681  11.982 -0.1743  0.1501 -0.1824
23110W        W36524   8.590   9.945   2.422 -0.0132 -0.1019 -0.2675
23111W        W36525   5.724   7.073  15.354 -0.1122 -0.2752  0.1000
23112W        W36526   5.619   2.257   4.584 -0.1290  0.1932  0.2409
23113W        W36527   4.145   2.820   2.287  0.1329 -0.0355  0.0151
23114W        W36528   1.215  17.903   2.265 -0.3896  0.1846  0.2537
23115W        W36529  18.126   3.502   1.836  0.2320  0.1416  0.1548
23116W        W36530  17.895  13.486   4.475  0.2611 -0.4025 -0.2593
23117W        W36531  17.361   0.612  10.527  0.0067  0.1992  0.0664
23118W        W36532  15.183   3.780   1.798  0.0925  0.1467 -0.2998
23119W        W36533   0.571  11.729   4.308  0.0618  0.0440 -0.0089
23120W        W36534   0.981  11.798   0.899  0.1663 -0.0160 -0.3912
23121W        W36535   0.847   8.222   2.548 -0.2046  0.1132 -0.0022
23122W        W36536  15.791  12.517   3.134  0.1065  0.1858  0.1466
23123W        W36537  10.867   3.669  15.671  0.1802  0.1515  0.1046
23124W        W36538  15.700   4.661  13.828 -0.2858  0.1786 -0.0578
23125W        W36539  16.669   7.779   6.268 -0.0433  0.0877  0.0620
23126W        W36540   8.852   8.779   3.016  0.1893  0.2837 -0.2484
23127W        W36541  17.856  10.316   5.285  0.0887 -0.0561  0.2187
23128W        W36542  17.666  11.856   0.175  0.1014  0.1772 -0.0798
23129W        W36543  18.288   4.754  11.020  0.1371 -0.4778  0.1409
23130W        W36544   0.668   1.732   5.523 -0.2944  0.0545  0.2608
23131W        W36545   7.648   8.948   5.420 -0.0306 -0.1237 -0.3858
23132W        W36546   8.478   0.252   1.752 -0.0689 -0.0363  0.2294
23133W        W36547  10.931   4.503  13.799  0.6165 -0.2235 -0.0066
23134W        W36548   7.896   9.516  15.475  0.2106 -0.1847  0.4371
23135W        W36549  14.048   4.906  12.489 -0.5323  0.2386  0.3775
23136W        W36550   5.476   9.268   3.611  0.1980  0.1169  0.1800
23137W        W36551   8.982   0.995  13.132 -0.0431 -0.1064  0.1265
23138W        W36552  15.133   2.931  15.068 -0.0669 -0.1012  0.0867
23139W        W36553  12.684  16.156   4.128 -0.0960 -0.0546 -0.1184
23140W        W36554   1.763   1.409  16.239  0.2142  0.1815 -0.1135
23141W        W36555   5.245  13.718  10.262  0.0586  0.2497  0.1823
23142W        W36556  13.192   8.812   3.229 -0.0693 -0.0959 -0.1670
23143W        W36557   2.612   3.247  15.463  0.2046 -0.1758 -0.3246
23144W        W36558  12.628   0.427   1.095 -0.2021  0.0713  0.1092
23145W        W36559  18.207   1.370  10.691  0.0642 -0.0325 -0.0556
23146W        W36560   0.859  15.400   0.041  0.0065 -0.3022  0.1209
23147W        W36561  10.296   0.026   2.301  0.0258 -0.0837  0.0508
23148W        W36562   6.038  13.905  12.219  0.0247 -0.0405 -0.0394
23149W        W36563  10.299   1.357   0.678 -0.0689  0.1938 -0.1512
23150W        W36564  11.711  16.794  12.846  0.1151 -0.0440 -0.1646
23151W        W36565   0.768   3.560  10.465 -0.2627 -0.1810 -0.1700
23152W        W36566  10.210   4.112   1.336  0.2627 -0.1240  0.0390
23153W        W36567   7.300   5.726   5.905  0.0792  0.4587  0.0152
23154W        W36568  15.278  12.888  11.699  0.0876 -0.2282 -0.0241
23155W        W36569   4.291  14.246   1.603  0.1133  0.0978 -0.2147
23156W        W36570   1.819   3.891   2.660  0.0310 -0.1600 -0.0274
23157W        W36571   7.725   6.751  10.949 -0.0439  0.4960  0.1162
23158W        W36572  17.833   3.879   6.242 -0.1300 -0.1059 -0.0870
23159W        W36573  10.434   8.509   1.990  0.1698 -0.0964 -0.0320
23160W        W36574   5.696   1.329  12.423 -0.0931  0.3985 -0.0575
23161W        W36575  13.213  18.182  14.348  0.0699 -0.0334 -0.0522
23162W        W36576  16.901  12.070   6.208  0.2170  0.0638 -0.3958
23163W        W36577  18.036   8.901  15.232 -0.1320 -0.2894 -0.1178
23164W        W36578   3.387  17.492  12.244  0.3200  0.1464 -0.0756
23165W        W36579   7.480   0.124   3.405 -0.2158  0.1992  0.0607
23166W        W36580   5.370   9.981  15.369  0.2758  0.2048  0.1674
23167W        W36581  14.873   5.536   5.170  0.0655 -0.2443 -0.3042
23168W        W36582   1.017  15.306   5.694 -0.3184 -0.2669  0.1698
23169W        W36583   9.324  10.396  12.950 -0.2435 -0.0685  0.2929
23170W        W36584  10.013   9.134  15.250  0.1593 -0.0762  0.3062
23171W        W36585   0.601  17.734   5.103  0.1091  0.0085 -0.0635
23172W        W36586  13.601   5.804  15.697  0.1806 -0.2046  0.2667
23173W        W36587  18.218   6.059  14.357 -0.0470 -0.0289 -0.1879
23174W        W36588   5.110   3.591  14.571 -0.0797 -0.0187  0.1992
23175W        W36589   1.600   8.953  10.769 -0.1888 -0.1384 -0.0225
23176W        W36590   2.607   4.004   2.403 -0.0251  0.0536 -0.1195
23177W        W36591  15.014   8.777   1.607 -0.3759  0.1203  0.2681
23178W        W36592  10.955   3.128  15.910  0.2930 -0.1620  0.0456
23179W        W36593   5.431  12.587   1.580 -0.0388  0.1734 -0.0270
23180W        W36594  12.458   2.997   2.018 -0.0733  0.0016  0.3653
23181W        W36595   8.818  10.836   0.558 -0.2203  0.0707 -0.0544
23182W        W36596  17.586   3.902   2.521  0.4601 -0.0312  0.0460
23183W        W36597   1.501  17.171   1.497 -0.1038  0.0581  0.3394
23184W        W36598  17.595  10.183   5.772  0.0594  0.0352  0.1971
23185W        W36599  17.261  18.118   0.071  0.1404 -0.0522  0.0095
23186W        W36600  14.999   5.899   2.955  0.1013 -0.2606  0.1322
23187W        W36601   7.522  15.084  11.726  0.0147  0.0749 -0.2515
23188W        W36602   6.710  11.828  13.644 -0.2393 -0.0409  0.0948
23189W        W36603   6.715  18.135   0.450 -0.1754  0.0726 -0.1429
23190W        W36604   2.988   6.657   3.485  0.0069 -0.1263 -0.3190
23191W        W36605  14.896   7.423   4.469  0.2237 -0.2953 -0.0539
23192W        W36606  11.353  13.255  12.365  0.0215 -0.0774  0.1243
23193W        W36607  10.915  17.174   5.705 -0.2820 -0.0218 -0.1184
23194W        W36608   5.710  14.648   1.598  0.2142  0.0221 -0.0524
23195W        W36609   6.290  15.254  15.978  0.2616 -0.0215 -0.0394
23196W        W36610   9.166  14.242   2.492 -0.0229  0.2536  0.2640
23197W        W36611   1.654  13.303  10.693  0.3317 -0.1080  0.0895
23198W        W36612   6.902   8.359  12.197 -0.0071 -0.1283  0.2049
23199W        W36613   3.426  16.412   4.730 -0.0185 -0.2533  0.1720
23200W        W36614   6.112   6.314   0.546  0.1179  0.0760 -0.1457
23201W        W36615  17.566   5.644  11.131  0.1891 -0.1505  0.0666
23202W        W36616  10.184  13.021   1.183  0.0610  0.1045  0.1043
23203W        W36617   4.736   1.588   3.924  0.0148 -0.0565 -0.0506
23204W        W36618   6.681  16.959  12.209  0.2862  0.1436 -0.0514
23205W        W36619  15.290  17.961  15.258 -0.0662 -0.0111  0.0945
23206W        W36620  16.143   8.844  14.314  0.1581  0.1106  0.1845
23207W        W36621   8.374   6.249  15.494  0.0013 -0.1083 -0.0514
23208W        W36622  13.879  17.896   3.977 -0.1840 -0.1919  0.1817
23209W        W36623   5.270   6.288  11.373  0.1360  0.3395  0.2066
23210W        W36624  13.757  12.304  13.861  0.1688  0.2109 -0.0050
23211W        W36625  17.031   0.702   5.299  0.1783  0.0972  0.0972
23212W        W36626   7.723   4.750  14.996 -0.1920 -0.0107  0.1655
23213W        W36627  10.355   3.347  14.011  0.1367 -0.0752 -0.1229
23214W        W36628   9.009  17.856  14.266  0.0853  0.0863 -0.1652
23215W        W36629   5.526  12.315   4.138  0.1070 -0.1240  0.1367
23216W        W36630   4.983  15.520  10.676  0.1628 -0.0156  0.1280
23217W        W36631   8.051   5.216   6.173 -0.3213 -0.0484 -0.1181
23218W        W36632   6.465  15.550   5.752 -0.4262 -0.4277 -0.0711
23219W        W36633   1.064  15.149  14.794  0.3855 -0.1307 -0.0582
23220W        W36634   5.276  12.621   0.834  0.1409 -0.0766  0.0660
23221W        W36635  15.945   5.077  10.872  0.0827 -0.0611 -0.2862
23222W        W36636  14.566   1.767  12.638  0.0681  0.0710 -0.1313
23223W        W36637   8.395  17.532   3.221 -0.0687  0.1501  0.0552
23224W        W36638   2.318  18.136   2.886  0.3517 -0.2551  0.2222
23225W        W36639  11.203  17.353  10.433  0.2599 -0.0488  0.1347
23226W        W36640   5.051   4.493   5.025 -0.1357 -0.0650  0.2903
23227W        W36641  11.200  15.600   5.544  0.0508 -0.2628  0.4059
23228W        W36642   9.981  16.915   5.275 -0.0803  0.0788 -0.3107
23229W        W36643   2.833  13.862  15.433 -0.2155  0.0416 -0.0835
23230W        W36644   3.177  11.793  10.840 -0.0892  0.0524  0.1149
23231W        W36645  17.714   6.613  13.237 -0.0902  0.0821  0.1932
23232W        W36646   9.958  11.897  14.455  0.0021 -0.0671  0.0159
23233W        W36647  17.919  14.975  11.435  0.0731 -0.1020  0.3256
23234W        W36648   8.412   8.632  15.835  0.0323  0.2495  0.1617
23235W        W36649   1.818   8.989   4.279 -0.0584 -0.1960  0.2404
23236W        W36650  17.917   1.766   3.702 -0.1612  0.0682 -0.1330
23237W        W36651   4.609  14.265  12.320  0.1415 -0.1380 -0.3835
23238W        W36652  10.042  16.855  11.145  0.0133 -0.0378  0.2127
23239W        W36653   2.764   1.780  16.186 -0.1314  0.0846 -0.0580
23240W        W36654   6.627   3.319  14.030 -0.2427 -0.0667  0.0626
23241W        W36655   2.093   5.735   5.606  0.1342 -0.1024  0.2275
23242W        W36656  12.249  15.363   3.937 -0.0830 -0.1485  0.2804
23243W        W36657   0.203  15.997  13.579 -0.1422  0.1958 -0.3193
23244W        W36658  11.002  11.540   1.198  0.2781  0.0792 -0.4230
23245W        W36659  12.694  13.594  10.415  0.1162 -0.0267 -0.0620
23246W        W36660   6.589   2.919  13.096  0.4139 -0.1065 -0.0424
23247W        W36661   1.942   6.876  11.368 -0.2408 -0.0912 -0.0122
23248W        W36662   2.734   1.979   4.120  0.3408 -0.2248  0.2430
23249W        W36663   4.682   7.456   4.901  0.1775  0.3047 -0.1521
23250W        W36664  14.255  15.372   5.623 -0.2378 -0.2435 -0.1286
23251W        W36665   5.964   5.943  15.574  0.1080  0.1213 -0.0259
23252W        W36666  13.065   2.654   5.128 -0.0296  0.1606 -0.0288
23253W        W36667  11.949  10.045  16.263  0.2162  0.1465 -0.0938
23254W        W36668   8.388  18.321   1.578 -0.1660 -0.0047 -0.1434
23255W        W36669  13.878   6.512  15.019 -0.0680 -0.1091 -0.1273
23256W        W36670  14.838   6.603  11.582 -0.0957 -0.1895 -0.2585
23257W        W36671   4.111  12.645   0.556 -0.2013  0.3580 -0.1700
23258W        W36672  13.769   9.503  10.741 -0.0074  0.1635  0.1485
23259W        W36673   9.321  13.238   3.362  0.6406 -0.0466 -0.2161
23260W        W36674  14.201   9.960  15.111  0.0883 -0.0976  0.1202
23261W        W36675  16.175   8.262   2.190 -0.0237 -0.2841  0.0045
23262W        W36676  10.887  18.286  13.994 -0.3121  0.2958 -0.2129
23263W        W36677  16.315   2.801  14.526 -0.1379  0.1810  0.1133
23264W        W36678   3.646  17.035  13.068 -0.1171 -0.1628 -0.2140
23265W        W36679  14.546   7.534   5.902 -0.0829 -0.0113  0.0297
23266W        W36680  16.197   4.878  15.588 -0.0084  0.0293  0.1602
23267W        W36681  10.750   0.493   0.823  0.0081  0.2150 -0.1605
23268W        W36682  18.155   2.271   3.741 -0.2565  0.0639 -0.0753
23269W        W36683   7.958  11.130  14.769 -0.0091 -0.0976 -0.1745
23270W        W36684   1.463   4.541  14.420  0.0034 -0.0265  0.1888
23271W        W36685  13.849   1.019   6.465  0.0549  0.0381  0.0281
23272W        W36686  18.399  15.243   0.895 -0.3207 -0.0184 -0.0032
23273W        W36687  12.527  16.932  12.624  0.0780 -0.1551 -0.3563
23274W        W36688  15.382   3.321   1.916 -0.1423  0.2281  0.2342
23275W        W36689  11.964   5.627  14.270  0.0304  0.0823 -0.1719
23276W        W36690  17.751   9.965  10.574 -0.2103 -0.2021 -0.0139
23277W        W36691   1.894  10.720  14.613  0.0427  0.0648  0.1214
23278W        W36692  16.739   1.255   4.940  0.1136 -0.1198 -0.2472
23279W        W36693   4.552   9.217  13.496 -0.2060 -0.0545  0.0808
23280W        W36694   7.707  14.589  14.541  0.0640  0.2781  0.0048
23281W        W36695   6.324   5.255  15.933 -0.4290  0.3151  0.1110
23282W        W36696   7.786  12.523   1.773  0.0261  0.0343  0.0938
23283W        W36697   6.284  16.550   2.030 -0.2041 -0.0151 -0.3058
23284W        W36698  17.287  16.020  12.645 -0.1588 -0.1040 -0.2007
23285W        W36699   0.125   7.416  15.053  0.1792  0.1960  0.2141
23286W        W36700  10.090   3.916   2.836  0.1331 -0.1089  0.1204
23287W        W36701   0.461  16.608  11.823 -0.1355 -0.2033  0.0843
23288W        W36702   7.957  17.422   5.147  0.2293 -0.3163  0.1879
23289W        W36703  14.300   3.055  13.085  0.2517 -0.2640  0.2094
23290W        W36704   6.688   3.175  11.272 -0.2749  0.1904  0.0740
23291W        W36705  11.536   5.137   5.090 -0.0663  0.0002 -0.1525
23292W        W36706  16.030  10.699   1.115 -0.3032  0.1837 -0.2457
23293W        W36707   8.108  17.812   0.718 -0.1518  0.1418 -0.1967
23294W        W36708   5.171   3.413  11.786  0.1267  0.0887 -0.1307
23295W        W36709  17.492   9.848   4.325 -0.2055  0.0758  0.1865
23296W        W36710   4.655   8.998   9.938  0.1697  0.2159  0.1627
23297W        W36711   4.819   7.714  13.334  0.0610 -0.0702 -0.0250
23298W        W36712   3.213   9.962  12.873 -0.1050 -0.0489  0.0549
23299W        W36713  10.797  13.456  11.597 -0.0572  0.3441 -0.0174
23300W        W36714   4.480  16.998   0.029  0.4041  0.1727 -0.3369
23301W        W36715   2.428  11.860   4.977 -0.0158  0.0814  0.2292
23302W        W36716   2.050  14.851  13.248 -0.2018  0.3082 -0.1484
23303W        W36717  16.773  14.478  10.490 -0.0252 -0.2022 -0.0493
23304W        W36718  14.731   8.462   1.832  0.1811  0.1641 -0.0545
23305W        W36719   7.418   1.434  10.297  0.1180 -0.0573 -0.1037
23306W        W36720   7.412   1.788   5.050  0.2694  0.0668  0.2218
23307W        W36721  10.933   8.411   2.796 -0.1487  0.0353 -0.4634
23308W        W36722   5.328  15.010  12.242  0.1182  0.1011  0.1940
23309W        W36723   6.721  13.357   4.548 -0.1756 -0.1088  0.0869
23310W        W36724  14.459   9.156   1.371  0.1323 -0.1819  0.0578
23311W        W36725  12.520   1.797  14.587 -0.0538 -0.1723  0.1868
23312W        W36726   9.022  16.645  13.311  0.0694  0.1881 -0.0985
23313W        W36727   4.277   0.747  10.565 -0.1922 -0.0924  0.2517
23314W        W36728   6.087  15.624   0.788 -0.0415 -0.1162 -0.0541
23315W        W36729  14.325  14.072  15.588 -0.3281 -0.0082 -0.0385
23316W        W36730   0.301   2.227   2.112 -0.1216 -0.0185 -0.1821
23317W        W36731   2.683  12.568   2.492 -0.2149 -0.2836 -0.1136
23318W        W36732   3.149   8.706  12.272  0.0703  0.2861  0.1013
23319W        W36733  17.781   1.462  10.911 -0.1183  0.0466 -0.2178
23320W        W36734   3.549   2.372   3.466 -0.1873  0.0006 -0.1857
23321W        W36735  11.606  14.352   2.415 -0.1441  0.3326  0.1030
23322W        W36736  13.914   9.198   2.098 -0.0284 -0.0380 -0.0700
23323W        W36737   6.649  13.393   5.329 -0.0916 -0.1586  0.1067
23324W        W36738   4.540  12.208   1.980 -0.1710  0.0066 -0.0699
23325W        W36739   0.758  14.464   0.462 -0.0499 -0.0446 -0.1235
23326W        W36740  14.546   2.804  12.359  0.2353  0.0961 -0.3087
23327W        W36741  14.881   0.085  15.886 -0.0580 -0.1025  0.3953
23328W        W36742  11.212   2.938   4.289  0.0208  0.0687 -0.2967
23329W        W36743  11.611   8.479  14.245 -0.1360  0.0895  0.1234
23330W        W36744  16.084   1.452  15.656  0.0831 -0.1108 -0.0047
23331W        W36745   6.992   9.398   2.390 -0.1534  0.1750 -0.5874
23332W        W36746  16.938  17.584  15.848 -0.0574  0.0951 -0.2840
23333W        W36747  11.640   4.218   3.823 -0.1124 -0.1606  0.1431
23334W        W36748   3.891   1.263   3.669  0.2088 -0.2065 -0.0973
23335W        W36749  15.353   6.447  11.874  0.1550 -0.1583 -0.1781
23336W        W36750   8.818  12.520  15.120  0.0198  0.1348 -0.0943
23337W        W36751   1.866   0.236  15.032  0.1406 -0.1516  0.2325
23338W        W36752  14.956  11.586   0.709  0.0052 -0.0942 -0.0859
23339W        W36753   3.853  15.417   2.130 -0.0480  0.1886 -0.1470
23340W        W36754  10.037   9.439  14.690  0.1565  0.1250 -0.1370
23341W        W36755   4.187   6.416   4.092  0.2116 -0.1233 -0.0095
23342W        W36756  16.391   1.612  11.440 -0.0379 -0.2680  0.2224
23343W        W36757  11.631  17.878  12.530  0.4557 -0.1319 -0.0616
23344W        W36758  12.559   4.547   4.027 -0.1557  0.0116  0.0874
23345W        W36759   1.463  15.850   1.783 -0.1670 -0.3542  0.0444
23346W        W36760   6.559   6.794   1.437  0.3590 -0.2263 -0.0027
23347W        W36761   2.741   5.094  10.712 -0.0262 -0.0066 -0.0864
23348W        W36762  16.157   6.865  14.605 -0.2248 -0.0609 -0.1480
23349W        W36763  13.181  13.368   5.770 -0.3163  0.1099 -0.6529
23350W        W36764   5.960   1.808  11.615  0.2081 -0.1827 -0.1773
23351W        W36765  15.099   6.526  13.863 -0.2751  0.0685  0.3398
23352W        W36766   4.511  10.813  12.558 -0.1215  0.2447  0.2178
23353W        W36767  11.087   4.876   1.821  0.0583 -0.1927 -0.2180
23354W        W36768  17.103  17.370   1.757 -0.0003 -0.1802 -0.2015
23355W        W36769  14.885  13.570   3.258  0.0220 -0.1129 -0.0222
23356W        W36770   9.288  10.531  14.761  0.3151  0.2389 -0.4751
23357W        W36771   4.501  11.144  12.898  0.0697 -0.2617  0.2309
23358W        W36772  18.488   2.851  15.431 -0.1486  0.5375 -0.0150
23359W        W36773   3.403   9.290   2.776 -0.0768  0.0788  0.2676
23360W        W36774   5.151  11.527  15.282 -0.1950 -0.0666  0.2327
23361W        W36775   2.917   0.115   2.687 -0.0293  0.1982  0.0933
23362W        W36776   3.153   0.082   2.162 -0.0049 -0.0657  0.3863
23363W        W36777   3.252   2.286   0.671  0.1267 -0.1463  0.1911
23364W        W36778  10.858  10.311   5.968 -0.1182 -0.0326  0.0603
23365W        W36779  13.659   4.475   1.316 -0.1159 -0.3321 -0.0777
23366W        W36780   4.083  10.061  15.590  0.1048 -0.1091 -0.0467
23367W        W36781  14.715   7.526   0.002  0.2134  0.1780 -0.3032
23368W        W36782  11.802  16.617  14.773 -0.0237  0.0516  0.0880
23369W        W36783   4.776   9.799   1.544 -0.0806 -0.1206 -0.0698
23370W        W36784   9.205   5.250  16.057 -0.0683 -0.1269 -0.0737
23371W        W36785  14.211  12.559  12.964  0.0420  0.1498 -0.1760
23372W        W36786  17.117  16.033  12.153 -0.1847  0.0360 -0.1639
23373W        W36787   0.240   9.938  12.378 -0.0574 -0.0408 -0.4230
23374W        W36788   8.900  16.067   9.649 -0.0309 -0.0305 -0.0395
23375W        W36789  13.218   3.901   3.817 -0.0035  0.1206 -0.1050
23376W        W36790  17.705   0.026   3.997 -0.1136  0.1896  0.1844
23377W        W36791  16.867  12.962   4.694 -0.3671  0.2813 -0.1798
23378W        W36792  12.315   8.672  12.623 -0.0102  0.0699 -0.5318
23379W        W36793  16.926   0.104  13.267  0.3340 -0.0817 -0.4161
23380W        W36794   7.963  10.337   3.242  0.3055 -0.2223  0.1789
23381W        W36795   2.083   7.761  13.618 -0.1789  0.1494 -0.0245
23382W        W36796   9.294  10.018   0.635 -0.0986  0.2131  0.0566
23383W        W36797  16.939  13.345  14.999 -0.1024  0.0380 -0.1190
23384W        W36798   2.328   2.805   4.716 -0.3930 -0.0040  0.1712
23385W        W36799  12.602   0.274   4.884  0.0715 -0.1010 -0.0103
23386W        W36800   3.618   5.716   4.468  0.1045  0.0498 -0.2420
23387W        W36801  13.054   9.081   3.998  0.0173  0.3407 -0.0939
23388W        W36802   9.681  12.938   0.281 -0.1601  0.1748  0.0899
23389W        W36803   1.125  16.321   1.305  0.1075 -0.1628 -0.2156
23390W        W36804   6.490   5.836  12.603 -0.2230 -0.1315  0.0976
23391W        W36805   3.591  15.567  12.334 -0.1054  0.3113 -0.0652
23392W        W36806  16.704   8.613   2.743 -0.1123 -0.0477  0.0634
23393W        W36807   2.346   5.694  10.610  0.0776 -0.2353  0.2449
23394W        W36808   0.079  12.369  15.096 -0.1338  0.0970 -0.3246
23395W        W36809  18.316   9.342   6.075 -0.0631 -0.2201 -0.1396
23396W        W36810   8.468  17.360  11.449  0.1239  0.0969 -0.0298
23397W        W36811  10.522  16.626   1.340 -0.0439 -0.1350  0.0254
23398W        W36812   4.529  14.099   9.692  0.0740  0.0532 -0.0743
23399W        W36813   0.853  18.269   5.361 -0.1672  0.2704 -0.1764
23400W        W36814   4.507  12.473   2.820  0.1199 -0.2011 -0.0407
23401W        W36815   3.916  17.981   9.918  0.0903 -0.1054  0.1577
23402W        W36816   7.252   2.506  15.320 -0.0024  0.0789  0.0627
23403W        W36817  14.315   5.584   2.414 -0.0407  0.1581  0.1837
23404W        W36818   1.701   1.601   3.905 -0.0514  0.0546 -0.2501
23405W        W36819   9.258   7.043  11.397 -0.1180  0.0736  0.1427
23406W        W36820  10.489   2.249   3.252  0.0524 -0.3579 -0.2635
23407W        W36821   8.081   1.830  13.965  0.0972  0.0065  0.0873
23408W        W36822  14.052   9.809   1.420 -0.4129 -0.1913  0.2930
23409W        W36823   5.245  10.031   0.830  0.4820  0.0750 -0.1663
23410W        W36824  16.217   8.928  13.369  0.2563  0.0923  0.1954
23411W        W36825  15.124   1.081  13.265 -0.1874 -0.0086 -0.0024
23412W        W36826   3.125   2.979  10.410  0.1953  0.0123  0.2225
23413W        W36827  16.973   6.517   6.450  0.0408  0.1900 -0.2323
23414W        W36828  10.129   8.515   1.531 -0.0246  0.4228 -0.0914
23415W        W36829   0.937  18.388  13.928  0.1089 -0.1236 -0.0942
23416W        W36830   2.252  11.451  10.011  0.0688 -0.1938  0.1796
23417W        W36831   6.167  16.237   5.078 -0.2065  0.2333  0.0156
23418W        W36832   9.477   9.334  13.837  0.0364  0.0868  0.1283
23419W        W36833  14.354   7.263   0.921  0.2690  0.1313 -0.0599
23420W        W36834  16.588   9.045   0.770 -0.0959  0.6007 -0.0224
23421W        W36835   8.768   1.771   2.568 -0.1776 -0.1993  0.1117
23422W        W36836  15.348   7.142  14.389 -0.1258  0.0030  0.1708
23423W        W36837  11.171   3.591  16.116 -0.2692 -0.5073  0.2085
23424W        W36838  10.307  16.229  14.510 -0.0567  0.0324 -0.1303
23425W        W36839   5.866  10.638  15.962  0.0332  0.3543  0.0098
23426W        W36840  10.896  16.233   5.417  0.0888  0.1394 -0.1716
23427W        W36841   9.219  11.056   2.147 -0.0613  0.3158  0.0100
23428W        W36842   8.121  11.898  15.232  0.0919  0.2916 -0.1813
23429W        W36843  16.726  12.572   3.943 -0.1976  0.1894 -0.0176
23430W        W36844  13.986   2.003   5.714  0.1270  0.1108 -0.0113
23431W        W36845   3.744   8.067  16.034  0.0408 -0.0399 -0.3833
23432W        W36846   3.310   5.090   6.031  0.3072 -0.3239  0.0119
23433W        W36847  16.812   6.299  14.359 -0.2734  0.1898  0.2258
23434W        W36848   0.531   0.791   4.077  0.0823 -0.1152 -0.2134
23435W        W36849  15.716  17.084   4.027  0.1993 -0.2347 -0.0066
23436W        W36850   6.673  13.940   5.359 -0.0078 -0.1402 -0.0867
23437W        W36851  16.060   7.085  10.797 -0.2973 -0.1991 -0.4203
23438W        W36852   2.817   9.677  15.850 -0.3841 -0.0573  0.0451
23439W        W36853   1.784   4.498   5.033 -0.0680 -0.4389 -0.0221
23440W        W36854   3.142   4.160  15.136 -0.0203  0.2345  0.0390
23441W        W36855  13.407   6.500   4.404 -0.3623 -0.0041 -0.1707
23442W        W36856  12.835   6.767   5.585 -0.1730  0.0629  0.0190
23443W        W36857  13.767   2.387   1.781  0.1083  0.1382 -0.0098
23444W        W36858   8.636   9.416  13.555  0.0669 -0.2762 -0.2162
23445W        W36859   2.344   1.941  11.486 -0.2354 -0.1261  0.1162
23446W        W36860  13.657  18.173   1.958 -0.0701 -0.3190 -0.2286
23447W        W36861   7.296   8.307   5.805  0.2293  0.2094  0.0070
23448W        W36862   6.350   8.077  11.644 -0.0365 -0.2786 -0.2822
23449W        W36863   9.389  16.691   4.634  0.1393  0.1006  0.3317
23450W        W36864   1.044   7.668   4.930 -0.2597  0.0802  0.1746
23451W        W36865   7.025  11.843   3.914 -0.1830 -0.2698  0.3117
23452W        W36866  13.661  12.596  15.729 -0.2442  0.0136 -0.0138
23453W        W36867   8.924  15.293  14.665 -0.1999 -0.1711 -0.1190
23454W        W36868  15.981   2.976   0.066  0.2461  0.1515 -0.1877
23455W        W36869   4.537   9.232  15.133  0.0349 -0.2220  0.2232
23456W        W36870  15.236   4.123  14.935 -0.0267 -0.0033 -0.1081
23457W        W36871   0.984  12.497  10.872 -0.0466 -0.2966 -0.0415
23458W        W36872  16.938   9.286  10.685  0.1105  0.1201  0.1231
23459W        W36873  14.904   3.380   2.649  0.4480 -0.1298  0.2002
23460W        W36874  14.057   0.062   1.704 -0.0158 -0.0682 -0.1917
23461W        W36875   8.600   5.196   6.360 -0.0830 -0.1703  0.2573
23462W        W36876   2.411   4.997   0.611  0.0497 -0.0287  0.0720
23463W        W36877   1.590   2.253  16.209 -0.2433  0.2160  0.1388
23464W        W36878   5.539   1.211   1.739  0.0433 -0.2851  0.0537
23465W        W36879  10.043  12.283  11.486  0.0303 -0.0949  0.0458
23466W        W36880   9.505  16.772  15.868 -0.1560  0.2009 -0.0079
23467W        W36881  14.746   8.773  11.172 -0.0839  0.1875  0.0714
23468W        W36882   8.957  18.111  15.100  0.2011 -0.2179  0.1009
23469W        W36883   1.873   0.454   3.913  0.0978  0.0021  0.0486
23470W        W36884   9.178   5.096   0.331 -0.1485 -0.0406  0.4207
23471W        W36885  18.244  15.906  10.599  0.0291  0.2074 -0.1455
23472W        W36886  15.285   4.473  12.206  0.2510  0.1255  0.2753
23473W        W36887   1.858   6.959  14.060 -0.3002 -0.0796  0.0655
23474W        W36888   1.748  13.486  13.889  0.1627  0.5305  0.2589
23475W        W36889  11.985   3.368   3.766 -0.0969 -0.0427 -0.0628
23476W        W36890   3.557   1.002  15.690  0.1241  0.0801  0.0759
23477W        W36891   8.225  16.291   5.567 -0.0795 -0.0089 -0.0352
23478W        W36892   4.757   7.388   2.783  0.0819 -0.1484  0.1635
23479W        W36893  13.806   6.995   2.177 -0.0172 -0.1718  0.1780
23480W        W36894  13.786  15.673   5.762 -0.3123 -0.1477 -0.1346
23481W        W36895   3.689  17.531  11.780 -0.0831  0.0827  0.1189
23482W        W36896   2.932   7.271  13.202 -0.2946 -0.0711  0.2673
23483W        W36897   1.096  13.241  14.880 -0.1191 -0.1841 -0.2782
23484W        W36898   2.240  15.095   2.232 -0.0179 -0.0696 -0.4067
23485W        W36899   8.449  14.323  15.445 -0.2135  0.0715  0.0543
23486W        W36900   4.920  12.230   2.946  0.1482  0.0288  0.1860
23487W        W36901   3.175   3.979  14.555  0.0000 -0.2325 -0.0550
23488W        W36902   3.147  16.467   2.511  0.2421 -0.1221  0.0497
23489W        W36903  15.742  12.543   0.973  0.0857 -0.2135 -0.0612
23490W        W36904   8.175   5.023  10.558  0.0837 -0.0032 -0.0122
23491W        W36905  15.996  11.273   0.317  0.1391 -0.0384  0.0746
23492W        W36906   9.357   3.132   0.453 -0.1226  0.2245  0.1008
23493W        W36907   9.132  11.241  12.138  0.1523  0.1468 -0.0650
23494W        W36908  14.926   1.675  12.319 -0.1218 -0.1152 -0.1856
23495W        W36909   4.987   8.870   2.822  0.1301  0.1645  0.0120
23496W        W36910   7.581  10.700  15.948  0.1623 -0.1014 -0.1879
23497W        W36911   9.636   7.341   5.333  0.3845  0.0313 -0.2602
23498W        W36912  15.735  17.375  10.935  0.0479  0.1628  0.0574
23499W        W36913   5.343  14.787   9.607  0.1293 -0.1173 -0.2317
23500W        W36914  17.705   3.186   3.832  0.0717 -0.1403 -0.0985
23501W        W36915  18.431  12.311   6.369 -0.0457  0.2623 -0.0572
23502W        W36916   5.027  14.450   5.586 -0.0119  0.1734 -0.0635
23503W        W36917  15.904  13.918   4.612 -0.0314  0.2300 -0.2029
23504W        W36918  16.393   4.302  14.294 -0.0182  0.1996 -0.3098
23505W        W36919  18.167  10.174  12.552  0.0845 -0.0920 -0.0182
23506W        W36920  11.433  14.410  13.331  0.0482 -0.1906 -0.4985
23507W        W36921   2.934  17.197  12.580  0.1163 -0.0734  0.1999
23508W        W36922  18.254   0.449  15.298  0.0956 -0.1121 -0.0242
23509W        W36923  12.843   7.402  11.762  0.1785  0.0132 -0.0804
23510W        W36924  15.189   1.227  12.295  0.0668  0.0562 -0.2021
23511W        W36925   5.495  16.059   1.258 -0.0669 -0.3062  0.1068
23512W        W36926   8.854   4.049   2.649 -0.1201 -0.1123  0.1341
23513W        W36927  14.885  12.832  13.014 -0.2029  0.0541 -0.1243
23514W        W36928  17.046  13.090   1.194  0.2269 -0.1909 -0.1776
23515W        W36929   8.660  15.201   3.020  0.1987 -0.0358 -0.1028
23516W        W36930  11.834  14.607  10.656  0.1599  0.0162  0.2452
23517W        W36931   9.247  17.101  13.548 -0.2743 -0.0333 -0.0444
23518W        W36932  16.613   3.096   2.985 -0.1781  0.1827 -0.0024
23519W        W36933  11.113  14.514   3.944  0.0856  0.2732 -0.2398
23520W        W36934   1.946  13.104   3.291 -0.0471 -0.1294 -0.3716
23521W        W36935  15.029   6.374  14.392 -0.0622  0.1370 -0.4467
23522W        W36936   2.936   8.054  15.081  0.0343  0.0014 -0.2517
23523W        W36937   7.920  10.547  14.529  0.3548  0.0628  0.0607
23524W        W36938   9.997   3.670  13.043  0.3477  0.0005  0.2604
23525W        W36939  18.018  16.452   5.514 -0.0287 -0.0772  0.3787
23526W        W36940   4.070  17.809  11.498  0.0446 -0.0065  0.4183
23527W        W36941  16.120   7.869  15.703 -0.0916 -0.0747  0.2763
23528W        W36942  17.487   3.363   2.025  0.0861  0.1950  0.5033
23529W        W36943   4.871   9.206   2.364 -0.3103 -0.2447  0.1324
23530W        W36944   6.228  18.261   0.443 -0.0221 -0.0419  0.1616
23531W        W36945  14.592  14.651   4.732  0.0562 -0.0530  0.2897
23532W        W36946  15.820   5.445   5.467  0.0083  0.2353 -0.0580
23533W        W36947   2.218   2.045   2.113 -0.0667 -0.2488 -0.0252
23534W        W36948  15.732  16.764  13.901  0.1154  0.0144  0.0486
23535W        W36949   7.978  13.280  11.898  0.0348  0.0116  0.2502
23536W        W36950   7.086   0.558   2.320  0.1853  0.0083 -0.1651
23537W        W36951   1.001   8.270   0.760 -0.2220 -0.3144 -0.2566
23538W        W36952  18.041   5.414  11.160  0.0046  0.2239 -0.0987
23539W        W36953  14.847  16.213   1.695  0.0647 -0.0092 -0.1836
23540W        W36954   9.345   3.384   5.745 -0.1072  0.3536 -0.1641
23541W        W36955  17.436   7.741   0.475 -0.0043 -0.0920  0.2895
23542W        W36956   9.412   9.151  12.066 -0.2444 -0.1438  0.1970
23543W        W36957   0.992   4.804  13.352 -0.0681 -0.1446  0.3011
23544W        W36958  10.634   1.146  15.017 -0.1833  0.1368  0.1191
23545W        W36959  13.451   6.302  12.420 -0.0496 -0.0669  0.0362
23546W        W36960  10.429  14.748  14.573 -0.0291 -0.1876  0.1148
23547W        W36961  15.357   2.421  12.921 -0.1547  0.0551 -0.5305
23548W        W36962  12.365   8.126   0.029 -0.0730 -0.2326  0.1803
23549W        W36963  11.225  18.449  13.617 -0.0095 -0.0078  0.0314
23550W        W36964   6.899   8.880  13.419  0.1539 -0.5270 -0.0859
23551W        W36965  14.494  17.782   2.247  0.0615 -0.0086 -0.3048
23552W        W36966   4.214   3.688   5.315 -0.3357  0.0599 -0.1369
23553W        W36967  14.516  16.517   1.194 -0.0739  0.0652  0.0713
23554W        W36968   7.038   4.139  14.748 -0.3728  0.1656  0.0123
23555W        W36969   1.990  13.600   3.345 -0.0048 -0.3907 -0.0027
23556W        W36970   1.342  18.188   6.179 -0.2769 -0.0607  0.1468
23557W        W36971  17.159   2.967   3.558  0.1475  0.2985 -0.0339
23558W        W36972  15.883  17.952  12.587 -0.1313 -0.2949  0.1260
23559W        W36973  13.986   6.335   0.804  0.2246 -0.2164 -0.1737
23560W        W36974   1.576  16.150   5.120 -0.0227  0.1059 -0.1327
23561W        W36975  10.511   9.694   4.830 -0.1277 -0.0342 -0.0002
23562W        W36976   1.475  16.494  13.454  0.0780  0.1054  0.1500
23563W        W36977   4.155   7.922   1.052  0.0729 -0.3396  0.0447
23564W        W36978   9.142   3.518  15.979  0.0582 -0.2589 -0.0396
23565W        W36979  11.246  14.482   9.689  0.0293 -0.0944 -0.1870
23566W        W36980  11.769  12.893  13.219 -0.2088 -0.1745 -0.1905
23567W        W36981  11.755   9.504  11.658  0.1328  0.3258 -0.2082
23568W        W36982  14.216   8.723  15.766 -0.1909  0.2170  0.3172
23569W        W36983   6.017  12.730   4.017 -0.0078 -0.1183  0.1675
23570W        W36984   5.192   7.760  14.468 -0.4221 -0.2166  0.0732
23571W        W36985  12.178  14.367   0.452  0.2199  0.1448  0.0229
23572W        W36986   1.982  10.764  12.666  0.2966  0.0056 -0.1212
23573W        W36987  11.235   2.294   0.011 -0.1887 -0.0771 -0.0254
23574W        W36988   7.014  16.906  11.805  0.1466  0.0286 -0.3070
23575W        W36989   6.143  15.032  15.561  0.0314  0.1743  0.0009
23576W        W36990   8.986  17.358  10.600  0.0307  0.3162  0.0598
23577W        W36991  14.963   5.841  14.243 -0.1170 -0.0472 -0.0540
23578W        W36992  13.615   3.584   3.095 -0.1291  0.0534 -0.2944
23579W        W36993  18.252  15.795   0.799  0.0067  0.2257 -0.0675
23580W        W36994  16.618   0.536   1.580 -0.2926 -0.1998  0.0012
23581W        W36995  14.243   2.541   2.739 -0.0248  0.3369  0.3844
23582W        W36996   4.655   6.443   2.989 -0.0735  0.3077  0.0211
23583W        W36997  16.507   1.011   3.908  0.1405  0.1499 -0.3648
23584W        W36998   7.183   8.215   4.699 -0.0571  0.1580 -0.3676
23585W        W36999   8.278   0.833   4.009  0.1099  0.2972 -0.0252
23586W        W37000   8.495  10.300  15.719 -0.1023  0.2910 -0.1415
23587W        W37001  17.172  13.119  13.162  0.3751  0.4125  0.1226
23588W        W37002  11.963   0.995   1.156  0.1839  0.0046 -0.3936
23589W        W37003  17.589  13.737   3.723 -0.2383  0.3075 -0.1684
23590W        W37004  16.923   9.929  14.879 -0.0417  0.1189 -0.1463
23591W        W37005   8.754  17.047  11.101 -0.1451 -0.1936  0.3852
23592W        W37006   2.098   1.924   5.886  0.2746  0.0782 -0.2324
23593W        W37007  17.916  10.103   2.645 -0.2156  0.3131 -0.1259
23594W        W37008  17.662   1.287  13.961 -0.1661  0.1635  0.2740
23595W        W37009  10.090  13.436   3.099  0.0127  0.0339  0.0097
23596W        W37010   0.687  12.059  11.725 -0.3223  0.3903  0.3023
23597W        W37011  17.288  17.751  11.372 -0.0599  0.2742 -0.0602
23598W        W37012   1.137  11.453   5.129 -0.0250  0.0303 -0.2642
23599W        W37013  14.359  10.315   5.270 -0.2681 -0.1873  0.0644
23600W        W37014   6.085   0.554  12.799 -0.2174  0.1607  0.4362
23601W        W37015   1.190  10.247   4.884  0.0109 -0.0066  0.0504
23602W        W37016  15.449   9.730  10.601 -0.1131  0.0882  0.2522
23603W        W37017  13.159  15.517   2.301 -0.1442 -0.0725 -0.1944
23604W        W37018   3.458  17.360  10.893  0.1447 -0.0549 -0.1506
23605W        W37019   8.729   1.785  11.217  0.0914  0.1905  0.1573
23606W        W37020  15.871   3.340  14.743 -0.0835  0.0262  0.1562
23607W        W37021  10.936   9.695  10.203  0.3150  0.3860 -0.1140
23608W        W37022  12.262  16.500  14.558 -0.0587  0.0645 -0.2618
23609W        W37023   0.720   5.227   3.438 -0.2949 -0.2053 -0.3741
23610W        W37024  13.514   6.703   1.881 -0.2236 -0.0123 -0.2155
23611W        W37025   9.546   4.490   3.491  0.2323 -0.2957 -0.2813
23612W        W37026   2.472   0.327  15.112  0.0042  0.0200 -0.1299
23613W        W37027   8.850   4.655  10.955 -0.1426 -0.2197  0.0060
23614W        W37028  12.948   8.496   2.832  0.0640 -0.0908 -0.0597
23615W        W37029   0.754   7.357   5.719 -0.0623  0.0507  0.1793
23616W        W37030   8.563   4.881   3.949 -0.0762 -0.2405  0.1134
23617W        W37031   2.035  11.690  14.211  0.0804 -0.2094  0.2183
23618W        W37032   3.476   0.418  13.865  0.2549 -0.1164  0.0220
23619W        W37033  11.518  10.614  15.039  0.1328 -0.2274 -0.2113
23620W        W37034  13.784  13.256   2.251 -0.1091  0.1090 -0.3731
23621W        W37035  18.076  15.698  14.703 -0.1518 -0.1975  0.2233
23622W        W37036   1.770   7.632   0.834  0.0625  0.0729  0.1759
23623W        W37037  12.466  10.179   1.082 -0.3900  0.3259 -0.2078
23624W        W37038   4.823   7.726  10.453 -0.2010 -0.1574 -0.3371
23625W        W37039  13.624  14.193   3.764 -0.0632  0.1772  0.2137
23626W        W37040  12.498  12.984   2.988  0.0310  0.0100 -0.0377
23627W        W37041   1.409   8.904   3.885  0.1153  0.2131 -0.3863
23628W        W37042  16.618   2.047   0.400  0.1602 -0.0698  0.3558
23629W        W37043   4.684   7.949   5.002  0.2896 -0.0749 -0.2193
23630W        W37044   6.658   0.228  11.272 -0.3069  0.0659 -0.0570
23631W        W37045   0.834  13.763  11.272  0.1833 -0.0399 -0.0550
23632W        W37046  16.383  13.058  14.772 -0.2629 -0.2271 -0.2040
23633W        W37047   9.245   6.980   2.555  0.0074  0.1695  0.2337
23634W        W37048  17.130  18.502  12.549  0.2785 -0.2593  0.1775
23635W        W37049   7.448  18.221   4.695  0.0440  0.0114 -0.3956
23636W        W37050  11.498  15.060  10.518  0.2244  0.1437  0.0060
23637W        W37051   7.197  11.977  11.602 -0.3347 -0.2488  0.0078
23638W        W37052  15.858   0.463  14.451  0.1842 -0.1686  0.0554
23639W        W37053  16.041   8.980   0.729 -0.2767  0.1707  0.0872
23640W        W37054  15.218   4.632   1.675 -0.1589  0.0848  0.1834
23641W        W37055  17.216   2.457   3.538  0.0681 -0.0665 -0.0373
23642W        W37056  13.285  15.042   2.056  0.1765 -0.2010  0.4728
23643W        W37057  18.011  11.010  10.262 -0.3542 -0.1035 -0.2178
23644W        W37058   5.325   4.620   2.645  0.1917 -0.0988  0.2674
23645W        W37059   8.212   1.977  11.235 -0.1473  0.1357 -0.0858
23646W        W37060  12.073   6.609   1.644  0.1610  0.1470  0.1539
23647W        W37061   9.782  13.960  12.859 -0.2615  0.0588  0.0251
23648W        W37062   0.502   2.391  15.058  0.1432  0.2280  0.0910
23649W        W37063   7.014   8.162   1.102  0.1531 -0.2621  0.3481
23650W        W37064   5.409  16.145  12.631 -0.0492 -0.0631  0.2309
23651W        W37065  10.980  15.922   3.808 -0.1057 -0.0335 -0.0056
23652W        W37066   2.110   9.663   0.366 -0.0069  0.0235 -0.0523
23653W        W37067   0.756   7.244   5.189 -0.0375  0.2669  0.1035
23654W        W37068   0.781  17.365   2.647  0.3258 -0.2128  0.4130
23655W        W37069  14.032  14.590   5.443  0.1533 -0.0610  0.2938
23656W        W37070   5.355   5.737  15.729 -0.0141  0.1993 -0.2758
23657W        W37071   2.350  13.448  13.365  0.0722  0.1024 -0.1360
23658W        W37072   7.823  13.894  10.466  0.1110 -0.2336 -0.2209
23659W        W37073  18.150  11.578   5.683 -0.1627  0.1788 -0.0919
23660W        W37074   6.867  13.773   1.946 -0.0297  0.3733 -0.1580
23661W        W37075   0.845   0.625  15.618 -0.0769 -0.3004  0.2878
23662W        W37076   9.493   8.502  10.825 -0.2358 -0.2126 -0.2481
23663W        W37077   2.769  14.340  16.021  0.1759 -0.1691 -0.0383
23664W        W37078   6.833   3.018   2.618  0.2853 -0.0671  0.2299
23665W        W37079   8.674   6.359   4.283  0.2968 -0.1731 -0.5174
23666W        W37080   4.073   8.220   3.618  0.0608 -0.3186 -0.1513
23667W        W37081   0.102  11.863  12.570  0.1954 -0.2032 -0.0696
23668W        W37082  13.155   7.881   3.340  0.1558 -0.3207  0.1910
23669W        W37083  14.847   3.216  10.703 -0.1804  0.1084 -0.1287
23670W        W37084  13.629  18.502  14.745  0.1494  0.1495  0.0539
23671W        W37085  10.443   6.335  15.118 -0.3506  0.2654  0.1075
23672W        W37086   3.843  15.669  13.222 -0.1289 -0.0379 -0.0861
23673W        W37087   1.918   6.133   4.187 -0.1365  0.3924 -0.3334
23674W        W37088  11.860   4.348   9.916 -0.3086 -0.0792  0.1745
23675W        W37089  17.646  10.973  11.630 -0.3326  0.0495  0.2822
23676W        W37090  12.292  18.015   1.989  0.2242 -0.0761  0.2871
23677W        W37091   5.501  10.009  12.051 -0.0006 -0.2832  0.2966
23678W        W37092  12.108   4.154  11.034 -0.4300 -0.1179  0.1589
23679W        W37093  14.972   5.207  12.704 -0.0969 -0.3210 -0.2595
23680W        W37094   4.034   3.006  16.164 -0.1775  0.0856  0.1113
23681W        W37095   6.132   5.451   3.432 -0.3571 -0.2379 -0.0483
23682W        W37096   3.303   3.739  13.214  0.4225 -0.1016 -0.1461
23683W        W37097   4.479  18.029   0.465 -0.1394  0.2157  0.2467
23684W        W37098  15.136  13.863  13.177 -0.3021 -0.1119 -0.1088
23685W        W37099   3.926   4.496  11.071 -0.1335  0.2633  0.1169
23686W        W37100  12.370   5.669   3.574 -0.0727  0.0998  0.1378
23687W        W37101  17.989   4.313  14.731 -0.1385 -0.2653  0.0962
23688W        W37102  13.872  17.659  14.598 -0.0539 -0.0025 -0.0717
23689W        W37103   6.656  15.770  10.988 -0.1549  0.3508 -0.0074
23690W        W37104  15.071   3.666  11.990  0.1050  0.1390  0.0492
23691W        W37105  12.711  12.668   6.241 -0.2369 -0.0093  0.1775
23692W        W37106  11.790  18.164   1.899 -0.1707 -0.0721 -0.2840
23693W        W37107   8.547  13.887  15.651 -0.1897 -0.1877  0.0790
23694W        W37108   1.844  12.623  13.764  0.1618 -0.0552  0.0174
23695W        W37109  10.464   0.459  15.655 -0.0962  0.0321  0.0083
23696W        W37110   9.168  12.041   2.180  0.1729  0.2141 -0.0119
23697W        W37111   6.723   1.239   3.699  0.0561 -0.2458 -0.1199
23698W        W37112  15.961   6.890   2.546  0.2940  0.1162  0.1435
23699W        W37113  15.863  14.101   3.273  0.1316  0.3456 -0.2995
23700W        W37114   6.886  15.337   2.826 -0.0445  0.2842  0.2403
23701W        W37115   8.610   7.069  15.004  0.2422  0.0406 -0.1627
23702W        W37116   9.072   1.168   5.094 -0.1646 -0.1798  0.2260
23703W        W37117  18.379  16.044   5.560  0.1124 -0.1233  0.1690
23704W        W37118  12.896   7.595   1.021 -0.1268 -0.4691 -0.2265
23705W        W37119  18.200   7.683   4.757  0.4930 -0.1599  0.1497
23706W        W37120  18.197   9.541   3.054  0.1871 -0.0293  0.0480
23707W        W37121   0.463   4.054   0.613 -0.2461 -0.0679  0.0818
23708W        W37122   8.674   0.271   9.928 -0.0842  0.0393 -0.2408
23709W        W37123  15.167   1.661   5.167  0.3150  0.0204 -0.0151
23710W        W37124  12.989   6.852   3.194 -0.3572 -0.0849  0.1400
23711W        W37125   0.935   9.070   4.116 -0.1442 -0.2124  0.2507
23712W        W37126   7.760   2.020   5.356 -0.1108 -0.0535 -0.0756
23713W        W37127   5.770  18.086   2.159 -0.0112 -0.1007  0.1758
23714W        W37128   3.009   9.528  11.643 -0.1083  0.0662  0.1570
23715W        W37129   7.508   6.856   0.652  0.0372 -0.2271  0.2585
23716W        W37130  18.224  14.228  16.259  0.2801  0.1940  0.1787
23717W        W37131  18.329   4.310  10.741  0.2246  0.1419 -0.0219
23718W        W37132   0.926   8.627  10.226  0.0762 -0.1790  0.0570
23719W        W37133  14.509   2.598   3.270 -0.3084  0.1040  0.0557
23720W        W37134   0.785  11.704  14.923 -0.1881 -0.0748  0.1713
23721W        W37135  13.182   7.735  14.855 -0.1933 -0.1856 -0.2179
23722W        W37136  16.520   9.990  11.002  0.0403 -0.2982  0.1529
23723W        W37137  14.816  14.670  11.078 -0.3571  0.3626 -0.2178
23724W        W37138   4.285   8.505  15.348  0.0921 -0.0466 -0.0330
23725W        W37139  11.050  10.674   2.287 -0.2119 -0.1346 -0.1657
23726W        W37140   7.382  12.593   2.192  0.1076 -0.1781  0.0259
23727W        W37141  14.972  14.065  13.953  0.0632 -0.0902  0.0562
23728W        W37142   2.058  12.094   1.417 -0.2887 -0.0603 -0.1494
23729W        W37143   9.881   5.245  12.013  0.1345 -0.0957 -0.0945
23730W        W37144   2.721  15.601  11.273 -0.0829 -0.1649 -0.1944
23731W        W37145   3.235  11.564  15.541  0.0682  0.1370  0.0131
23732W        W37146  17.103  12.441   2.077  0.0639  0.0999  0.1090
23733W        W37147  16.781   3.425  12.408  0.1016 -0.0468  0.2300
23734W        W37148  13.513  15.930   5.239 -0.3133  0.0415  0.2511
23735W        W37149  17.768  13.751   2.967 -0.0810 -0.2210 -0.1206
23736W        W37150   5.035   3.216  15.926  0.0977  0.0660  0.0325
23737W        W37151  17.959  15.112   1.946  0.1132 -0.3853 -0.0981
23738W        W37152  12.969   9.319  11.407  0.0384  0.1325  0.0363
23739W        W37153   0.909   3.163  11.247  0.1664 -0.5417 -0.1598
23740W        W37154   4.247  11.086  13.341  0.0346 -0.0799  0.1823
23741W        W37155   9.443   8.134  14.581  0.0024  0.1929  0.1991
23742W        W37156  14.105   5.795  11.907 -0.1696 -0.2446 -0.0455
23743W        W37157   4.770  12.858   5.106 -0.2800 -0.1024 -0.0175
23744W        W37158  18.366   0.770   1.607 -0.2049  0.0961 -0.1049
23745W        W37159   5.142  11.081  14.325  0.1928 -0.0504  0.0236
23746W        W37160  18.158  17.525  12.784  0.1191 -0.1132  0.3468
23747W        W37161   7.454  15.577  15.965  0.2152  0.0062  0.0288
23748W        W37162  18.022   1.226   2.318  0.1262  0.1818 -0.0750
23749W        W37163  16.463   5.889   0.466 -0.0756 -0.0003  0.3208
23750W        W37164  12.970   4.369   3.606  0.0819 -0.1935  0.1524
23751W        W37165   1.956  16.529  14.302 -0.0954  0.1968 -0.0913
23752W        W37166  12.376  15.399   1.112  0.0770  0.1600 -0.1432
23753W        W37167   3.522  15.229  14.925  0.1903  0.0185 -0.1689
23754W        W37168  14.499   5.034   3.891  0.1811  0.1320  0.2101
23755W        W37169  15.129  10.236   0.532  0.0435  0.1709 -0.1606
23756W        W37170   3.198  14.406  10.452 -0.0532 -0.0432 -0.2787
23757W        W37171   5.621   8.385  15.807  0.0800 -0.1345  0.0886
23758W        W37172   7.459  11.484  12.919  0.3075  0.2532 -0.0143
23759W        W37173   4.708   9.112   4.235 -0.0002  0.2001  0.0350
23760W        W37174   1.764   2.063  13.752  0.0485  0.2005  0.1576
23761W        W37175  13.622   8.765  11.124  0.0365 -0.0981  0.1228
23762W        W37176   9.425   4.522   6.690 -0.1017 -0.0600 -0.0123
23763W        W37177   9.665   2.618  13.837  0.0059  0.0266 -0.1239
23764W        W37178   3.212  15.624  11.360 -0.0235 -0.0225  0.1275
23765W        W37179  11.785   1.121  10.166 -0.1772 -0.0125 -0.0731
23766W        W37180   6.206  10.894   6.318  0.1289 -0.0440 -0.1256
23767W        W37181  13.516  16.403   0.664 -0.4283 -0.0406  0.1581
23768W        W37182  15.818  17.337  16.012  0.0943 -0.1936 -0.0287
23769W        W37183  15.189   4.630   3.678 -0.0689 -0.0988 -0.3861
23770W        W37184   7.281  10.901   5.787  0.2741 -0.1848 -0.0908
23771W        W37185   6.886   6.795  11.937 -0.1948 -0.0323 -0.2288
23772W        W37186  17.950   1.009   9.804 -0.1344  0.1016  0.0488
23773W        W37187   4.403  14.148   2.140  0.0485 -0.0141 -0.3305
23774W        W37188  14.495   1.933  12.217  0.0913  0.3200  0.1638
23775W        W37189   6.392   6.577   4.766  0.0814  0.0706  0.3835
23776W        W37190  16.799   6.139   0.121  0.0555 -0.0255  0.3381
23777W        W37191   4.415  16.686  11.007  0.2227 -0.2641 -0.0491
23778W        W37192   0.502  18.480  12.046  0.2567  0.0970 -0.0879
23779W        W37193  10.793   2.125   0.206 -0.0466  0.3445 -0.2208
23780W        W37194  14.194  18.451   5.839  0.1672  0.2290 -0.1457
23781W        W37195  16.049   9.910  15.337  0.2537  0.1449 -0.1489
23782W        W37196  11.595  17.511   1.661 -0.0595 -0.0477 -0.1854
23783W        W37197   9.422  11.762  11.411 -0.1027  0.1642  0.0058
23784W        W37198   8.877   3.443   0.417  0.0930  0.2251  0.0158
23785W        W37199   1.247  12.369   2.024 -0.0191  0.1299 -0.0235
23786W        W37200  11.973   1.210  13.559  0.0034 -0.1190 -0.1595
23787W        W37201  17.346  15.009   4.198  0.0063  0.1407 -0.0517
23788W        W37202   4.363  15.926  13.541  0.0126  0.0781  0.0015
23789W        W37203  12.053  17.433   0.178  0.0630 -0.0581  0.3500
23790W        W37204   2.967   9.972   2.863 -0.0140  0.0693 -0.1349
23791W        W37205   9.814  13.776  10.817 -0.0660 -0.1527 -0.2465
23792W        W37206   9.574   7.339  12.695  0.2405  0.2543  0.1618
23793W        W37207   9.111   0.878   3.276 -0.0407 -0.0965 -0.3589
23794W        W37208   4.946   9.651  15.371 -0.1588 -0.0923 -0.0135
23795W        W37209   2.396   2.257  15.867 -0.3592  0.0484  0.4026
23796W        W37210   9.216  17.152   2.195 -0.0628  0.1367  0.2814
23797W        W37211   1.346   4.621   1.510  0.1024 -0.0290 -0.1297
23798W        W37212  13.626   0.960   3.628  0.0893  0.3489  0.2086
23799W        W37213  11.051   5.369  14.769  0.1530  0.0707 -0.1183
23800W        W37214  13.183   8.656   2.354  0.1348  0.0002  0.0404
23801W        W37215   0.934   1.197  12.644 -0.1036 -0.1098 -0.1606
23802W        W37216  16.609  16.862  11.119 -0.0441 -0.0739  0.0766
23803W        W37217   3.630  17.865  10.898 -0.0093 -0.2246 -0.2505
23804W        W37218  16.566  13.246   0.253  0.3304 -0.1179  0.1041
23805W        W37219   0.886  17.665   4.092  0.0296  0.1197  0.0033
23806W        W37220  11.814   5.715   1.084 -0.2525 -0.2099 -0.0287
23807W        W37221   2.035   6.672   3.898  0.0200 -0.0627 -0.0270
23808W        W37222  12.784  13.067   5.074  0.1062  0.1918 -0.0897
23809W        W37223   5.487   8.629  14.077  0.2216  0.3170 -0.2727
23810W        W37224  11.513   6.070   5.525 -0.0245 -0.1001  0.0611
23811W        W37225  15.600  13.839  14.550 -0.1611  0.2546  0.1896
23812W        W37226  10.767  10.212  11.027  0.0125  0.3014 -0.0213
23813W        W37227   2.968  10.698   1.147 -0.0985  0.0469 -0.2965
23814W        W37228  10.795   7.150   1.788 -0.0645 -0.0815 -0.0308
23815W        W37229   1.494  17.863   3.213  0.1438  0.1125  0.2810
23816W        W37230   6.201  10.673  15.269  0.0528 -0.0927  0.6404
23817W        W37231  18.345  13.194  15.727 -0.1223  0.0648  0.0206
23818W        W37232   7.711   0.432  12.716  0.0661  0.0015 -0.1149
23819W        W37233  11.729   6.031  16.143 -0.1172 -0.0865  0.0559
23820W        W37234  15.182   4.986   5.217 -0.0683 -0.0125  0.2636
23821W        W37235   4.632  16.249   5.485 -0.2140 -0.0464  0.3075
23822W        W37236   2.688   9.844   4.332 -0.5438 -0.3850  0.3704
23823W        W37237  13.112   4.450   2.730  0.0479  0.0471  0.1433
23824W        W37238  16.633   0.959  13.351  0.0213  0.3167 -0.2742
23825W        W37239  15.622   8.660  12.086  0.0593 -0.3420 -0.0321
23826W        W37240   6.379   8.404  12.393  0.0387  0.1184  0.1903
23827W        W37241  17.139   9.707   0.127  0.0953 -0.1569 -0.2140
23828W        W37242   4.229  12.600  14.008 -0.0090  0.4262  0.1762
23829W        W37243   3.091   2.744   1.429  0.1418 -0.1196 -0.0444
23830W        W37244  14.454   3.191   5.664  0.2075  0.3582  0.0482
23831W        W37245   4.355  17.341  13.227  0.0839 -0.0737  0.1276
23832W        W37246  16.068   5.140   3.875 -0.2195 -0.0608  0.0971
23833W        W37247  12.829   5.989  11.483  0.2641 -0.1464  0.2115
23834W        W37248   7.802  10.288  14.996 -0.0468 -0.2679  0.2815
23835W        W37249   3.932   5.094  14.354 -0.1192  0.1099 -0.0385
23836W        W37250   8.569   3.975   5.859 -0.1043  0.0385 -0.1020
23837W        W37251   8.705   0.174  13.198 -0.1297  0.0272  0.2671
23838W        W37252  16.210  12.394  12.451  0.0319  0.0733  0.2073
23839W        W37253   8.987  16.597  12.796 -0.0145  0.0327  0.0009
23840W        W37254   2.839   5.465   5.614  0.0438  0.4404 -0.2245
23841W        W37255  12.572   0.692  15.911 -0.2699  0.0341  0.1295
23842W        W37256   0.201   3.240  14.325  0.1917 -0.2508  0.0336
23843W        W37257  14.997   3.086   0.624  0.3081 -0.0407 -0.1428
23844W        W37258  13.341  13.860  15.974 -0.0706 -0.0680  0.0006
23845W        W37259   8.844  18.311   4.487  0.1359  0.0903  0.3415
23846W        W37260   2.423  10.765   4.402 -0.2679  0.0042 -0.0842
23847W        W37261  18.080  15.480  11.608 -0.2492  0.0567 -0.2918
23848W        W37262   4.360  12.913  12.026 -0.0612  0.1519  0.0102
23849W        W37263   8.322   0.707   5.575  0.0510 -0.0030  0.1662
23850W        W37264   8.456  10.386  12.080 -0.2619  0.1385 -0.0294
23851W        W37265  13.729  12.206   0.853 -0.1259  0.6159 -0.2722
23852W        W37266   5.504   8.998   0.712  0.1373  0.1994 -0.1710
23853W        W37267  16.321  12.687  10.694 -0.2727  0.0468 -0.0210
23854W        W37268  11.109   0.936  14.283 -0.1013 -0.0751  0.1481
23855W        W37269  15.039  16.284  15.926 -0.2608  0.2714  0.0332
23856W        W37270  17.910   4.247  11.882 -0.1195 -0.1925 -0.0708
23857W        W37271  17.972   9.991  15.660 -0.0450  0.0304 -0.0710
23858W        W37272  13.917  12.460  12.257 -0.0463 -0.0761 -0.0081
23859W        W37273  16.087   6.910   1.970 -0.2097  0.2195 -0.1382
23860W        W37274   8.673  18.263  14.502  0.0570 -0.0738 -0.0406
23861W        W37275   5.537   6.664   4.211  0.1237 -0.1862  0.0256
23862W        W37276  10.899  16.200   2.337  0.0535 -0.0275 -0.4361
23863W        W37277  16.157  17.153  15.647 -0.2160 -0.1116  0.1504
23864W        W37278   6.211  17.584   4.558 -0.0707  0.0337 -0.0399
23865W        W37279  15.517   6.703   2.515 -0.1723 -0.0430 -0.1164
23866W        W37280  14.170  13.395  11.250  0.0332  0.0226 -0.0988
23867W        W37281  13.982  14.475  15.530  0.1217 -0.0928  0.0381
23868W        W37282   2.275   1.846   4.044 -0.1758  0.2662 -0.0723
23869W        W37283  10.424   2.077   4.173 -0.2837  0.1287 -0.0082
23870W        W37284   4.003   8.572   0.598 -0.0961  0.1514 -0.2597
23871W        W37285  14.515   3.489  13.080  0.1638 -0.2564  0.1103
23872W        W37286   9.368  11.552  10.047  0.0141  0.3066 -0.0716
23873W        W37287  12.277   6.838  13.562 -0.2354 -0.0489  0.0978
23874W        W37288   0.316   1.582  11.351  0.1180 -0.0042  0.0230
23875W        W37289  12.634   2.144   5.777  0.2743  0.0503 -0.2637
23876W        W37290   1.050  15.141  13.883  0.0109 -0.1536 -0.1624
23877W        W37291  18.406  13.866   5.541  0.1501  0.1418  0.1803
23878W        W37292   8.457   8.767  12.863 -0.0250 -0.0094 -0.1179
23879W        W37293  17.829   0.017  11.429 -0.0003 -0.0429 -0.3605
23880W        W37294   8.443  17.475  12.257  0.2107 -0.2409 -0.2997
23881W        W37295  11.304  17.256   4.818 -0.2829  0.0030  0.1760
23882W        W37296  15.908   8.583   6.014 -0.0544  0.2128  0.1626
23883W        W37297   4.440   7.316  14.972 -0.0383 -0.3954  0.2141
23884W        W37298  16.582  14.891  10.303  0.0019  0.2841 -0.0015
23885W        W37299  10.277  16.562   0.913 -0.2788 -0.2743 -0.0105
23886W        W37300   2.156  11.050   4.973  0.1938 -0.2508 -0.1664
23887W        W37301  16.362   4.260   2.221  0.1491  0.0437 -0.0169
23888W        W37302   6.530   8.171   0.392  0.1077 -0.0619 -0.1244
23889W        W37303   8.043  17.945   2.524 -0.0038  0.1752 -0.1294
23890W        W37304   7.258  12.022   1.312 -0.0913  0.1558  0.1566
23891W        W37305   8.778  17.798  11.658  0.3304  0.2741  0.1325
23892W        W37306  16.836   6.978   3.574 -0.3003 -0.1168 -0.0272
23893W        W37307   7.306   7.304   0.528  0.0100 -0.1665 -0.2423
23894W        W37308   2.687   7.673  11.460  0.1611  0.0340  0.0773
23895W        W37309   1.630  13.393   4.315  0.1526 -0.2058  0.0578
23896W        W37310  12.610  16.436   4.559  0.1873  0.2141  0.2010
23897W        W37311   0.328  12.206  13.752  0.2826 -0.0129  0.1863
23898W        W37312   5.324   0.713  11.407  0.2525  0.1151  0.4803
23899W        W37313  15.299  15.438   1.252 -0.0109  0.2894  0.1575
23900W        W37314  12.390  11.336  12.180 -0.2319 -0.2183 -0.0896
23901W        W37315  10.467   5.500   4.536 -0.1241 -0.1654  0.1949
23902W        W37316   5.319   4.468   4.223  0.0996 -0.1607 -0.0546
23903W        W37317   7.972  14.066  16.242 -0.0458 -0.0458 -0.1024
23904W        W37318   0.131  13.158  10.987  0.0175 -0.1997  0.1402
23905W        W37319  12.396   3.074   6.159  0.1541 -0.0420 -0.0571
23906W        W37320   8.272   6.386   1.595 -0.0290  0.0040 -0.1870
23907W        W37321  17.363   6.841   3.290 -0.0923 -0.1512 -0.0913
23908W        W37322   6.618  17.764   5.008  0.1565 -0.0924  0.2186
23909W        W37323  16.718   9.278   0.290 -0.2475  0.4616 -0.2008
23910W        W37324  14.528   7.799   4.618  0.0389 -0.0898  0.0020
23911W        W37325  18.433   1.161  11.357  0.1091 -0.1166  0.2523
23912W        W37326   8.613  14.322   2.584  0.1248 -0.0164 -0.0196
23913W        W37327   6.572   6.644  15.928 -0.1439 -0.4027 -0.3631
23914W        W37328   6.752  12.607  16.208 -0.1348  0.0319 -0.2063
23915W        W37329  12.354   5.460  15.948  0.0731 -0.1128  0.0954
23916W        W37330   6.855   7.423   3.477 -0.0356 -0.1469  0.0423
23917W        W37331  14.235  17.382   2.187  0.2088 -0.2702  0.1628
23918W        W37332   2.711  15.314  10.525  0.1190  0.1802  0.0381
23919W        W37333  18.514   4.389  12.965 -0.0773  0.2064 -0.2570
23920W        W37334   9.792   3.172   2.844 -0.0533 -0.1043 -0.0407
23921W        W37335   8.819  10.636  11.883 -0.1179 -0.1404  0.0553
23922W        W37336  13.166  10.313   5.952 -0.1394 -0.1581  0.0879
23923W        W37337  11.230  14.172   3.557 -0.1216 -0.2392 -0.1281
23924W        W37338   1.453  14.956  10.327 -0.2361 -0.2765 -0.0720
23925W        W37339   9.152  17.484   0.045 -0.0528  0.1751  0.1087
23926W        W37340   1.389  12.543   2.542  0.2392 -0.0312 -0.2437
23927W        W37341   3.941  10.856  14.596 -0.0930  0.2102  0.2121
23928W        W37342   8.956  12.364  12.205 -0.0532 -0.3446  0.1801
23929W        W37343   3.520  15.841  16.101  0.1112  0.0246 -0.2437
23930W        W37344  17.326  11.798   5.452 -0.0569 -0.0204 -0.1005
23931W        W37345   8.425   9.143  10.182 -0.1820  0.0399  0.0894
23932W        W37346  18.084  12.102   4.894 -0.1942  0.3512  0.0016
23933W        W37347  13.568   1.218  14.488 -0.1521  0.0390 -0.0253
23934W        W37348  12.024  18.096   2.449 -0.0501 -0.2629 -0.1759
23935W        W37349   2.564   2.632  12.776  0.2618  0.0805  0.2151
23936W        W37350  14.690   6.033   4.982 -0.0762 -0.0526  0.2705
23937W        W37351   0.818  10.053  11.659  0.0124 -0.0648 -0.2164
23938W        W37352   8.993   5.403   5.125  0.0260  0.2031 -0.1120
23939W        W37353   4.045  11.651   9.579  0.0533  0.3592 -0.0059
23940W        W37354  11.955  16.959   9.946  0.0151 -0.0002 -0.1359
23941W        W37355   2.441   9.209  12.142  0.1447 -0.4388  0.0116
23942W        W37356   8.723  12.293  11.477 -0.0871 -0.0317 -0.0118
23943W        W37357   1.110   7.642   4.366 -0.0100  0.2484 -0.0275
23944W        W37358  17.691  11.447   2.130  0.2544  0.0147  0.1754
23945W        W37359   0.394  16.675  12.343 -0.0803 -0.2056  0.0198
23946W        W37360   9.280   5.145  15.538  0.0505 -0.0535  0.0235
23947W        W37361   4.293  14.546   9.713  0.1168  0.2386  0.0784
23948W        W37362  15.596   0.996  14.513  0.1238 -0.2646  0.1992
23949W        W37363   7.054  10.127  12.145  0.1558 -0.1933 -0.4436
23950W        W37364   5.789   5.814   2.792 -0.1165  0.1135  0.0567
23951W        W37365   1.499   5.442   1.125  0.0470  0.2490  0.5495
23952W        W37366  12.536   7.505   2.735 -0.2535  0.0889 -0.1437
23953W        W37367   4.776   4.070   3.597  0.0543  0.3363 -0.0890
23954W        W37368  16.265   6.413   0.497  0.1655 -0.0044 -0.1043
23955W        W37369  11.305  17.127  14.737  0.1688  0.0139  0.0492
23956W        W37370   4.840   3.317   0.173 -0.0704 -0.0165  0.0950
23957W        W37371   3.332  10.512  14.770 -0.0486  0.1112 -0.0159
23958W        W37372   2.359  12.983  15.601  0.0285  0.1050 -0.3432
23959W        W37373   9.373  12.216  10.933  0.2527 -0.2943  0.1035
23960W        W37374   1.298  10.405  14.015 -0.0410 -0.0623  0.0489
23961W        W37375   8.525   1.986  10.767 -0.1491  0.1400  0.2451
23962W        W37376   9.813  15.670  12.050 -0.0066 -0.0512  0.1867
23963W        W37377   1.240   6.981  12.269  0.2069 -0.1705 -0.2171
23964W        W37378   7.864  12.972   0.041 -0.3036 -0.0071  0.1002
23965W        W37379  12.815   4.290   2.206  0.0659 -0.0198  0.4272
23966W        W37380   0.027   0.400  10.443 -0.3191  0.0711 -0.0876
23967W        W37381   9.283  11.723   3.441  0.3765 -0.1156 -0.0355
23968W        W37382  15.412  10.985   4.095 -0.0461  0.0507 -0.0746
23969W        W37383  12.208  16.689  11.442  0.0348  0.1814 -0.0579
23970W        W37384  13.994   5.494   6.420  0.3224  0.1320 -0.1042
23971W        W37385   7.208  11.017   2.249 -0.1759  0.0268  0.2644
23972W        W37386  10.867   9.716  12.301 -0.1526 -0.0927 -0.0343
23973W        W37387   4.879  14.039  13.003  0.0118  0.0219  0.0576
23974W        W37388   9.592  12.071   1.713  0.2677  0.0162 -0.0118
23975W        W37389  12.824   6.813   6.111  0.3973  0.2452  0.0935
23976W        W37390   2.403   9.289   0.536 -0.0218 -0.1186 -0.0889
23977W        W37391   6.821   5.874   5.882 -0.0728 -0.2329 -0.1094
23978W        W37392   3.214   0.360  12.170  0.0414 -0.1122  0.1105
23979W        W37393   7.168   3.313  13.734 -0.2368 -0.0968  0.1487
23980W        W37394  12.655   8.717   1.946  0.4822  0.2239  0.0989
23981W        W37395  13.907   7.374  14.573 -0.0542  0.0699 -0.2322
23982W        W37396   5.947  15.257   4.117 -0.0786  0.1175  0.0592
23983W        W37397  12.309   7.323   5.702  0.2137  0.0948 -0.4407
23984W        W37398  13.951   9.531   2.931 -0.2347  0.1000  0.1505
23985W        W37399   0.901  12.731  15.457  0.2085 -0.0357 -0.2323
23986W        W37400   9.872  10.481  15.607 -0.0897  0.2851  0.3351
23987W        W37401   6.269   1.069  11.953 -0.2142  0.2312  0.1189
23988W        W37402   8.072  17.764  13.229 -0.3254 -0.1129  0.1932
23989W        W37403   1.720  11.094   0.439 -0.0515 -0.0705 -0.2786
23990W        W37404   2.101  14.462   2.861 -0.3237  0.1418 -0.1811
23991W        W37405  11.018  12.263   3.963  0.1087  0.1470 -0.0533
23992W        W37406  17.285   7.361   5.053 -0.0588 -0.0501 -0.3269
23993W        W37407   1.986   5.464  12.739 -0.3691 -0.1751  0.0063
23994W        W37408  11.065  12.111  14.175  0.0124 -0.0938  0.0562
23995W        W37409   3.583   0.326  12.818 -0.2086  0.0548  0.2039
23996W        W37410   5.164   5.270   2.139 -0.0792  0.1207 -0.1888
23997W        W37411   7.380  16.454   4.779  0.2467  0.2517  0.1235
23998W        W37412  11.899  17.139   0.961 -0.1279 -0.0310  0.0548
23999W        W37413   3.925  14.777  12.324  0.3549 -0.1831  0.1466
24000W        W37414  12.929   4.532  15.056  0.0453  0.1456 -0.2782
24001W        W37415  18.369  12.459  13.801  0.0672 -0.0349  0.1256
24002W        W37416   7.114  12.109   0.780  0.2582  0.1702 -0.0260
24003W        W37417   2.444  10.450   1.399 -0.1369  0.0973 -0.2025
24004W        W37418  11.648   6.486   6.570 -0.1431  0.0179  0.0177
24005W        W37419  12.114  13.464  14.065 -0.0770 -0.1200  0.1739
24006W        W37420   5.907   5.010  15.703 -0.1756  0.3359 -0.1542
24007W        W37421  17.435  14.092   6.467  0.1191  0.1556  0.0614
24008W        W37422   1.149   1.772   3.474 -0.4365  0.3857 -0.1986
24009W        W37423   8.994   4.697  11.536  0.2695 -0.2879 -0.0422
24010W        W37424  12.140   1.236   2.537  0.0684 -0.3846 -0.1443
24011W        W37425   6.272  10.701   4.950 -0.2864  0.0780 -0.0307
24012W        W37426   8.963  18.316   5.453 -0.2127 -0.1109  0.1490
24013W        W37427  14.578   7.891   5.091 -0.0629  0.0896  0.0814
24014W        W37428  10.165  17.106   4.745  0.0021  0.0740  0.0689
24015W        W37429  14.936  16.955   2.872 -0.1197 -0.3429  0.1634
24016W        W37430   6.684   9.778  11.985  0.1709  0.0012 -0.2200
24017W        W37431  13.618   1.100   5.369 -0.1745 -0.2236 -0.2259
24018W        W37432  14.229  11.952  13.818 -0.0003 -0.2956 -0.1257
24019W        W37433  18.039   2.611  16.135  0.2724  0.1150  0.1576
24020W        W37434  11.184  13.326   5.611 -0.1593 -0.0329  0.0662
24021W        W37435   0.928   4.936  15.962  0.2559  0.0734  0.0182
24022W        W37436   9.241   8.956   3.975  0.0141 -0.4030  0.1110
24023W        W37437  12.010  18.268  15.075  0.1880 -0.1222  0.1784
24024W        W37438   7.949  16.127  13.823  0.0219  0.0633 -0.0959
24025W        W37439  13.665  14.196   5.696  0.1008 -0.0106 -0.1131
24026W        W37440  11.387   0.576   0.373 -0.0760  0.0557 -0.0898
24027W        W37441   4.116  10.210   9.617  0.3190 -0.1527 -0.0061
24028W        W37442  14.579   6.500  11.198 -0.0849 -0.0022 -0.1585
24029W        W37443   7.458  18.290   1.926 -0.2724  0.0657  0.0254
24030W        W37444  18.376  18.129  13.778  0.0054 -0.3722 -0.0898
24031W        W37445   0.311   6.882  15.243  0.1387  0.4254 -0.0117
24032W        W37446   9.892  16.677  14.475  0.0330 -0.2240 -0.0475
24033W        W37447  16.291  13.953   0.636  0.4020 -0.1122  0.1498
24034W        W37448  11.766   4.137   3.039 -0.0011  0.1171  0.4789
24035W        W37449   6.900  13.094  15.029  0.0633 -0.0325  0.1092
24036W        W37450  15.948   5.602   3.193 -0.0271  0.0152 -0.1039
24037W        W37451  14.022   9.944  12.647  0.1329  0.1000 -0.2009
24038W        W37452   6.796   9.256  11.957  0.0566 -0.2103  0.2403
24039W        W37453   5.980   4.180  16.018  0.1348  0.1341 -0.2072
24040W        W37454   5.334   7.052  11.517 -0.2908  0.1034 -0.0840
24041W        W37455  12.121   0.951   4.120  0.2008  0.5117 -0.1372
24042W        W37456   1.375   2.384  11.447  0.0356 -0.2739  0.5922
24043W        W37457   9.495   2.557  11.210 -0.0070 -0.0070 -0.0200
24044W        W37458  16.020   6.607   4.670  0.0585 -0.2504  0.2999
24045W        W37459  14.324  16.163  15.278 -0.0546 -0.1698 -0.0281
24046W        W37460  10.052   9.465  11.144  0.0095 -0.1081 -0.2790
24047W        W37461  13.699   9.476   1.195  0.0170  0.1452  0.2333
24048W        W37462  14.513   2.187   1.333 -0.0491 -0.2437 -0.3040
24049W        W37463   6.548  11.308  12.762 -0.0084  0.0177 -0.1675
24050W        W37464  17.363  15.181   5.204  0.0113  0.0779 -0.2634
24051W        W37465  10.379   4.709  10.980 -0.2038 -0.1949  0.0974
24052W        W37466   2.278   3.019  14.666  0.0459 -0.0823 -0.2556
24053W        W37467  16.734  16.517   1.435  0.1927  0.0127  0.0318
24054W        W37468   2.507   6.539  15.869  0.0175 -0.2145 -0.3246
24055W        W37469   0.472  12.441   1.485  0.0147  0.4572  0.1173
24056W        W37470  17.768  13.291   3.993  0.0982  0.2893  0.1402
24057W        W37471   0.697  10.613  11.393  0.4011  0.2660 -0.3455
24058W        W37472   2.897   2.623  16.083 -0.1248  0.0924 -0.1492
24059W        W37473  13.622  15.749   2.462  0.0049 -0.4364 -0.3066
24060W        W37474  12.394  15.342   4.863  0.1434 -0.2700 -0.3217
24061W        W37475   6.696  14.514  12.515 -0.2769 -0.0474  0.2874
24062W        W37476  15.776   2.072  12.055 -0.1500  0.2097  0.1142
24063W        W37477  10.314   3.372   3.458  0.1394  0.0537 -0.2592
24064W        W37478  15.291   9.547   3.264  0.1133 -0.0533 -0.0588
24065W        W37479  11.349   8.463   4.386  0.3094  0.0922 -0.3034
24066W        W37480   1.983  14.561   5.397  0.1747  0.0025 -0.2177
24067W        W37481  10.013   2.761  16.130  0.0162  0.0592  0.2924
24068W        W37482   1.087   3.659   3.970 -0.3156  0.0683  0.0595
24069W        W37483  10.262   5.068   0.725  0.3114  0.0289  0.1937
24070W        W37484  10.493  18.109  14.200  0.1096 -0.2970  0.0867
24071W        W37485   8.585   8.290  13.007  0.3759 -0.0300 -0.3446
24072W        W37486   1.244   3.287   1.557  0.0694  0.3757 -0.0927
24073W        W37487   8.347   6.622  13.222  0.0048  0.1776 -0.1158
24074W        W37488  12.258  16.354   4.229  0.1493 -0.0487 -0.1472
24075W        W37489  12.512   7.567  10.615 -0.1562  0.0230  0.0415
24076W        W37490   7.200  18.379  14.522  0.3963 -0.0488 -0.2354
24077W        W37491   7.859  12.105  15.606  0.0040 -0.0219 -0.2452
24078W        W37492   8.093   2.621   4.562  0.0527 -0.2763 -0.0285
24079W        W37493  17.105  12.672   1.670 -0.1563 -0.1516  0.4224
24080W        W37494   1.847  13.997  13.697 -0.0678  0.0952  0.0800
24081W        W37495   5.826   5.596  12.183  0.1771  0.1750 -0.1616
24082W        W37496  17.452   0.706   4.377  0.1011 -0.0209 -0.1452
24083W        W37497   7.112  16.191  15.125  0.1312 -0.2403 -0.0562
24084W        W37498  14.471  14.563  15.443 -0.0076  0.1642 -0.0371
24085W        W37499   8.941   0.058   4.957 -0.0391  0.2564 -0.0165
24086W        W37500  14.201   2.211   6.698 -0.1154  0.1614 -0.2023
24087W        W37501   6.495  10.783   0.918 -0.3147  0.3148  0.0858
24088W        W37502   0.890  16.471  12.625 -0.0667 -0.2595  0.0156
24089W        W37503  14.182  17.538   3.822  0.1449  0.0039 -0.0083
24090W        W37504   9.628   9.310  12.982 -0.0047  0.1177  0.4050
24091W        W37505   8.947  15.556  12.061  0.1069  0.1758  0.1096
24092W        W37506  12.467  14.881   3.766  0.2748 -0.0545  0.2469
24093W        W37507   5.257  17.176   2.141 -0.0623  0.1688 -0.1960
24094W        W37508   6.983   8.104   4.168 -0.2958 -0.0470  0.3618
24095W        W37509  16.609   0.204  12.381  0.1696 -0.0763 -0.5260
24096W        W37510  15.983   2.883   0.590  0.1620  0.2559  0.2229
24097W        W37511   0.516   6.267  13.948  0.1088  0.0055  0.0157
24098W        W37512  17.564   2.738  14.834 -0.0977 -0.0404 -0.2680
24099W        W37513   9.436   1.118   5.544 -0.2799 -0.0943  0.1405
24100W        W37514   3.683  10.129   2.534  0.0626  0.0806  0.1651
24101W        W37515  12.352   9.365   4.720 -0.2028  0.3011  0.2804
24102W        W37516   1.196  12.610   0.685  0.1170 -0.1576 -0.0778
24103W        W37517   6.631  11.601   4.723 -0.1757 -0.0477  0.0564
24104W        W37518  14.560  11.675  11.091 -0.0943  0.2433  0.0258
24105W        W37519  10.187   3.653   0.192  0.3889  0.0407 -0.3009
24106W        W37520  11.180  14.101   1.520  0.1672 -0.0645  0.2383
24107W        W37521  16.789   7.191   0.300 -0.2221  0.0064 -0.1579
24108W        W37522   8.964  12.005  12.588 -0.2866  0.0545 -0.0791
24109W        W37523   7.469  15.170   2.013  0.0305 -0.2402 -0.0117
24110W        W37524  12.837  14.963   1.724  0.0160  0.0997  0.1988
24111W        W37525   4.624   7.379  16.089  0.2818  0.1881 -0.2453
24112W        W37526  13.761   3.101  13.022 -0.0164  0.1831  0.0755
24113W        W37527   9.223  10.762  12.209 -0.0455  0.1907 -0.2765
24114W        W37528  14.076  15.681   1.758  0.0092  0.0161 -0.3353
24115W        W37529  11.303   1.439   4.390  0.2141  0.2069 -0.3127
24116W        W37530  17.505   2.230  12.495 -0.2058  0.1455  0.1482
24117W        W37531  16.567   8.692  14.461 -0.0604 -0.0213  0.0224
24118W        W37532  11.130  14.229  14.736 -0.0287  0.2084  0.2775
24119W        W37533  10.292   6.179   3.359 -0.0341 -0.2860  0.1528
24120W        W37534  16.813   8.117   3.590  0.0331 -0.2076  0.1125
24121W        W37535   7.891   0.943  11.596 -0.1525  0.1765 -0.5034
24122W        W37536   0.487   0.363   0.064  0.2808 -0.2217  0.4155
24123W        W37537  15.263   0.013  10.581 -0.0386  0.2425 -0.2372
24124W        W37538   8.490  16.341  10.998  0.0113  0.1262 -0.2290
24125W        W37539   6.553  10.724   3.318  0.5414  0.1335 -0.0769
24126W        W37540   3.324  17.076   1.814  0.2374  0.1797 -0.1945
24127W        W37541  18.186   6.995   1.123 -0.1679  0.1264 -0.0368
24128W        W37542  10.639  13.452   4.453 -0.1474 -0.2659 -0.0900
24129W        W37543   3.369   1.121  10.301  0.0577  0.1332  0.1785
24130W        W37544   2.296   0.272  13.331 -0.4194  0.0767 -0.1610
24131W        W37545   1.931   1.361   4.283  0.1950 -0.2513 -0.1847
24132W        W37546   3.382   7.200  12.909 -0.0073 -0.0338  0.0339
24133W        W37547   9.053   4.481   4.832  0.4285  0.1804  0.1881
24134W        W37548   4.247   6.701  15.046 -0.0699 -0.0781  0.3075
24135W        W37549  15.781   0.597   3.390 -0.0505  0.0151 -0.0141
24136W        W37550  16.040  13.729  11.618 -0.4011 -0.0932  0.0268
24137W        W37551  10.082   7.390   4.993 -0.1327 -0.2999  0.1283
24138W        W37552  14.826   7.363   5.108 -0.0210 -0.0772 -0.0318
24139W        W37553  17.372  16.455   4.821 -0.0203 -0.0910  0.2571
24140W        W37554   7.610   5.119  11.657 -0.1212 -0.1438 -0.5751
24141W        W37555   9.606   7.113   6.536  0.0964 -0.1192  0.3100
24142W        W37556  13.105  13.693   4.452  0.2391 -0.3271  0.1385
24143W        W37557   7.466  11.831   3.666 -0.1868 -0.0114  0.0359
24144W        W37558  15.788   9.835  11.509 -0.2938 -0.3423  0.1513
24145W        W37559  11.367   9.703  12.140 -0.1393  0.1319 -0.0863
24146W        W37560  13.040   6.546  13.236 -0.0191  0.2245  0.0141
24147W        W37561  16.535   4.397  13.629  0.0346 -0.0353  0.1691
24148W        W37562   9.240   4.616   1.821 -0.1387 -0.2052 -0.2114
24149W        W37563  16.601  18.477  13.832  0.1199 -0.5385 -0.2028
24150W        W37564   8.663   2.965  10.611 -0.2984  0.0588  0.1033
24151W        W37565   1.660  15.368   0.434  0.0054  0.2623  0.0472
24152W        W37566   2.293   8.999   4.418  0.2233  0.0711  0.0014
24153W        W37567  13.047   1.421   4.618 -0.1293  0.0556  0.0396
24154W        W37568   7.642  11.613   1.336  0.0890  0.1092 -0.0799
24155W        W37569   2.815  15.423   4.587  0.1669  0.4179  0.1548
24156W        W37570   6.432  11.823  13.156  0.2626 -0.0867 -0.2552
24157W        W37571  11.750  15.266  11.652 -0.2369 -0.0742 -0.1484
24158W        W37572   0.457   7.037  15.875  0.1438 -0.1348 -0.1054
24159W        W37573   6.816  18.241  16.264  0.1825  0.1065 -0.2205
24160W        W37574  15.561  17.154  13.627 -0.0392  0.1580 -0.1122
24161W        W37575   4.642   0.430   5.993  0.5065 -0.2593 -0.0363
24162W        W37576   7.985  13.858  12.542 -0.1218  0.2399  0.1174
24163W        W37577   3.371  13.852  12.089 -0.2177 -0.0059 -0.0429
24164W        W37578   5.638  11.630  13.477  0.0203 -0.1226  0.0607
24165W        W37579   9.322   3.987  12.682  0.1015 -0.2676 -0.0124
24166W        W37580   5.812  16.865  13.663  0.0238  0.0731  0.1152
24167W        W37581   0.841   0.876   2.540  0.1976 -0.2388 -0.2094
24168W        W37582  14.417   2.188   3.040 -0.0407  0.2961 -0.1021
24169W        W37583   9.266   8.383  13.275  0.0804  0.4910  0.0418
24170W        W37584  14.486   8.163  12.064 -0.3906 -0.0952  0.0245
24171W        W37585   9.337   0.166   6.474 -0.1049  0.2590  0.0104
24172W        W37586   0.136  18.133   0.661 -0.0190 -0.1454 -0.1906
24173W        W37587  15.330  10.827  14.822 -0.1577  0.2417 -0.1377
24174W        W37588  12.210  12.618  12.491 -0.2305 -0.1016  0.0649
24175W        W37589  17.427  11.352   1.681 -0.1374 -0.1905 -0.3301
24176W        W37590   9.827  15.133   4.687 -0.0649  0.2559  0.2413
24177W        W37591  14.678  10.370  15.884  0.2348  0.1470 -0.2339
24178W        W37592   1.244   5.347  15.400 -0.1307  0.0536  0.0780
24179W        W37593   6.004   2.329  14.960 -0.4472  0.0648  0.0942
24180W        W37594   2.560  17.767  11.835  0.1839 -0.1460  0.0516
24181W        W37595   9.690   2.288   1.410 -0.0389 -0.0495  0.0596
24182W        W37596  11.151  17.697   2.258  0.0530 -0.0092  0.1276
24183W        W37597  11.635   0.585   4.499 -0.4020 -0.4642 -0.1386
24184W        W37598  12.676   9.634  13.481 -0.1171 -0.1691 -0.1071
24185W        W37599  14.395   6.020  16.163 -0.0318 -0.0809  0.0714
24186W        W37600   7.274   8.329  15.100  0.0493  0.0685  0.1946
24187W        W37601  17.758  11.319   1.029 -0.0723 -0.2289 -0.6590
24188W        W37602  12.202   4.163  11.865 -0.0566 -0.1155 -0.3089
24189W        W37603   0.264  17.211  12.589 -0.0096 -0.3372  0.2012
24190W        W37604  15.528   4.278   3.930  0.0714  0.1235  0.1747
24191W        W37605   3.353   5.311  13.499  0.3528  0.1808  0.2134
24192W        W37606   2.198   3.688   5.389 -0.1162 -0.1727  0.0468
24193W        W37607   5.851   7.940  16.047  0.2223 -0.1231 -0.2143
24194W        W37608  13.232  17.696   3.005 -0.2205  0.2194 -0.0163
24195W        W37609   5.207  12.712  14.079 -0.3504  0.1534  0.1878
24196W        W37610  13.933   2.612  15.735  0.2512  0.0670  0.2666
24197W        W37611   9.505   3.154   1.800  0.2750 -0.0278 -0.2871
24198W        W37612  11.494  10.396  14.570 -0.0654  0.4304  0.1547
24199W        W37613   5.276  10.635  14.209 -0.2081 -0.1001 -0.0484
24200W        W37614   2.691   2.610   5.337 -0.2015  0.1269 -0.1015
24201W        W37615  10.693   9.202  11.091  0.1128 -0.3611 -0.0712
24202W        W37616  17.708  15.301   4.500 -0.2690 -0.1072  0.0428
24203W        W37617  18.157   9.575   4.202  0.0279 -0.5819  0.1356
24204W        W37618   3.042   8.383  12.737 -0.0696 -0.0352 -0.4283
24205W        W37619   2.466   7.753   0.522  0.0575  0.1680  0.3983
24206W        W37620   0.231  11.430   6.173  0.3712  0.1638  0.1763
24207W        W37621   6.617   1.281  14.990  0.0908  0.0756 -0.2494
24208W        W37622  14.329   3.138   6.220  0.1801  0.1041 -0.2348
24209W        W37623   2.149  12.269  14.294 -0.2097 -0.1654  0.1006
24210W        W37624  14.480   1.655   2.843  0.0832 -0.0238  0.1044
24211W        W37625   6.833   7.978   3.647 -0.0168  0.0070 -0.2044
24212W        W37626  14.705   1.373  10.999  0.0819  0.0814 -0.1160
24213W        W37627  12.297   3.965  11.426  0.1911 -0.2317  0.1713
24214W        W37628  11.374   1.869  16.050 -0.1161  0.0494 -0.1457
24215W        W37629  14.967  15.727  12.188 -0.0024 -0.1108 -0.1108
24216W        W37630  13.939  18.491  10.370  0.2064 -0.2929  0.1256
24217W        W37631   3.250   6.817  12.491 -0.1132 -0.0870  0.1351
24218W        W37632  11.975   1.580   4.901  0.1754 -0.3095  0.2695
24219W        W37633   1.667   2.670   3.797  0.2618 -0.1069 -0.1196
24220W        W37634  16.517   0.011  11.852  0.1706 -0.2969 -0.2796
24221W        W37635  14.292   8.446   2.728 -0.2943 -0.0479  0.2552
24222W        W37636   8.129  14.236   4.199  0.1572  0.2791 -0.1896
24223W        W37637   2.898   2.974   0.130  0.0699  0.3235  0.0982
24224W        W37638   8.581   3.777   3.003 -0.1389 -0.1382 -0.0556
24225W        W37639   8.302   0.102  11.581  0.2388 -0.1177  0.1651
24226W        W37640   4.861   7.815   3.708 -0.2224 -0.2434  0.1750
24227W        W37641   0.669  15.458  13.824 -0.2009  0.0240  0.1537
24228W        W37642  10.863  15.382  14.980 -0.0828  0.0865 -0.0117
24229W        W37643  18.355   1.460  11.792 -0.1591 -0.0825  0.2047
24230W        W37644  12.891   1.057  16.054  0.1675 -0.1999  0.2255
24231W        W37645  13.318   3.909   4.373  0.0680 -0.1141  0.1112
24232W        W37646  12.748  11.896   4.158 -0.2322 -0.0770  0.1079
24233W        W37647  11.634   2.997   3.956  0.1399  0.3558 -0.0498
24234W        W37648   4.341   7.268   6.068  0.1195  0.0747 -0.0378
24235W        W37649   8.572   3.752  13.628 -0.0753  0.4020  0.0265
24236W        W37650  13.836   0.234   3.419 -0.0529 -0.1733  0.1039
24237W        W37651   8.916  10.055   4.157 -0.1286 -0.0054  0.1654
24238W        W37652   6.015   1.897   5.993 -0.2159  0.2014 -0.0965
24239W        W37653   0.753   0.519   9.683 -0.0435 -0.1034  0.0238
24240W        W37654   8.192  14.452   4.639  0.0521  0.2085  0.0126
24241W        W37655   8.873  10.549   2.833 -0.1553 -0.2373  0.2215
24242W        W37656  13.997   3.176   2.773 -0.1587  0.1168 -0.2023
24243W        W37657   3.697   7.731   5.236  0.1232 -0.1328  0.0947
24244W        W37658  11.849  16.333  12.206  0.1764 -0.0572 -0.0934
24245W        W37659  10.230   7.197  12.089 -0.3350 -0.0086 -0.0584
24246W        W37660   0.306   1.414   3.525  0.2773 -0.2310 -0.0990
24247W        W37661  12.623  11.892  14.447  0.2345  0.6112  0.2770
24248W        W37662  12.717  17.495  13.310  0.0573 -0.1187  0.0219
24249W        W37663  12.054  18.252  10.100  0.1361 -0.2488 -0.2292
24250W        W37664   2.317  10.441   5.600 -0.0396 -0.0927 -0.1760
24251W        W37665   6.714  10.903   2.335  0.0437 -0.0744  0.4096
24252W        W37666   6.468   2.385  13.211 -0.0480  0.0330  0.2942
24253W        W37667   0.984  11.898   5.558 -0.1912 -0.0509  0.4699
24254W        W37668   3.214   4.801   2.650 -0.2002 -0.0431 -0.2580
24255W        W37669  13.646   8.536   4.086  0.2011 -0.0407 -0.0120
24256W        W37670  16.653   3.762   0.865 -0.0031  0.2527  0.1220
24257W        W37671  13.324   0.039  12.622  0.0842 -0.4113 -0.4493
24258W        W37672  12.634  18.258   0.513 -0.0781  0.2705  0.1505
24259W        W37673   4.913   1.620  12.875 -0.2149  0.3735 -0.1459
24260W        W37674   5.479   4.110  14.406  0.2565 -0.2273 -0.1823
24261W        W37675   2.403  13.599  11.366  0.3326 -0.1545  0.1344
24262W        W37676   9.510  12.454   2.792  0.3095  0.0765 -0.0778
24263W        W37677   9.518  17.283  15.120 -0.0301 -0.2248 -0.1876
24264W        W37678  16.485  14.688   4.534 -0.1300  0.2939 -0.2573
24265W        W37679  10.178  10.904  12.920 -0.1033 -0.4150 -0.3047
24266W        W37680   7.483  17.730  10.224 -0.1465 -0.4002 -0.1732
24267W        W37681  18.061   2.486   0.765 -0.1991 -0.1181 -0.0033
24268W        W37682   7.521  15.000   5.251  0.2889 -0.0036 -0.3819
24269W        W37683   6.561   2.325  15.155  0.3573  0.4149  0.1271
24270W        W37684  15.866  17.757  13.577 -0.0931  0.4201  0.0689
24271W        W37685   3.400  14.993   2.055  0.2462  0.1806 -0.2211
24272W        W37686   8.336   5.673  12.844 -0.4600 -0.0983 -0.2915
24273W        W37687  17.132  14.188   3.073  0.1924 -0.0292  0.1060
24274W        W37688  17.230  17.238   2.759 -0.1092 -0.1210 -0.0053
24275W        W37689  13.013  16.493   5.187  0.4115  0.2753 -0.0944
24276W        W37690  15.305   2.958   3.636 -0.1544  0.2645  0.0245
24277W        W37691   4.983  15.623  11.557  0.1990 -0.2624  0.2183
24278W        W37692   2.941  11.334   0.460 -0.2698 -0.2468 -0.2711
24279W        W37693   8.442   0.434   0.946  0.1489  0.1662  0.2231
24280W        W37694   4.757   7.609   5.394  0.2330 -0.1057 -0.1740
24281W        W37695   6.955  10.588   3.644  0.3085 -0.2197  0.1868
24282W        W37696   3.662   9.339  16.183  0.1400 -0.0266 -0.1900
24283W        W37697  14.107   9.970   2.631  0.2024  0.3197 -0.2289
24284W        W37698   5.071   4.084  13.498 -0.2354  0.1614  0.1686
24285W        W37699  10.551  11.020  14.640  0.3972  0.1119  0.0815
24286W        W37700  17.719  17.420   4.910  0.1450 -0.2184 -0.0027
24287W        W37701  12.078   7.656   1.089  0.2671  0.2255  0.1176
24288W        W37702   4.417  13.714  13.706  0.0768  0.0721 -0.4935
24289W        W37703  10.262  11.404   5.355 -0.1153  0.1584 -0.2062
24290W        W37704   0.050  16.458  16.184  0.1498  0.1615  0.1552
24291W        W37705   1.168   0.736  12.341 -0.1621  0.2901  0.2143
24292W        W37706   2.221   0.778  13.416  0.0814 -0.0003 -0.1670
24293W        W37707  10.372   5.452  13.187 -0.2639 -0.0532  0.0267
24294W        W37708   6.180  17.982  15.070 -0.0499 -0.0600 -0.1248
24295W        W37709  18.282  14.813   4.057  0.1635 -0.1877  0.1125
24296W        W37710  17.011   4.815   0.968 -0.0455  0.0267  0.0439
24297W        W37711   7.392  17.473   4.982 -0.1779 -0.0769  0.0241
24298W        W37712   9.054  13.677   3.206  0.0180 -0.1195 -0.1108
24299W        W37713   6.703  15.729   2.328  0.3964  0.1965  0.1125
24300W        W37714  15.881   5.280   0.640 -0.0567 -0.0053 -0.1894
24301W        W37715   4.236   4.190   0.687  0.0040 -0.0452 -0.1300
24302W        W37716   1.906   6.068   4.666 -0.4129 -0.2715  0.1881
24303W        W37717   5.818  12.610   2.894  0.3787 -0.0058 -0.0336
24304W        W37718   1.767   4.451  15.807  0.2517  0.0948 -0.1198
24305W        W37719   5.257   3.137  14.352  0.0021  0.0977 -0.0055
24306W        W37720   3.778   0.676   5.132 -0.1093 -0.0321  0.1719
24307W        W37721   1.012   8.017  10.781 -0.2823 -0.3807 -0.0964
24308W        W37722  17.880   2.535   4.630  0.3693 -0.2229 -0.3072
24309W        W37723  11.717  14.337  14.735 -0.0872 -0.2528  0.5072
24310W        W37724   2.928   8.712  13.173  0.0127  0.2012 -0.0623
24311W        W37725  18.145  10.012  13.022 -0.0328 -0.0541  0.3073
24312W        W37726  15.223  11.548   2.360 -0.1217  0.1336 -0.3456
24313W        W37727   5.098  13.357  10.560 -0.0402 -0.0025 -0.0265
24314W        W37728   6.739   2.841   4.021  0.2119  0.1139  0.0659
24315W        W37729   5.621   2.372   2.386 -0.1435  0.0491 -0.0262
24316W        W37730  12.164  10.739   5.384  0.1141 -0.0185 -0.2074
24317W        W37731   8.309   6.297   1.102 -0.0205  0.1884  0.0718
24318W        W37732   8.760   0.541  14.179 -0.1630  0.1599  0.2265
24319W        W37733   1.015  17.113  14.329 -0.0024 -0.0745  0.0099
24320W        W37734   6.962   5.165  13.809 -0.3685  0.0020  0.0711
24321W        W37735  18.083   4.404   3.661  0.0957  0.1707 -0.0666
24322W        W37736  14.352  15.581  14.525 -0.2177 -0.1530  0.0143
24323W        W37737   2.841  16.782   2.758  0.0344  0.1310  0.4648
24324W        W37738  15.141   9.691  12.090 -0.0846  0.1761 -0.3222
24325W        W37739  18.495   6.458   3.868  0.0952  0.0587 -0.0117
24326W        W37740   1.465   7.897   0.335  0.0417  0.1785  0.0181
24327W        W37741   4.019   9.104  11.125  0.1581  0.2421 -0.0771
24328W        W37742   5.481   2.686   2.818  0.0690 -0.1137  0.0646
24329W        W37743  15.326   2.152   5.694 -0.1184  0.1683 -0.0856
24330W        W37744  17.809   6.171   4.376  0.0448 -0.0967 -0.1371
24331W        W37745   6.052  14.300  11.902  0.0566  0.1215  0.0885
24332W        W37746  10.354  15.185  13.851 -0.2232 -0.1589 -0.4343
24333W        W37747   6.036  15.146   1.228  0.0130 -0.1450  0.1809
24334W        W37748  15.942   4.200  11.308  0.1346  0.3073 -0.4514
24335W        W37749   7.928  15.388   3.403 -0.2004 -0.0583 -0.1205
24336W        W37750  11.836  11.230   3.316  0.2227 -0.4487  0.2028
24337W        W37751   7.959   2.605  11.729  0.0664  0.0353  0.1524
24338W        W37752  17.813  12.253   4.294 -0.1221  0.1218  0.0406
24339W        W37753   0.574   5.006  14.322 -0.1430 -0.0487 -0.0134
24340W        W37754  17.492  10.079  15.744  0.0299  0.0179  0.0158
24341W        W37755   9.226  13.954   2.060 -0.4696  0.2612 -0.0783
24342W        W37756  16.981  11.917  14.156  0.2552  0.2086  0.1589
24343W        W37757  12.941   4.683  11.904  0.4524 -0.2477 -0.0313
24344W        W37758  12.143  15.104  14.693 -0.0166 -0.1091 -0.0714
24345W        W37759   0.011  10.749   2.005 -0.2706  0.1887 -0.0494
24346W        W37760  18.411  13.716  10.979  0.3296  0.1933 -0.2155
24347W        W37761   9.896   0.300   2.074  0.1327  0.2547  0.0451
24348W        W37762   2.332  12.781  14.352  0.1069 -0.2411  0.3720
24349W        W37763   8.777   9.019   4.153 -0.0835 -0.4973 -0.1380
24350W        W37764   1.573  11.888  12.105  0.1345 -0.2012  0.0832
24351W        W37765   6.968   5.657   0.054  0.1013  0.1518  0.1178
24352W        W37766   6.032   4.606   3.725  0.0168  0.4857  0.0313
24353W        W37767  17.667   5.156  15.159  0.1596  0.4117  0.0296
24354W        W37768   4.340   8.451  10.131 -0.1253  0.0049  0.1900
24355W        W37769   6.895  16.182  10.632  0.3505 -0.2174  0.3666
24356W        W37770   3.588  11.934   4.999  0.1383  0.0242 -0.0586
24357W        W37771   3.036  15.846  15.994 -0.0594  0.1424  0.0723
24358W        W37772   7.350   7.554  12.252  0.3568 -0.1617  0.1171
24359W        W37773  17.740   8.848  10.684  0.1455 -0.1711 -0.0686
24360W        W37774  17.573   9.131   4.829 -0.0058 -0.1564 -0.3074
24361W        W37775   0.662   6.923  10.795 -0.2080 -0.1649 -0.0430
24362W        W37776   8.162   1.993  14.402  0.1562  0.1994  0.3025
24363W        W37777  18.353  12.176  12.855  0.0148 -0.0182 -0.0355
24364W        W37778   8.618  18.012   0.695  0.4829  0.1936  0.1060
24365W        W37779  15.146  15.286  13.267 -0.1273  0.2780 -0.0570
24366W        W37780   8.756   2.161   0.168 -0.4673 -0.0508 -0.3211
24367W        W37781   7.391   1.270   4.904 -0.3446  0.0462 -0.1513
24368W        W37782  12.031  10.066  12.731  0.0873  0.3896  0.1026
24369W        W37783   2.869  17.179  10.430  0.1194  0.2991 -0.2273
24370W        W37784   7.492   8.455   1.363  0.1859 -0.1401  0.0562
24371W        W37785  14.945  18.175  13.791  0.2458  0.1225 -0.0328
24372W        W37786  17.642   6.797  12.775  0.3663  0.1438  0.0339
24373W        W37787   7.052  10.232  13.215  0.0250 -0.1943 -0.0090
24374W        W37788   8.250  12.558   3.570  0.0056 -0.1001 -0.1076
24375W        W37789  13.163   3.625   1.727  0.1289 -0.1606 -0.1220
24376W        W37790   0.749   4.422  13.619  0.0878 -0.0394 -0.1418
24377W        W37791  14.990  18.138  12.765  0.3148  0.0662  0.1509
24378W        W37792  13.892  16.690   5.336 -0.0170 -0.0833 -0.1040
24379W        W37793   4.894  13.861  10.605 -0.1591 -0.0399  0.0206
24380W        W37794   4.991   1.415  12.409 -0.1409  0.1050 -0.3279
24381W        W37795   1.723   0.649   2.127  0.2385 -0.1451  0.1368
24382W        W37796   5.071   2.549   3.461 -0.1384 -0.0045  0.1487
24383W        W37797   7.446  10.324  14.297  0.1785  0.2022 -0.0132
24384W        W37798  16.920  15.624   5.584 -0.3382  0.0715 -0.1320
24385W        W37799   4.578  10.321  10.441 -0.3096 -0.2630 -0.1983
24386W        W37800  12.799  11.594   4.722 -0.0786 -0.0720  0.3619
24387W        W37801  10.916   1.800  12.095 -0.0875  0.1036 -0.0860
24388W        W37802   1.034   8.999  13.143  0.0702  0.0251  0.0631
24389W        W37803   6.785  14.760   2.495  0.2356  0.1246 -0.1300
24390W        W37804   5.085   7.700   2.042  0.2264 -0.0264 -0.1493
24391W        W37805  10.413  16.034  15.001 -0.0404  0.2014 -0.1632
24392W        W37806   4.654   6.482   1.769  0.1476  0.2397  0.1524
24393W        W37807  17.883   6.106   2.888 -0.1669  0.0328  0.2161
24394W        W37808   1.221  12.654  13.551 -0.1732  0.0682 -0.1063
24395W        W37809   9.020  10.480  13.457 -0.2142  0.2307  0.1907
24396W        W37810  10.295   4.308  12.582  0.0168 -0.1457  0.1606
24397W        W37811  11.497   5.794  11.190  0.0732  0.2723  0.3532
24398W        W37812  13.046   8.934  11.027  0.2133 -0.2150  0.0169
24399W        W37813  17.099  14.697  15.826  0.0253  0.3502 -0.2771
24400W        W37814  13.853   3.484   2.019  0.1475  0.3282 -0.0808
24401W        W37815  17.455  10.878   1.381 -0.0516 -0.2143  0.3711
24402W        W37816  16.130  16.838  11.470 -0.1625  0.1394  0.1627
24403W        W37817   8.062   4.145   4.662 -0.1923 -0.2451 -0.3044
24404W        W37818  17.282   1.468   1.834  0.0723  0.0234 -0.0404
24405W        W37819  15.712  14.778  11.359 -0.0338 -0.0648 -0.0641
24406W        W37820  10.273  17.469   3.980 -0.0480 -0.0237 -0.0704
24407W        W37821  12.991   6.241   4.026 -0.3072  0.1363 -0.1761
24408W        W37822  15.288   6.672  14.776 -0.0197  0.2762 -0.0359
24409W        W37823  17.726   8.101   4.713  0.1705  0.3558  0.5869
24410W        W37824  11.332   0.691  13.877  0.1919  0.2046  0.0300
24411W        W37825   1.408   9.081   3.238 -0.0203  0.0232 -0.0186
24412W        W37826  15.674   4.718  10.614 -0.2428  0.1153 -0.2164
24413W        W37827  12.620  15.732   3.939  0.2768  0.4121 -0.0657
24414W        W37828  15.370   5.600   3.835 -0.0378  0.0645  0.0264
24415W        W37829   9.618   6.554   1.058 -0.1342 -0.1581 -0.0342
24416W        W37830  12.250   5.689   2.123 -0.1902 -0.3549  0.0349
24417W        W37831  16.043   4.587   3.126 -0.2683 -0.0846 -0.2822
24418W        W37832  17.890   4.897   3.648  0.1214 -0.1069  0.4116
24419W        W37833   5.836  12.269   1.451 -0.0014 -0.2784  0.0369
24420W        W37834   2.600   7.588   1.406 -0.4295  0.3734  0.2946
24421W        W37835   6.184  13.864  15.548 -0.0581  0.1636 -0.1298
24422W        W37836  15.157   8.971   4.517 -0.3235  0.2993 -0.0398
24423W        W37837  16.017  11.266  11.876  0.2795 -0.2381 -0.2201
24424W        W37838   2.652   3.204   4.882  0.0980 -0.4172  0.0914
24425W        W37839  16.540  17.839   3.086  0.0530 -0.0381  0.0506
24426W        W37840  16.562   1.485   2.645  0.1710 -0.0309 -0.1636
24427W        W37841   0.725  16.078  11.913  0.1585  0.3099 -0.0565
24428W        W37842   3.472  16.358  15.234  0.1228 -0.1185  0.3135
24429W        W37843   9.070  14.303   0.273  0.1979  0.0961 -0.3509
24430W        W37844  11.083   4.740  15.744 -0.3135  0.3680  0.1897
24431W        W37845  16.757  14.164   1.740  0.2475 -0.2368 -0.3452
24432W        W37846   7.468  15.653  11.971 -0.5361 -0.0808  0.0218
24433W        W37847   4.691  18.088  16.150  0.4258 -0.1337 -0.3841
24434W        W37848  11.949   9.103   1.867 -0.0750 -0.0426  0.1812
24435W        W37849   5.531  18.400  14.664 -0.0564 -0.0611  0.1700
24436W        W37850   0.118  16.943  11.539 -0.1386 -0.3719  0.1412
24437W        W37851  11.206  12.166   5.048 -0.0577 -0.0413  0.0077
24438W        W37852  17.630  12.060   3.505 -0.1444  0.0269  0.0407
24439W        W37853  15.006   3.632  10.435 -0.0008 -0.4232  0.0789
24440W        W37854  15.953  11.909   5.460 -0.3050  0.0710 -0.0750
24441W        W37855   0.518   7.653   3.598 -0.0428 -0.0119  0.3017
24442W        W37856   3.641  14.461   1.895  0.3252  0.1456 -0.0971
24443W        W37857   7.110  15.382   1.531 -0.0067 -0.0062  0.1105
24444W        W37858   9.294   8.407   0.693 -0.4090 -0.6668  0.1053
24445W        W37859  14.689   5.321   3.178  0.2744  0.4667  0.2215
24446W        W37860   3.139   4.228   2.866  0.0770  0.2656 -0.0460
24447W        W37861   6.371   0.801   3.949 -0.1377 -0.3521  0.0838
24448W        W37862  10.372   0.219  10.789  0.0386 -0.0430  0.0013
24449W        W37863  12.581   0.944   3.911 -0.2013 -0.2782  0.0124
24450W        W37864  15.863   0.620  12.696  0.0503 -0.0732 -0.1197
24451W        W37865   7.838   3.357   2.528 -0.1435  0.0150  0.0767
24452W        W37866   6.020   6.879   3.556  0.0561 -0.0068 -0.0402
24453W        W37867   1.691  16.236  13.022  0.0625 -0.1540 -0.0640
24454W        W37868   7.874  14.623   0.855 -0.1636  0.0201 -0.1394
24455W        W37869  10.814   8.297   5.581  0.1330  0.1603  0.0993
24456W        W37870   6.140   6.951  15.133  0.1680  0.1884  0.2167
24457W        W37871  14.268  12.276   5.874  0.3432 -0.0516  0.1706
24458W        W37872  17.470   0.867  10.951 -0.0907 -0.0480  0.0625
24459W        W37873  11.515   5.286   4.493  0.1568  0.3069  0.3692
24460W        W37874  14.582  10.792   5.933 -0.0431 -0.2984  0.1450
24461W        W37875  10.361  18.521   3.543  0.0839  0.0174 -0.2707
24462W        W37876  15.810   0.005   0.545  0.0838 -0.2328  0.0009
24463W        W37877  11.056  13.520  14.408  0.0861  0.3614  0.2030
24464W        W37878   2.966  11.819   1.713  0.2558 -0.1124  0.2504
24465W        W37879   6.800  13.433   2.284 -0.1934  0.0293 -0.0249
24466W        W37880   7.441   6.047   0.547 -0.3595  0.2935 -0.3361
24467W        W37881   6.997  17.994   0.847 -0.1703 -0.1566 -0.0728
24468W        W37882  10.706  14.512  14.955  0.2601  0.1507 -0.4086
24469W        W37883   8.528  10.308   5.261 -0.2903 -0.0428 -0.0727
24470W        W37884  11.053  16.149  11.798  0.2365 -0.1623  0.1037
24471W        W37885   9.992  13.100   3.902 -0.1087 -0.0072  0.2111
24472W        W37886   4.862   8.627   3.910 -0.1043 -0.1257 -0.4545
24473W        W37887   5.126   7.324   3.106  0.1882  0.0827  0.1145
24474W        W37888  15.485  17.656   4.537 -0.0891  0.0665 -0.2776
24475W        W37889  12.400  15.609   3.012  0.4173 -0.2836  0.0673
24476W        W37890  13.581  12.846  13.538 -0.0017  0.0537  0.1254
24477W        W37891  16.796   0.322   5.039  0.0632 -0.2284  0.0032
24478W        W37892   2.218   2.189  11.045  0.0152  0.3516  0.1163
24479W        W37893  12.222  15.480   2.026 -0.1574  0.0025 -0.2131
24480W        W37894   9.487  16.698  11.703 -0.0844 -0.2318 -0.4396
24481W        W37895   6.413   5.307  12.740  0.1612 -0.1501 -0.0451
24482W        W37896  12.332   5.580   0.704 -0.0536 -0.4013  0.0946
24483W        W37897   2.201   5.132  12.378  0.0057 -0.0849  0.3639
24484W        W37898  12.303  17.284  13.118  0.2823 -0.0519  0.0242
24485W        W37899  18.293   7.918  12.442  0.0328  0.0081  0.1408
24486W        W37900   3.682  12.809  10.790 -0.1225 -0.1016  0.0670
24487W        W37901  11.812   0.118   4.944 -0.0502 -0.1127 -0.0739
24488W        W37902   1.554   7.722  14.571  0.0747 -0.2052 -0.0689
24489W        W37903   3.492  10.867   4.687 -0.0997  0.1361 -0.0776
24490W        W37904  18.387   8.537  11.625 -0.1053  0.2601  0.0966
24491W        W37905   9.924   3.819   4.462  0.3128  0.1784 -0.0579
24492W        W37906   7.708  12.000  11.695  0.0948 -0.1467 -0.0442
24493W        W37907   9.999  16.794  15.580  0.0964  0.2238 -0.2152
24494W        W37908   2.511  16.180  14.474 -0.0405  0.6072 -0.0656
24495W        W37909  16.533  12.583  14.587  0.0737 -0.0135 -0.1033
24496W        W37910  13.370   0.456   3.694  0.0597  0.0839 -0.1574
24497W        W37911   2.029  16.982  14.143 -0.0578 -0.1018 -0.1797
24498W        W37912   0.201   8.793  15.664 -0.2756 -0.1964  0.2580
24499W        W37913   5.946   0.859   0.595 -0.0706  0.0855 -0.0884
24500W        W37914   6.015  11.543   3.144  0.0307  0.0611  0.2639
24501W        W37915  12.812  13.390  16.145  0.0165  0.2193 -0.0827
24502W        W37916  15.693   5.751  13.229 -0.0691  0.0599 -0.0814
24503W        W37917   3.856  17.017  10.205 -0.1185  0.0254 -0.1980
24504W        W37918  12.763   9.660  14.966  0.1002  0.1791 -0.3434
24505W        W37919   8.794  14.584   9.306  0.0945 -0.2552 -0.0365
24506W        W37920  15.257   8.604  15.903 -0.0231 -0.2234 -0.1533
24507W        W37921  16.076  16.213  15.890 -0.1605  0.0586  0.0040
24508W        W37922   9.493  10.610  14.212 -0.2450  0.3437  0.1144
24509W        W37923   4.542   5.286  12.802  0.1669  0.2444 -0.1426
24510W        W37924   7.162  13.583  12.980  0.2833  0.1689  0.0081
24511W        W37925   8.122   4.934  11.443  0.2870  0.2035 -0.1500
24512W        W37926   7.916  17.252  13.060  0.0036  0.3026  0.1545
24513W        W37927   6.391  18.172  10.326 -0.1542 -0.0540  0.0690
24514W        W37928  12.859   6.758   4.095  0.2584 -0.1446  0.4717
24515W        W37929   5.903  17.134   4.787  0.0038 -0.1560 -0.0028
24516W        W37930  13.163   3.558   2.809 -0.1586 -0.0950  0.1250
24517W        W37931  12.873   5.699   0.617 -0.0617  0.1147 -0.1727
24518W        W37932  15.772  18.453  13.381 -0.0826  0.1679 -0.3484
24519W        W37933   0.928   3.192  10.214 -0.1153  0.0344  0.1708
24520W        W37934   2.420  13.867  10.910  0.1169 -0.0593  0.1751
24521W        W37935   9.221   7.679   1.101 -0.0026 -0.1888  0.1758
24522W        W37936  11.733   9.672   2.471  0.0403  0.0299 -0.1004
24523W        W37937   4.165  15.191   4.824  0.2866  0.1254  0.0882
24524W        W37938   5.013   9.781   1.989  0.4227  0.0177 -0.1273
24525W        W37939   7.524   7.330   2.537 -0.3292 -0.0175 -0.1297
24526W        W37940  14.416   2.400   0.239  0.1268  0.1448 -0.2576
24527W        W37941  14.032   8.913  12.328  0.0498 -0.0747  0.0180
24528W        W37942   3.636   1.826  14.582  0.2003 -0.4484  0.1574
24529W        W37943   7.469   9.270  15.910 -0.2405  0.2021 -0.2268
24530W        W37944   5.085   0.129  10.556  0.1429  0.1804  0.0139
24531W        W37945   2.364  12.270   2.800 -0.0548  0.1330 -0.1530
24532W        W37946  10.165   7.393   1.403  0.3393 -0.0433  0.0382
24533W        W37947   4.021  10.647   1.388  0.2258  0.0335 -0.0551
24534W        W37948   5.745  15.593   3.747  0.2405 -0.1728  0.1182
24535W        W37949   2.839  11.634  15.264  0.0402 -0.2202  0.0169
24536W        W37950  16.475  12.654  15.163  0.1500 -0.1659 -0.0321
24537W        W37951   9.957   7.678   1.840 -0.1240  0.1137 -0.0573
24538W        W37952   1.628   7.090   0.657 -0.0038  0.1350  0.2665
24539W        W37953   7.959   4.947  11.976  0.2320 -0.1080 -0.0638
24540W        W37954   1.129  18.296   0.074  0.2929  0.1078 -0.2234
24541W        W37955  18.496  18.000   1.649 -0.1608  0.1576 -0.0478
24542W        W37956  12.555  17.931  13.445  0.0686 -0.0711  0.1714
24543W        W37957   8.272   0.458  13.380  0.0210  0.0764  0.2772
24544W        W37958  10.488   5.513  16.068 -0.1541 -0.1121 -0.3463
24545W        W37959   0.928  14.601   4.482  0.1960  0.0260 -0.0904
24546W        W37960   4.075   4.944   4.209 -0.1207  0.0271  0.0343
24547W        W37961  16.491   0.744   2.509  0.2203 -0.1410 -0.2046
24548W        W37962   6.618  16.703  12.763  0.0806 -0.0470  0.0385
24549W        W37963  18.365   2.800   5.298  0.0385  0.3916 -0.2716
24550W        W37964   4.116   2.217   5.531  0.2272 -0.0595 -0.1330
24551W        W37965   4.097  15.383   3.901  0.2576  0.0181  0.1847
24552W        W37966  11.172   7.000  10.175 -0.0369 -0.0380  0.1152
24553W        W37967  14.829   9.306   1.647 -0.0137  0.2019  0.0617
24554W        W37968   9.285  16.018  12.167 -0.0179  0.3824  0.1439
24555W        W37969   4.885  11.258   4.580  0.0843 -0.1280  0.0321
24556W        W37970   7.818   3.860   2.666 -0.0818  0.1738 -0.3060
24557W        W37971  15.563  12.697   0.037  0.2602 -0.2461 -0.0401
24558W        W37972  13.751   0.150  16.060 -0.0301  0.1695  0.3737
24559W        W37973   7.520   3.411  11.265 -0.2089 -0.0066 -0.2521
24560W        W37974   6.072   1.502  12.066  0.1467  0.0745  0.2317
24561W        W37975   8.407  17.683   0.269 -0.0777  0.1994 -0.0497
24562W        W37976   3.798   6.907   0.682  0.1889  0.1609  0.0607
24563W        W37977  14.241   1.920  13.670  0.0426 -0.0265 -0.1724
24564W        W37978   9.820  12.085   2.614  0.0278  0.1918  0.0012
24565W        W37979   9.614  11.161  14.211  0.2389 -0.3669 -0.1768
24566W        W37980  11.656  16.125  11.753  0.0427  0.1512 -0.1493
24567W        W37981   6.370  12.234  13.510  0.1505  0.1236  0.2455
24568W        W37982  13.175   3.721  14.865 -0.0160 -0.1714 -0.0205
24569W        W37983  10.918  13.750   3.502  0.2803 -0.0027  0.1050
24570W        W37984   8.338   4.718  10.177 -0.0726 -0.1139 -0.1950
24571W        W37985   7.937  14.403   5.069 -0.1816  0.0308 -0.0311
24572W        W37986   2.144   6.169   1.392 -0.3208 -0.1888  0.0447
24573W        W37987  17.454  10.677   3.047  0.2483  0.0044 -0.2686
24574W        W37988   0.924  13.605   1.764 -0.1659 -0.1601 -0.2222
24575W        W37989  12.317  15.433  12.864  0.1263  0.0791  0.1445
24576W        W37990  14.163   7.005  12.025  0.2325 -0.1329  0.0079
24577W        W37991  15.533  14.970   4.608  0.0598 -0.3392  0.1860
24578W        W37992   4.608   7.845  14.092  0.2458  0.0498 -0.0770
24579W        W37993   8.283   5.949   1.791 -0.1736 -0.0683 -0.0471
24580W        W37994   5.417  11.647  12.843 -0.0356 -0.0348 -0.1082
24581W        W37995  12.476   2.546   0.058 -0.0149  0.5028 -0.1515
24582W        W37996   3.721   5.433  14.753 -0.1418  0.1688  0.2456
24583W        W37997  16.865   2.323   5.558  0.3524  0.0890  0.2181
24584W        W37998  10.068   4.819   2.162 -0.1094  0.4072 -0.0313
24585W        W37999  10.919  13.141  13.545 -0.0324  0.2801  0.0910
24586W        W38000   2.329   4.633   3.021  0.2688 -0.1553 -0.0524
24587W        W38001  14.466   6.319  14.339 -0.1419 -0.0560  0.2500
24588W        W38002  14.307   6.212   2.355  0.0177 -0.3179 -0.1219
24589W        W38003   0.487   2.916  12.316  0.1691 -0.2197 -0.0450
24590W        W38004  13.465  14.705  10.990 -0.1565 -0.1874 -0.0057
24591W        W38005  17.730   2.703  12.082 -0.0760 -0.0113  0.1212
24592W        W38006   7.672  15.763  10.256  0.0301  0.2240  0.0002
24593W        W38007   2.493  14.740  15.740  0.2555 -0.4403 -0.0827
24594W        W38008   6.041  16.137  11.324  0.1141 -0.0381 -0.1144
24595W        W38009   3.308   0.664  16.194  0.2141  0.2376  0.2477
24596W        W38010  13.104  17.970   1.327  0.1509  0.2131  0.0601
24597W        W38011   7.426   6.838   4.907 -0.2599  0.1359 -0.0197
24598W        W38012   1.089  12.100  14.158  0.0052 -0.5048 -0.0308
24599W        W38013   3.885  15.967   9.958  0.1268 -0.4526  0.2933
24600W        W38014  15.792  14.714  14.041  0.1669  0.3503 -0.1672
24601W        W38015   3.112   2.402  13.486 -0.2863  0.3356 -0.0864
24602W        W38016   4.553  16.550  16.007 -0.1816  0.0672  0.0336
24603W        W38017  15.639   0.919   4.138  0.3482  0.1936  0.1962
24604W        W38018  14.619   6.507   0.009  0.1270  0.0639 -0.2133
24605W        W38019   1.408   9.303   5.442 -0.0188 -0.2325  0.4508
24606W        W38020  17.876  10.352   3.055 -0.2022 -0.1982 -0.0210
24607W        W38021   8.114   4.878   1.744  0.1470 -0.0399 -0.0361
24608W        W38022  12.475   9.704   0.770  0.0860 -0.1425  0.0513
24609W        W38023   0.521  12.891   2.874  0.1811  0.4035  0.0480
24610W        W38024   0.089   9.589   5.104 -0.0139 -0.2516  0.3135
24611W        W38025  10.209   5.737  15.187  0.2632 -0.0933 -0.0468
24612W        W38026  11.218   9.718  15.188 -0.1137  0.2733 -0.2088
24613W        W38027   3.149   8.494  11.819 -0.0841  0.0844 -0.0106
24614W        W38028  13.095   1.539   4.141  0.3078 -0.0180  0.3075
24615W        W38029  13.811   8.652  11.531 -0.0859 -0.0444 -0.0389
24616W        W38030  15.007   8.925   0.966  0.0951  0.2050 -0.2100
24617W        W38031   9.112   1.671  14.393  0.1223  0.4632 -0.0794
24618W        W38032   4.886   2.055   3.754  0.3086 -0.1337 -0.0730
24619W        W38033  17.599  11.967  12.444  0.1530 -0.0544 -0.2444
24620W        W38034   9.347   3.030   3.421 -0.0331  0.2381  0.1281
24621W        W38035  14.286   6.978   2.136  0.0131 -0.2608  0.2349
24622W        W38036  13.179  17.559  11.067 -0.1867  0.1454  0.2173
24623W        W38037  15.875   4.805  14.283  0.0024  0.3924  0.1771
24624W        W38038  14.185   6.351   1.259 -0.2990 -0.0594 -0.1060
24625W        W38039  10.469  17.189   3.595 -0.1044 -0.1630 -0.2416
24626W        W38040  10.505   5.676   5.689 -0.1490 -0.0281  0.1447
24627W        W38041  18.420   0.916  15.131  0.0034  0.1563 -0.2283
24628W        W38042  11.567   9.896   1.849 -0.0177  0.1390 -0.1768
24629W        W38043  13.481  18.115  12.917 -0.0421 -0.2308  0.0249
24630W        W38044  14.675   3.930  10.713 -0.0578  0.3480 -0.1186
24631W        W38045   0.083   7.506   5.254  0.0589  0.0230 -0.1029
24632W        W38046   9.359  18.290   5.155 -0.0023  0.1608 -0.0066
24633W        W38047   5.801   7.782  15.589  0.1500 -0.0367 -0.3281
24634W        W38048   7.094  18.179   4.370 -0.2665 -0.2415 -0.1437
24635W        W38049   0.617  10.507   3.172  0.3140 -0.3189 -0.2443
24636W        W38050  11.027   6.479  11.502 -0.2813  0.0249 -0.1488
24637W        W38051  11.062  13.554  13.852 -0.1712 -0.2312  0.0994
24638W        W38052   0.176   1.870   5.413  0.0752 -0.1242 -0.0577
24639W        W38053   7.747  12.058   1.581  0.0031  0.0643 -0.1583
24640W        W38054   9.147   9.375   3.627 -0.0796  0.0850 -0.1737
24641W        W38055  13.901  11.531   3.075 -0.0650  0.0385  0.0769
24642W        W38056   7.689   8.499  11.020 -0.1892  0.2132 -0.0158
24643W        W38057  17.991   8.633  11.390 -0.1994  0.3672  0.1145
24644W        W38058  14.627   8.926  16.003 -0.0979  0.1049  0.0498
24645W        W38059   2.737   3.528  12.309  0.1387 -0.2462  0.1855
24646W        W38060   8.972   1.215   0.499  0.0476 -0.2570 -0.1536
24647W        W38061  16.070  15.053  10.641 -0.0529 -0.0653  0.0474
24648W        W38062  17.266  12.726  13.825 -0.1892 -0.2019 -0.0580
24649W        W38063   7.356  14.248  15.864 -0.3640  0.0889  0.2993
24650W        W38064  10.823  15.620  10.654 -0.1347  0.0129 -0.0162
24651W        W38065   6.647  11.080  14.784  0.0492  0.0217  0.1338
24652W        W38066  11.178  10.398   3.388  0.0537  0.2345  0.1455
24653W        W38067   4.868   0.115  14.100  0.1448 -0.0826  0.2537
24654W        W38068  17.824  15.279  14.178  0.5187  0.3921 -0.0414
24655W        W38069   9.207   4.434  14.141  0.1600  0.2757 -0.2118
24656W        W38070   8.389   6.781  12.759 -0.1504 -0.1577 -0.0711
24657W        W38071  10.719  11.251  15.332 -0.0248  0.0080  0.0424
24658W        W38072   7.146   4.536  10.203  0.1668 -0.1530 -0.3926
24659W        W38073  11.408  14.951   4.081  0.2075 -0.0044 -0.4655
24660W        W38074   0.551   7.290   2.628 -0.0642  0.1124 -0.0320
24661W        W38075  11.529  14.615  10.147 -0.1104  0.3749 -0.1657
24662W        W38076   5.931   5.961  14.269  0.0115 -0.2162 -0.1973
24663W        W38077   5.799  15.525   5.045 -0.4582 -0.0660  0.0221
24664W        W38078   6.781   0.492  15.745 -0.0190 -0.0723 -0.3076
24665W        W38079   6.261  12.889  11.031  0.0995 -0.1890  0.1208
24666W        W38080  17.576  10.659   4.946 -0.3917  0.1753  0.1483
24667W        W38081  10.472   8.276  14.401 -0.2395  0.1065  0.1216
24668W        W38082   5.428   4.362   6.226  0.1331  0.2294 -0.2025
24669W        W38083  12.696   5.339   4.523 -0.1943 -0.0042  0.2626
24670W        W38084   3.495  15.523  10.217  0.0489 -0.4143  0.0123
24671W        W38085   6.601  10.341  12.391  0.1988 -0.2927 -0.1241
24672W        W38086   4.774  10.421  12.530 -0.0285  0.0184  0.1604
24673W        W38087  17.956   8.246  13.316 -0.0150  0.2266  0.0317
24674W        W38088   5.348  10.429  13.752  0.3839  0.3371  0.0427
24675W        W38089   4.336  10.771  10.378 -0.0648  0.0240 -0.2679
24676W        W38090  14.378   9.345   1.858 -0.2736  0.1452  0.2794
24677W        W38091  11.536   2.149  13.361 -0.1559  0.1838 -0.0932
24678W        W38092  14.841   7.587  14.966  0.0129 -0.1599 -0.1424
24679W        W38093  16.277  14.767  12.279  0.2620  0.0162  0.3646
24680W        W38094  17.867  15.139   4.023  0.0017  0.0676  0.0391
24681W        W38095  15.539  16.893  11.597  0.2078 -0.0097 -0.0975
24682W        W38096   0.900  11.154  11.958  0.0054 -0.1242  0.0467
24683W        W38097   3.105   3.061  13.404 -0.1571 -0.0729 -0.0379
24684W        W38098   5.860   5.632  10.735 -0.1611 -0.3171 -0.3235
24685W        W38099   6.237   5.034  10.277 -0.0268  0.0957  0.0656
24686W        W38100  13.919   3.066  13.452  0.3623  0.0453  0.1928
24687W        W38101  11.007   3.515  11.209 -0.0662 -0.1391  0.1843
24688W        W38102  12.157  12.567   2.220  0.2359  0.2724 -0.1515
24689W        W38103   6.684  18.429  15.458 -0.1882  0.0129  0.0165
24690W        W38104   6.309  17.438   1.498  0.0432  0.0392 -0.2380
24691W        W38105   2.888  12.926   3.266 -0.2021 -0.1397 -0.2238
24692W        W38106   6.908  11.582  10.463 -0.2143  0.1443  0.1900
24693W        W38107  15.367   2.094  13.692 -0.0378  0.4700 -0.0834
24694W        W38108   0.499   1.735   0.791 -0.2424  0.0853 -0.4769
24695W        W38109  13.221  16.751   3.079 -0.1659 -0.1081 -0.0733
24696W        W38110   8.935  12.298   5.263  0.1957  0.1000  0.0978
24697W        W38111   7.009  15.772   0.995 -0.3097  0.0368 -0.1702
24698W        W38112  12.615   4.800  15.420 -0.1237  0.0555  0.1175
24699W        W38113   9.399  15.841  11.701  0.1640  0.0601  0.0309
24700W        W38114  13.649   7.586   4.991 -0.2370 -0.1664 -0.0798
24701W        W38115   3.409   8.310   3.123 -0.2159  0.3170 -0.3343
24702W        W38116  13.669  16.980   2.999  0.1250  0.1388 -0.0793
24703W        W38117  12.797   5.342  11.865 -0.0870  0.0716 -0.3130
24704W        W38118  10.236  13.061  11.081  0.1703 -0.1648  0.2152
24705W        W38119   9.141   6.147  14.699 -0.3552  0.1881  0.2010
24706W        W38120  13.359   5.735  12.292 -0.0273  0.0464 -0.0177
24707W        W38121  15.762   1.453   3.392  0.3015  0.3344 -0.1863
24708W        W38122  18.109   3.060   1.483  0.0129  0.0665 -0.0853
24709W        W38123   3.317   6.254   1.132 -0.0069 -0.1399 -0.3199
24710W        W38124   8.154  14.515  14.792  0.2802 -0.2598 -0.0795
24711W        W38125   4.481  12.984   3.258  0.1188 -0.0574 -0.0357
24712W        W38126  12.156   8.876   4.459 -0.0779 -0.0246  0.1248
24713W        W38127   9.213   9.035  11.614  0.2199  0.0051  0.1494
24714W        W38128  14.068   3.398   4.333 -0.2560 -0.0878 -0.4768
24715W        W38129  16.528  16.703   2.270 -0.2085 -0.2633 -0.3494
24716W        W38130  11.950  11.844  15.317  0.2216  0.0240  0.0560
24717W        W38131  12.951  17.822   6.417  0.2499  0.0688 -0.1348
24718W        W38132   8.129  16.667   2.195 -0.1505 -0.2191  0.1965
24719W        W38133  15.178  16.856   4.952 -0.2795  0.0624 -0.1330
24720W        W38134   0.285  15.992   4.229  0.0833 -0.0396  0.2139
24721W        W38135   0.398   7.801  14.211 -0.0247  0.1860  0.0315
24722W        W38136   6.105  13.860   5.722 -0.0682  0.1742 -0.0179
24723W        W38137   0.263   1.759   4.355 -0.1046 -0.1836  0.0363
24724W        W38138  10.602   5.977  11.036  0.3905  0.2104  0.0997
24725W        W38139  16.854   0.754  14.985  0.1656  0.0285 -0.2109
24726W        W38140  11.893   4.057  15.860 -0.1334 -0.0047  0.0478
24727W        W38141   9.130   3.685  12.269 -0.0725 -0.0420  0.0419
24728W        W38142   5.940   4.565  13.301 -0.1398 -0.1195  0.3033
24729W        W38143  10.192  14.877   0.947 -0.1744  0.1081  0.0151
24730W        W38144  17.619  17.284   0.044  0.4215  0.2143 -0.3773
24731W        W38145   4.984   4.951   1.789  0.2240  0.1153  0.4209
24732W        W38146  15.052   8.164   5.092 -0.1939 -0.1531 -0.0076
24733W        W38147  15.406   6.786  11.446 -0.2302 -0.3947 -0.0030
24734W        W38148   1.826  13.953   0.268  0.1344 -0.3429 -0.0342
24735W        W38149  14.005   8.083  12.006  0.2077  0.2854 -0.2839
24736W        W38150  12.954   4.919  16.258  0.3038  0.1610 -0.5328
24737W        W38151   8.888   0.236  12.377 -0.1893 -0.2496  0.2495
24738W        W38152   6.973  11.453   3.502  0.1425  0.1469  0.0062
24739W        W38153   3.823   4.392   1.022 -0.1320  0.0812 -0.0388
24740W        W38154   9.461   5.566   5.146 -0.1543  0.0655  0.0831
24741W        W38155   0.572  12.940   1.380 -0.0942 -0.2422 -0.0654
24742W        W38156  13.340  15.185   0.709  0.1697 -0.2356 -0.3092
24743W        W38157   1.815   8.642   1.159 -0.0341  0.0308 -0.0529
24744W        W38158  13.367   9.500   5.487  0.2588 -0.1727  0.0584
24745W        W38159  14.223   8.394   1.730 -0.1470 -0.4340 -0.0408
24746W        W38160   7.301   6.272  14.093  0.1356  0.2694 -0.0853
24747W        W38161   7.421   4.451  15.653 -0.0032 -0.1582 -0.0716
24748W        W38162   1.245  17.269   4.752 -0.1192 -0.0102 -0.5247
24749W        W38163   7.129  17.907  10.488  0.0486  0.0945  0.3605
24750W        W38164   0.199   4.736   2.890  0.1633  0.1511 -0.0098
24751W        W38165  17.130  12.021   0.890  0.0116  0.0129  0.0190
24752W        W38166   9.517   6.484   3.644 -0.0753 -0.2480  0.4841
24753W        W38167   2.890  16.268   3.462 -0.0584 -0.5523 -0.0922
24754W        W38168  14.141  16.122   3.647 -0.0166  0.3122 -0.4388
24755W        W38169   7.022   1.686  14.926 -0.0671 -0.2233  0.2934
24756W        W38170  15.927  11.903  12.345 -0.0731  0.1503 -0.0373
24757W        W38171  15.713   2.962   5.232  0.1887 -0.1899  0.2267
24758W        W38172   5.807   7.599   0.182 -0.1127  0.0098  0.0928
24759W        W38173   9.349   9.220   3.222  0.0243  0.0797 -0.0935
24760W        W38174   6.471   3.396   4.152  0.0128 -0.4737 -0.1780
24761W        W38175  15.362   8.414   5.818  0.1577  0.0941  0.0012
24762W        W38176   9.096   3.612   0.914 -0.1374 -0.3375 -0.1608
24763W        W38177  16.322   6.012   1.866 -0.1591  0.3950  0.0973
24764W        W38178   6.228   5.820  13.226  0.1843  0.3662  0.2415
24765W        W38179  15.598   1.425  10.438 -0.0324  0.1071  0.1144
24766W        W38180  12.058   1.083  11.223  0.2264  0.0943 -0.1670
24767W        W38181   8.646   2.493   4.616 -0.0348  0.0490 -0.1734
24768W        W38182   7.256   1.264  13.177  0.0397 -0.0301 -0.2422
24769W        W38183  17.587  15.662   5.015  0.1332  0.0202 -0.0322
24770W        W38184  18.249  17.341  14.558  0.2309  0.4057  0.0594
24771W        W38185   7.907   9.751   1.294 -0.2031 -0.3360  0.0730
24772W        W38186  17.932   4.365   1.192  0.1284  0.0534 -0.0221
24773W        W38187   2.843   1.310  14.740 -0.2319  0.0714 -0.0648
24774W        W38188   8.217   4.333  13.240  0.0452  0.1706  0.3014
24775W        W38189  13.793   8.658   2.740  0.0722  0.2532  0.0502
24776W        W38190   5.717  16.455   0.608 -0.0104  0.1977 -0.1422
24777W        W38191   2.280   3.680  12.547 -0.1935 -0.1078 -0.1816
24778W        W38192   2.691   5.818  11.652 -0.1611 -0.1318  0.0493
24779W        W38193  14.990   3.445  15.160 -0.2396  0.0571  0.0864
24780W        W38194   0.196  18.172   3.119  0.2939  0.1253  0.3370
24781W        W38195  16.388  11.185   3.965  0.5568  0.1363 -0.2792
24782W        W38196   9.373  10.069  10.316  0.3859  0.3969  0.0539
24783W        W38197  15.341  10.012   4.033  0.1909  0.1810  0.3687
24784W        W38198   7.013  11.314  12.838  0.0568 -0.2953  0.0174
24785W        W38199   1.758   0.941  13.788 -0.3332  0.1301  0.1789
24786W        W38200  16.536  12.314   5.431 -0.1115 -0.0579  0.0779
24787W        W38201  15.517  13.092   4.769 -0.0901  0.2613 -0.0423
24788W        W38202   4.384   6.985  13.828  0.0633  0.1507 -0.3112
24789W        W38203   9.102  15.364   5.869 -0.1173 -0.2976 -0.0948
24790W        W38204  10.888   5.443   2.492 -0.2040 -0.1984 -0.2097
24791W        W38205  12.321  15.871   0.867  0.1971  0.1519 -0.3943
24792W        W38206   9.630   5.929  11.292  0.1188  0.2412 -0.3474
24793W        W38207  14.218   6.724   3.488  0.2695 -0.1386 -0.1763
24794W        W38208  17.409  14.259  12.364  0.1814 -0.1677 -0.1857
24795W        W38209   5.470  11.865  13.920  0.1483  0.2002  0.0712
24796W        W38210   3.640  11.875  15.022 -0.1606  0.0761  0.2239
24797W        W38211   0.641  11.068  15.614  0.3419  0.1212  0.0116
24798W        W38212   3.060   5.522   4.227 -0.0305 -0.0884  0.0495
24799W        W38213   4.016   2.262   3.497 -0.0777  0.0706 -0.1361
24800W        W38214  13.476  10.772   3.419  0.2511  0.2519 -0.1363
24801W        W38215   6.728  12.004   1.137  0.0182 -0.0234 -0.3297
24802W        W38216  18.413   9.528  14.354  0.1581  0.2618  0.1745
24803W        W38217  11.338  11.278   1.549 -0.1591 -0.1242 -0.0591
24804W        W38218   9.581   9.189   0.894  0.3101 -0.0035  0.1132
24805W        W38219   8.448  10.589  10.380  0.1722 -0.0936  0.2032
24806W        W38220   7.497   1.503  15.110 -0.1661  0.0802  0.0362
24807W        W38221   1.219   8.386  14.134 -0.3989 -0.0582  0.1849
24808W        W38222   3.261   2.371   1.735  0.2359  0.3237 -0.3069
24809W        W38223   3.918  17.855   1.768  0.0654  0.0824 -0.1082
24810W        W38224  10.917  15.934  14.777  0.0161  0.0437 -0.1585
24811W        W38225  12.370   3.660  14.443 -0.0530 -0.0927 -0.0756
24812W        W38226  17.130   5.360  11.241  0.0121  0.0846  0.1037
24813W        W38227  17.043   2.247  16.063 -0.1120  0.1828  0.3437
24814W        W38228  14.897   6.058  11.582 -0.1908  0.0475  0.3034
24815W        W38229   3.827   9.649   2.794  0.2779  0.2139 -0.1240
24816W        W38230  17.351   6.481   5.417  0.1415  0.1483 -0.0529
24817W        W38231  14.413  14.616   2.528  0.0105  0.2219  0.0736
24818W        W38232   8.944   5.323  10.378 -0.1169  0.2179 -0.4051
24819W        W38233  17.950  12.398   3.248 -0.1622 -0.0601 -0.4177
24820W        W38234   4.184   4.559  13.558  0.1432 -0.0886 -0.2020
24821W        W38235  14.699   6.176  13.841 -0.3758  0.0612  0.1138
24822W        W38236   5.961  18.387   4.798 -0.0030  0.2118 -0.0701
24823W        W38237  13.292  13.391   4.888  0.4259  0.1543 -0.0534
24824W        W38238   9.754  15.216  15.244 -0.2495  0.2462 -0.1617
24825W        W38239  11.750  15.640   0.135  0.1827  0.0486 -0.0948
24826W        W38240   0.755  17.252   0.750 -0.0235 -0.0576  0.2330
24827W        W38241   1.131  13.314   0.725  0.2432  0.0011  0.1087
24828W        W38242   1.189   7.657  13.776  0.5593 -0.2667  0.1839
24829W        W38243  14.139  14.877   2.217  0.1918  0.0275 -0.0688
24830W        W38244   9.781  11.975  10.626  0.0395  0.1065  0.2606
24831W        W38245   3.010   2.704  13.080 -0.0889  0.0179  0.0319
24832W        W38246  13.480  12.606   0.786 -0.1188 -0.2117 -0.4592
24833W        W38247   2.880  16.137   1.120  0.2071 -0.0588 -0.2234
24834W        W38248   8.042  15.251   4.416  0.0079  0.0198 -0.0774
24835W        W38249   0.599   3.966  11.686 -0.0387 -0.0253  0.0076
24836W        W38250   6.514  14.863  14.684  0.0753  0.1549  0.0426
24837W        W38251   6.234   7.965  14.630  0.2852  0.1861 -0.1646
24838W        W38252   6.013   2.785  13.156  0.0816 -0.0190 -0.1982
24839W        W38253  13.502   3.908  13.221 -0.1617  0.1203  0.2086
24840W        W38254  11.709   2.977  11.088  0.0734  0.1734  0.0185
24841W        W38255  13.777   7.603  12.019  0.0919  0.2147 -0.2998
24842W        W38256   6.538  15.516   9.948 -0.3422  0.0226  0.3247
24843W        W38257  11.968  15.698  11.796 -0.0656 -0.2107 -0.1739
24844W        W38258   8.413   8.749   1.705 -0.4345  0.2289 -0.0282
24845W        W38259   8.561  18.517  15.311 -0.0302 -0.2151 -0.2495
24846W        W38260   6.009   2.868  13.935  0.1451  0.0845 -0.2762
24847W        W38261   1.310  11.771   0.015  0.1525  0.0993  0.0282
24848W        W38262  17.463   1.135  11.790  0.2218  0.3371 -0.0638
24849W        W38263   6.421   8.222   3.539 -0.0525  0.0548 -0.4309
24850W        W38264  14.732  11.640   0.240  0.0107  0.0951 -0.2188
24851W        W38265  11.563   0.757  15.503  0.2205 -0.0265  0.2098
24852W        W38266  16.689   6.058   3.333  0.2791  0.0210  0.2582
24853W        W38267  15.575   4.345  10.953 -0.0227  0.2945 -0.1743
24854W        W38268   9.350  17.444   1.760  0.1019  0.1485  0.0218
24855W        W38269   2.263   4.950   5.373 -0.0510 -0.1448  0.1366
24856W        W38270   0.026   5.369   0.640  0.1515 -0.0420 -0.1390
24857W        W38271  16.011  10.395   2.570 -0.1971 -0.1981  0.0502
24858W        W38272   8.506   9.239  11.340  0.1082 -0.1537 -0.0965
24859W        W38273  12.750  12.820   1.529 -0.0932  0.1261  0.0179
24860W        W38274  13.253   6.917   5.750  0.0748 -0.0786  0.1430
24861W        W38275  17.442  10.501  16.032  0.0894 -0.1728 -0.0721
24862W        W38276   4.180  16.440  15.713 -0.1964 -0.2516  0.0603
24863W        W38277  16.163   3.871   5.365 -0.0200  0.2720 -0.0173
24864W        W38278   5.849   8.053  13.390  0.0949 -0.0408  0.1288
24865W        W38279  18.274  18.302   0.241 -0.2488 -0.2578 -0.3015
24866W        W38280   1.021  16.790   4.578  0.1344  0.1394  0.0627
24867W        W38281   8.549   8.622   5.851  0.0351 -0.1498 -0.0929
24868W        W38282   5.842   3.570  13.674 -0.1976 -0.0779  0.1845
24869W        W38283   9.831   8.567   5.933  0.0093  0.1136  0.1947
24870W        W38284   7.138  10.486   4.414  0.1576  0.1351 -0.2889
24871W        W38285  10.332  15.064   4.572 -0.1708  0.2127 -0.1146
24872W        W38286  17.536  11.366   4.479  0.2146  0.1403 -0.1537
24873W        W38287   5.503   0.640  15.735 -0.0362 -0.1148  0.0330
24874W        W38288  17.777  11.644   5.304 -0.2355 -0.1886  0.2509
24875W        W38289  13.045   7.300   4.377 -0.0206  0.1714  0.1159
24876W        W38290   8.799   3.980   1.113  0.2867 -0.0325 -0.3289
24877W        W38291  17.597   3.394  14.644 -0.2535  0.1908 -0.2457
24878W        W38292  12.770   2.696   3.575 -0.0638 -0.0291 -0.0580
24879W        W38293  18.377  11.946  12.077 -0.2415  0.1510  0.1284
24880W        W38294   7.750   0.601  13.377 -0.2168 -0.1065  0.4392
24881W        W38295   9.286   5.053  13.161 -0.2321 -0.6619  0.0063
24882W        W38296   4.192   7.397  11.425 -0.0319 -0.1795  0.2964
24883W        W38297   6.214   5.554  11.113 -0.1705  0.0028  0.0373
24884W        W38298   7.467  16.560  11.470 -0.0294  0.0651 -0.0392
24885W        W38299  10.564  12.091  10.460  0.0651 -0.1561 -0.2629
24886W        W38300   5.392  12.141  12.465  0.3085  0.2157 -0.0607
24887W        W38301  18.236   9.546   0.468 -0.1592 -0.0260  0.0281
24888W        W38302   9.382  10.071  14.342  0.0267 -0.0246 -0.0046
24889W        W38303  13.296   8.303  15.519  0.2484 -0.1352  0.0376
24890W        W38304   4.780   9.840  10.230 -0.0923 -0.4023 -0.2278
24891W        W38305   4.665   1.313   2.018 -0.0456  0.1052  0.0262
24892W        W38306   0.030  10.012   5.480 -0.2449 -0.0739 -0.0555
24893W        W38307  15.553  13.889   2.402  0.0896  0.0850 -0.1418
24894W        W38308  13.882  17.962   0.920  0.0800  0.2260 -0.1100
24895W        W38309   6.886   5.551  14.530  0.1782  0.1620 -0.0449
24896W        W38310   6.533   0.344   4.623  0.1259 -0.0256 -0.0756
24897W        W38311   8.428   1.091   1.857 -0.0336 -0.2079  0.3788
24898W        W38312   8.164  16.631   3.369 -0.0383  0.6432 -0.0215
24899W        W38313   6.881   9.023  10.920 -0.2949  0.0277 -0.2314
24900W        W38314   7.941   2.867   4.993  0.0897 -0.1168 -0.1331
24901W        W38315   7.858   7.986   2.097 -0.3281  0.0289 -0.1716
24902W        W38316   9.319  18.012   0.612 -0.0513 -0.0630  0.1338
24903W        W38317   4.142   9.316  13.771 -0.0721 -0.0254 -0.1460
24904W        W38318   5.016   9.206  14.907 -0.1031 -0.0145  0.2081
24905W        W38319  13.089   2.576   3.948  0.1952  0.0438  0.1244
24906W        W38320   3.630  16.956   3.814 -0.1266 -0.3374  0.0637
24907W        W38321   4.304  13.093   0.728  0.0668 -0.1402 -0.1676
24908W        W38322  18.191  15.504  10.107 -0.1218  0.0287  0.1209
24909W        W38323  16.925  13.476  12.913 -0.1993 -0.1964 -0.1984
24910W        W38324   8.798   9.267   3.125  0.1391 -0.0681  0.0135
24911W        W38325   1.406  18.250  12.492  0.1612  0.1194  0.2063
24912W        W38326   2.183   3.020  15.288 -0.0959 -0.2328 -0.2330
24913W        W38327  11.812  12.628   4.165 -0.3426  0.0424 -0.2466
24914W        W38328   7.764   4.053  14.021 -0.1572 -0.1066  0.2949
24915W        W38329   4.760  17.183   4.516 -0.2001  0.1903 -0.0886
24916W        W38330  16.247  10.315  10.700 -0.1635  0.2109  0.2641
24917W        W38331  13.232  12.056   3.816 -0.1611 -0.3772 -0.0201
24918W        W38332   7.867   4.958   1.229  0.2208 -0.0616  0.1252
24919W        W38333   0.390   6.637   4.111 -0.2971  0.3096  0.0884
24920W        W38334  12.489  15.633   4.462  0.2908 -0.1881  0.0675
24921W        W38335   0.618   5.870   4.637 -0.1430  0.2252 -0.1991
24922W        W38336  16.646  16.286   0.812  0.0628 -0.1425 -0.1079
24923W        W38337  16.931   0.021   3.536  0.1136 -0.0753 -0.0662
24924W        W38338  13.396   2.999  11.065 -0.2774  0.0071 -0.0838
24925W        W38339   9.674  14.356  15.038  0.0763 -0.0757 -0.1885
24926W        W38340   7.291   4.938  14.894 -0.3325 -0.3538 -0.1946
24927W        W38341  12.562  17.617   0.435 -0.0633  0.1406  0.1259
24928W        W38342   1.341   9.705   1.917  0.0581 -0.1842 -0.2922
24929W        W38343  11.442   0.410   4.094  0.2811  0.3154  0.1457
24930W        W38344   0.249  10.702  11.722  0.1414  0.1007 -0.3340
24931W        W38345  11.921   5.164  15.935  0.0568 -0.0507 -0.1406
24932W        W38346   2.085   9.850  10.847  0.0964 -0.0469  0.0504
24933W        W38347   8.564   8.922  13.348 -0.0950  0.0173 -0.0417
24934W        W38348  10.420  12.504  10.979 -0.1000 -0.1128 -0.0243
24935W        W38349   6.862   6.932   4.745 -0.0665  0.1467 -0.2388
24936W        W38350   0.434   0.904   3.588  0.1973  0.1038 -0.2878
24937W        W38351   1.458  15.464  14.610 -0.1977 -0.2812 -0.0199
24938W        W38352   5.769  17.160  11.192  0.2319 -0.0534  0.1304
24939W        W38353  10.487  17.544   5.895  0.0816  0.0077 -0.1303
24940W        W38354   0.424   9.689  12.007  0.0348 -0.3621  0.1255
24941W        W38355   1.826   7.322  11.605 -0.2752  0.1517  0.2658
24942W        W38356   8.612   8.632   6.338  0.3681 -0.0568 -0.0464
24943W        W38357  15.617  11.480  13.623 -0.2907 -0.2698  0.1363
24944W        W38358   2.164  16.314  12.147  0.2343  0.0409 -0.4065
24945W        W38359  12.356   6.124   3.417  0.0420  0.2769 -0.1332
24946W        W38360   9.680   5.274   4.238  0.2433  0.2271  0.1440
24947W        W38361  17.435  10.256   2.757 -0.1505 -0.2703 -0.2062
24948W        W38362  17.485  11.589  14.821 -0.2313 -0.1048  0.4173
24949W        W38363   8.869  10.016   0.901 -0.0867 -0.1718 -0.0932
24950W        W38364   5.713  14.803   1.031 -0.1643  0.0577 -0.1096
24951W        W38365   2.896  17.090   0.969 -0.0270 -0.1894 -0.0135
24952W        W38366   0.485  16.729   0.047  0.2931 -0.0296  0.1126
24953W        W38367  10.159  13.535  11.164  0.0149 -0.1068 -0.0930
24954W        W38368  10.983  14.163  13.187 -0.0680  0.0998 -0.0178
24955W        W38369   4.870   4.718   2.923 -0.1253  0.2721 -0.1578
24956W        W38370  15.704  15.730   5.442  0.2955  0.0242  0.0835
24957W        W38371  14.145  14.207  13.512 -0.0399 -0.1964  0.0861
24958W        W38372   2.238   7.273  14.967  0.0122  0.0392  0.3888
24959W        W38373   9.891  11.255  15.687  0.1261 -0.2336 -0.0643
24960W        W38374  10.809  16.354  14.427  0.1798 -0.1742  0.0948
24961W        W38375  14.638   3.938   1.642  0.1119  0.2737  0.2695
24962W        W38376  16.404   7.854   3.397 -0.0982 -0.2109  0.0859
24963W        W38377   7.894  11.376   0.273  0.1821  0.0683  0.2812
24964W        W38378  17.842   4.942  13.343  0.0234 -0.0781 -0.0311
24965W        W38379  11.094  13.435   2.035  0.3169 -0.0134 -0.0868
24966W        W38380   6.379   2.466   4.077 -0.1823 -0.3744 -0.0607
24967W        W38381  15.657   3.775   1.931 -0.2336 -0.1773  0.3621
24968W        W38382  10.562   8.747   3.770 -0.0245  0.0473  0.1702
24969W        W38383  13.455   6.615  12.874  0.1181  0.2769  0.0971
24970W        W38384  10.060   9.341   1.673 -0.0805  0.2235  0.0713
24971W        W38385   0.877   5.369  16.255  0.0120  0.1577  0.0387
24972W        W38386   8.974   9.302  12.278 -0.0940  0.0262  0.0929
24973W        W38387  14.849  15.961  11.345  0.3141  0.7435  0.1204
24974W        W38388   3.259  15.825   0.396  0.1030 -0.3217  0.1916
24975W        W38389  18.356  13.137   3.457  0.2622 -0.2018  0.1754
24976W        W38390  16.408  13.262  15.248  0.1849 -0.1073 -0.2497
24977W        W38391  16.899  16.004  12.935 -0.2069  0.2398  0.3460
24978W        W38392  18.194  13.312   0.382  0.2134  0.2909 -0.2097
24979W        W38393   8.559   0.103  14.182 -0.1184 -0.3861 -0.2153
24980W        W38394  14.293   5.948   3.716 -0.2398  0.0819 -0.5483
24981W        W38395  10.053   9.267   0.803  0.1436 -0.2803 -0.0893
24982W        W38396   8.717  16.887  13.631  0.1252  0.1045 -0.2945
24983W        W38397   6.994   8.970  12.497 -0.1108  0.0267  0.0191
24984W        W38398   6.557  16.859   2.350 -0.0582  0.2167 -0.2354
24985W        W38399   3.712   4.834  14.689  0.0042 -0.0011 -0.0813
24986W        W38400  16.889  15.078  14.190 -0.1109 -0.0535 -0.0080
24987W        W38401   3.304   3.216  15.314  0.2769 -0.2978 -0.1196
24988W        W38402  13.347  13.228   4.160  0.1607  0.0169 -0.0057
24989W        W38403   4.307  13.096   2.273  0.0652 -0.2315  0.1486
24990W        W38404   5.293   4.249  11.112  0.0521  0.1906 -0.0766
24991W        W38405  14.719   7.885  11.078 -0.5113  0.1337  0.2901
24992W        W38406   5.656   5.787  13.882  0.2862  0.3058  0.4525
24993W        W38407   1.958   7.645  11.274  0.2656 -0.0791 -0.1085
24994W        W38408   7.362   9.397   1.386  0.1888 -0.3775 -0.2083
24995W        W38409  18.487  15.522  14.912  0.1376 -0.1510 -0.4369
24996W        W38410  13.386   4.885   5.035  0.3979 -0.0455  0.0000
24997W        W38411   2.893   6.046  13.628 -0.1652 -0.1888  0.2025
24998W        W38412   6.327  17.924  14.516 -0.0077  0.1556  0.2550
24999W        W38413   4.352  17.391   2.278  0.0750  0.0650  0.2856
25000W        W38414   4.461  12.233   4.595  0.3022 -0.2506  0.4443
25001W        W38415  17.629  16.107  10.102 -0.0009 -0.2033 -0.0394
25002W        W38416  11.863   2.894   3.528 -0.0155  0.3338 -0.2429
25003W        W38417   3.070  14.034  15.852 -0.5824  0.1705  0.0074
25004W        W38418   8.390   9.483   4.673 -0.0619 -0.1643 -0.2716
25005W        W38419   8.893   0.496  10.448  0.0129 -0.3985  0.1188
25006W        W38420  16.871   1.063   0.407  0.2477  0.0129  0.0067
25007W        W38421   9.567  17.213  10.576  0.1237 -0.2326 -0.0310
25008W        W38422  13.961   3.530   6.463 -0.2344 -0.1019 -0.2223
25009W        W38423   7.638   4.443  13.630 -0.2013  0.0108 -0.0797
25010W        W38424  17.526  11.758  15.377 -0.0842  0.1616 -0.1152
25011W        W38425  16.592  10.806  12.293  0.2462  0.3662 -0.0901
25012W        W38426   5.655  10.342  12.510  0.0097 -0.0215 -0.1477
25013W        W38427  17.414   9.683   1.753  0.2498 -0.1159 -0.0917
25014W        W38428   2.798   3.520   2.401 -0.1769 -0.1440 -0.1480
25015W        W38429  15.887  16.526   0.463  0.3775 -0.0168 -0.1005
25016W        W38430  15.350  16.997   1.403 -0.0316  0.1287 -0.0625
25017W        W38431   4.703   8.849  13.162 -0.0052  0.0287 -0.1632
25018W        W38432  13.727   8.602  13.213 -0.1073 -0.0500 -0.0616
25019W        W38433   2.953  14.636   1.236  0.2020  0.1353  0.0346
25020W        W38434  18.024   6.626  11.949 -0.1662 -0.0903  0.4653
25021W        W38435  15.705   9.553  11.993 -0.1732 -0.0365  0.1090
25022W        W38436  15.946   3.149  11.031  0.0336 -0.0475 -0.2581
25023W        W38437   4.543   6.455  15.506 -0.0192 -0.0145  0.2337
25024W        W38438  12.881   2.894   0.455  0.2381 -0.1212 -0.0938
25025W        W38439  16.231   2.922  15.836 -0.0607  0.1120  0.2623
25026W        W38440  14.300   7.946  16.229  0.0128  0.1024  0.1002
25027W        W38441   8.023   0.864   6.040 -0.1480  0.1890  0.0767
25028W        W38442  16.648   2.814  13.938  0.0003 -0.2256 -0.2326
25029W        W38443  15.435   5.892  15.217  0.0713 -0.0484  0.1125
25030W        W38444   6.534  14.933   0.550  0.3214 -0.0514  0.1881
25031W        W38445   8.383  17.161  13.887 -0.0621  0.0392 -0.0841
25032W        W38446   9.520   3.529   4.460  0.1178 -0.2320 -0.0501
25033W        W38447   4.731   8.616  12.593  0.2366  0.2611  0.0503
25034W        W38448   8.222   2.062   5.326 -0.0578  0.1918  0.0414
25035W        W38449   2.978   1.288   0.443  0.0480  0.3469  0.1130
25036W        W38450   1.310  11.733   4.713  0.1546  0.1949  0.3013
25037W        W38451  14.408  15.905  13.078  0.2996  0.0784  0.1574
25038W        W38452  13.385  13.203  12.802 -0.1259 -0.1236 -0.1152
25039W        W38453  18.020   8.680   0.356  0.2530 -0.0323 -0.0394
25040W        W38454   3.604  16.644   5.138 -0.0382  0.1928 -0.0036
25041W        W38455  15.481  14.932   5.163 -0.3160  0.1821  0.0303
25042W        W38456   1.494  17.469   0.604  0.0510 -0.1128  0.3343
25043W        W38457  12.493   9.881  13.013 -0.1106  0.0921 -0.2201
25044W        W38458  16.268  10.090  12.173 -0.3110 -0.0399 -0.0610
25045W        W38459  17.254   6.430  11.045  0.1588 -0.2247 -0.2385
25046W        W38460   5.878   3.352  15.810  0.0469  0.0418 -0.5040
25047W        W38461   5.960  16.454  13.446 -0.0296 -0.1595  0.0889
25048W        W38462   1.855  10.599   0.340  0.2396 -0.4438  0.0606
25049W        W38463  12.668   7.849  11.541 -0.2122  0.0122 -0.3056
25050W        W38464   9.202   1.828  13.432  0.0486 -0.1203 -0.1147
25051W        W38465  11.563  13.640  12.662 -0.1854  0.0767 -0.0375
25052W        W38466   7.416  14.924  12.415  0.0090  0.1509  0.0160
25053W        W38467  10.569   1.655  15.062 -0.0225 -0.1019 -0.3829
25054W        W38468   7.062  10.922  15.033 -0.1845 -0.1824 -0.1500
25055W        W38469   2.517   7.272   5.580  0.4027 -0.2448  0.2641
25056W        W38470   4.064   0.307  13.379  0.0879  0.1937 -0.1399
25057W        W38471  13.588   2.037  13.162  0.0175 -0.0883  0.1388
25058W        W38472   9.865   0.849   2.127  0.0690  0.0962  0.0897
25059W        W38473   2.002  11.854   4.564 -0.1519 -0.1966  0.0899
25060W        W38474  15.708   1.882   2.440  0.0277 -0.1689 -0.1036
25061W        W38475  18.464   0.674   5.460 -0.2598 -0.1271  0.0550
25062W        W38476   1.045   5.918  14.544  0.0105  0.2246 -0.2820
25063W        W38477   8.748   1.280  13.970 -0.1233 -0.1271  0.3002
25064W        W38478   4.210  14.429   2.559 -0.0855 -0.1616 -0.0725
25065W        W38479   1.759   3.637  13.281  0.2772 -0.1299 -0.0872
25066W        W38480  17.491   7.322   4.200  0.3321 -0.0029 -0.2939
25067W        W38481  14.041  14.096  15.067  0.1375  0.2977  0.3154
25068W        W38482   2.996   1.612  11.119 -0.0503  0.0008  0.1705
25069W        W38483   3.161   5.398   0.535  0.2947 -0.1552 -0.0650
25070W        W38484   3.473  13.548   4.465 -0.0620 -0.0402 -0.2773
25071W        W38485   0.845   0.650  13.631  0.2628  0.0424 -0.0555
25072W        W38486   6.828  14.021  10.076 -0.0463  0.0528  0.0493
25073W        W38487   3.810   7.941   5.739 -0.0801  0.0566  0.1190
25074W        W38488   8.163   6.507  11.996  0.3285  0.0021  0.1301
25075W        W38489  12.765  18.327  11.530  0.1059  0.4879  0.2292
25076W        W38490   5.332  16.307   0.871  0.0376  0.0997  0.2847
25077W        W38491  11.555  18.009   1.367  0.0654 -0.0728  0.2876
25078W        W38492   1.407   6.801   1.007  0.1637 -0.0141 -0.4426
25079W        W38493  14.913   2.713  16.150  0.2668  0.0272 -0.4422
25080W        W38494  10.276   5.542  10.717  0.2215 -0.0898  0.0811
25081W        W38495   9.661  17.140   1.515  0.3305  0.1462  0.0005
25082W        W38496  15.911   0.591  13.303  0.0820  0.1237  0.4008
25083W        W38497   1.553  17.875  11.668  0.2153 -0.1588 -0.0272
25084W        W38498  13.825   0.645  15.870  0.1597  0.3955 -0.0128
25085W        W38499   7.203  14.786  13.257 -0.0451  0.2801  0.1919
25086W        W38500   1.586  12.942  11.370 -0.2756  0.0822  0.0205
25087W        W38501  10.738   9.786   0.519  0.1062 -0.1579  0.1334
25088W        W38502   1.228  10.041   2.220 -0.0961  0.1152  0.2174
25089W        W38503  15.046   7.714  15.532  0.1462  0.0667  0.3361
25090W        W38504   2.958   7.142   3.679 -0.0550 -0.0294 -0.1275
25091W        W38505   3.687   6.641  13.232  0.0644  0.0408 -0.1174
25092W        W38506  18.153   1.015  13.710  0.1714 -0.0478 -0.0216
25093W        W38507   0.510   6.812   6.374  0.2245 -0.1239  0.0222
25094W        W38508   8.964  14.823  11.513  0.0797 -0.1871 -0.0825
25095W        W38509   3.273   7.033  11.473  0.2047  0.1446  0.2782
25096W        W38510  10.010   9.568  13.132  0.0226  0.1314 -0.1074
25097W        W38511   0.787   4.979   3.892  0.2790  0.1577 -0.0804
25098W        W38512   9.188  16.480  14.436  0.3481  0.1671  0.1070
25099W        W38513  10.654   4.136   3.104  0.0339 -0.0398 -0.2958
25100W        W38514   5.681  11.890   0.176 -0.0322 -0.4572 -0.0862
25101W        W38515   6.994  15.564   4.809 -0.2288 -0.3623 -0.5282
25102W        W38516   9.844   2.783  12.706 -0.1794 -0.0026  0.2171
25103W        W38517  11.189  18.216  12.274  0.0857 -0.2666  0.0181
25104W        W38518   6.221   6.292  11.617  0.1329  0.0197 -0.0526
25105W        W38519   5.933   3.651  13.203 -0.0419 -0.0410  0.2226
25106W        W38520  11.432  12.792  14.724  0.0680  0.0090 -0.0678
25107W        W38521   2.553  13.554  12.523  0.0974 -0.1154  0.3838
25108W        W38522  16.151  13.668   3.358  0.0624  0.1917 -0.0275
25109W        W38523  18.307   6.927   4.486  0.1657  0.1934  0.1696
25110W        W38524  11.834   8.469   4.161 -0.0337 -0.2302 -0.0511
25111W        W38525  16.384  13.449   5.559 -0.1043 -0.0714 -0.0167
25112W        W38526   2.155  11.719  12.896  0.1116 -0.2407  0.0440
25113W        W38527  16.154   4.486   1.147  0.2111  0.0842  0.0747
25114W        W38528  11.413  15.651  14.757 -0.1561 -0.0578  0.0767
25115W        W38529  14.256   9.619   6.313  0.2587 -0.2706 -0.0210
25116W        W38530  14.899  10.894   1.367  0.1856  0.0422  0.1822
25117W        W38531   0.826   0.984  11.131 -0.0310 -0.1331 -0.2233
25118W        W38532  17.033   3.995  15.131 -0.0569  0.3997  0.1346
25119W        W38533   3.195  12.388   0.357 -0.1500 -0.0129 -0.0456
25120W        W38534  11.849   4.643   1.271 -0.6386  0.1461  0.4857
25121W        W38535  11.118   8.955   4.325 -0.1385  0.0393 -0.1998
25122W        W38536   7.343   1.127   0.377  0.0040  0.0895 -0.1638
25123W        W38537  15.472  12.162  13.162  0.2720  0.0234  0.1103
25124W        W38538   3.000   3.338   5.522 -0.0483  0.0736 -0.0602
25125W        W38539   2.958   7.155  10.739 -0.0409 -0.0834 -0.0634
25126W        W38540  17.764   6.874  15.132 -0.2271  0.0730  0.1689
25127W        W38541   7.477  10.914  13.713  0.3511 -0.0402  0.1410
25128W        W38542  14.694   5.969   2.513  0.1966 -0.2272  0.4739
25129W        W38543   4.923   3.711   1.019 -0.0420 -0.2148 -0.1905
25130W        W38544  17.116   2.595  13.941 -0.0451  0.0655  0.0596
25131W        W38545   7.386  10.306  15.719  0.0816  0.0547 -0.1638
25132W        W38546   7.844  16.630  15.771  0.0326  0.0756  0.1629
25133W        W38547  15.963   7.583   4.566 -0.2496  0.1266 -0.2970
25134W        W38548   2.843  12.093  10.339 -0.3408 -0.2448  0.2702
25135W        W38549  17.535   5.091  11.946 -0.2088 -0.0670 -0.3190
25136W        W38550  10.554   4.160   6.076  0.0836 -0.2080 -0.1802
25137W        W38551  12.587   9.652  16.010 -0.0781  0.0922  0.0382
25138W        W38552   9.817  11.403  11.512 -0.0115 -0.1296  0.1796
25139W        W38553   5.151  14.961   1.465 -0.1257 -0.2207 -0.2148
25140W        W38554   7.916   7.852  14.776  0.2783 -0.1705  0.2852
25141W        W38555  17.328  10.902   0.449 -0.0789  0.0762 -0.1657
25142W        W38556   1.100  13.563  13.111  0.3493 -0.2327  0.0644
25143W        W38557  12.234   0.618  10.948  0.0474  0.0054  0.1582
25144W        W38558   3.478  16.090  12.488 -0.1430  0.0260 -0.1895
25145W        W38559   2.247  18.422   9.996  0.2113  0.1542  0.0781
25146W        W38560  14.575  11.221   4.117 -0.0130  0.0797 -0.3298
25147W        W38561  11.849  13.061   0.792 -0.0973 -0.1988 -0.2631
25148W        W38562   6.366   1.815  15.713 -0.0291 -0.1604  0.1868
25149W        W38563  18.497  11.888  15.283 -0.1896 -0.1028 -0.4560
25150W        W38564   7.643  13.607  12.090 -0.1332 -0.0226 -0.0692
25151W        W38565   4.640   9.367  13.018  0.0616 -0.0914  0.1294
25152W        W38566  18.088  10.355   1.388 -0.2048 -0.0804  0.0105
25153W        W38567  11.064  11.573   2.311 -0.4168 -0.0442 -0.1603
25154W        W38568  10.564   7.154  13.852  0.1396 -0.2857 -0.0666
25155W        W38569  14.563  12.053  15.561  0.0794 -0.2396 -0.2725
25156W        W38570  16.421  11.039  14.487 -0.2867 -0.4754 -0.2309
25157W        W38571   9.011  16.349  12.374  0.4503 -0.4454  0.1828
25158W        W38572  17.111   0.840  15.974  0.0409  0.1579  0.0357
25159W        W38573  14.843   9.708  11.247  0.1103  0.0430  0.0388
25160W        W38574   9.508  12.386  10.414  0.0325 -0.2260  0.2159
25161W        W38575  14.468  14.116  13.882 -0.2135 -0.0717 -0.3379
25162W        W38576  14.897   6.757  13.460  0.1709  0.0165  0.0839
25163W        W38577   9.954   5.394   1.851  0.0446 -0.1647  0.0115
25164W        W38578  17.327   5.676   2.166 -0.2914 -0.1950  0.3532
25165W        W38579  10.581   3.441  10.948  0.2468 -0.1131  0.2541
25166W        W38580  11.046  13.157   1.038 -0.1717 -0.0572 -0.3615
25167W        W38581   9.330  14.617   1.044  0.0912 -0.0470  0.3687
25168W        W38582  10.552   2.720   2.565  0.2445  0.1249 -0.3107
25169W        W38583   3.108  15.350  12.977  0.0428 -0.1055 -0.0446
25170W        W38584   8.154   7.791   1.695  0.0239 -0.3781  0.0664
25171W        W38585   1.601  11.160  12.897  0.0561 -0.1978  0.1093
25172W        W38586  10.885   4.266   3.541  0.4097 -0.4323 -0.1521
25173W        W38587  17.175   3.518   5.866  0.5336 -0.2326 -0.0133
25174W        W38588  12.260  10.881   4.455  0.2264  0.2039  0.1524
25175W        W38589  14.420  16.340   3.330  0.2314 -0.1860  0.1562
25176W        W38590   6.468   5.683  13.634 -0.3202 -0.1699  0.1776
25177W        W38591  16.587   9.588  14.182  0.1443 -0.0359 -0.1635
25178W        W38592  16.011   5.176  14.669 -0.0096  0.0604  0.3847
25179W        W38593   1.335  10.692   3.496  0.1226 -0.0998 -0.4555
25180W        W38594  17.982  11.712  14.491  0.0582 -0.1571  0.2284
25181W        W38595  17.469   5.556   0.530 -0.0990  0.2034 -0.2762
25182W        W38596   0.257   2.935   2.814  0.1665  0.0126  0.1614
25183W        W38597  14.937   5.721   4.591  0.2751  0.2291  0.0690
25184W        W38598  13.718   5.168  15.158  0.0106  0.1878 -0.1064
25185W        W38599  15.670   0.049   2.261 -0.3617  0.0688  0.0835
25186W        W38600   9.944   8.204   2.578  0.3607  0.0327 -0.1241
25187W        W38601   2.981  14.062   1.654  0.1068 -0.4368 -0.2998
25188W        W38602   1.125  12.432   3.997  0.1758 -0.3027  0.4247
25189W        W38603   5.253  12.453  15.704  0.1217 -0.1110 -0.0799
25190W        W38604  10.634   6.941  12.243  0.2351  0.1042 -0.0613
25191W        W38605   0.436   3.856  12.420  0.1991  0.1265 -0.0578
25192W        W38606   3.912  11.707  14.239 -0.0205  0.1709  0.0681
25193W        W38607   9.727   9.122   4.769 -0.0914  0.0937 -0.0092
25194W        W38608  11.114   0.771   2.014  0.0693  0.2512 -0.2731
25195W        W38609  17.779   5.661  13.769 -0.0177  0.0617 -0.4677
25196W        W38610   6.671   0.367   5.496  0.1564 -0.1788  0.1553
25197W        W38611   3.842  13.276   4.704  0.1590  0.1339  0.0559
25198W        W38612   7.902   2.622  12.275  0.1472 -0.0198 -0.0414
25199W        W38613   1.504  15.782  11.769 -0.1026  0.0823 -0.0577
25200W        W38614  16.942  14.539   0.438  0.2433 -0.1418 -0.5015
25201W        W38615   4.653  15.806   0.964 -0.1520 -0.1249  0.0076
25202W        W38616   6.682   4.189   5.604  0.1609  0.0077  0.1652
25203W        W38617   5.773   9.457  15.480  0.1984  0.0173  0.0353
25204W        W38618  12.104  16.155  10.380 -0.1100  0.1336 -0.0256
25205W        W38619   3.315  17.052   0.318 -0.1741 -0.4258 -0.0026
25206W        W38620   7.834  16.635  14.537  0.0924 -0.2250 -0.3499
25207W        W38621   6.911   4.709  11.311 -0.2450  0.2417 -0.0211
25208W        W38622   8.000  13.386   3.584 -0.2547  0.0792 -0.0273
25209W        W38623   1.277   8.757  13.634 -0.2216  0.2336  0.0787
25210W        W38624   3.405  18.029  13.005 -0.2939 -0.2347 -0.1810
25211W        W38625  13.359   0.919  16.124 -0.1934  0.0095  0.3017
25212W        W38626   4.454   8.156   2.457 -0.0933  0.1683 -0.1820
25213W        W38627  10.506   2.530  12.077 -0.2235 -0.3593  0.0978
25214W        W38628   7.939   3.954  13.498  0.1194  0.1080  0.0175
25215W        W38629   7.554  17.595   3.362 -0.0208  0.2469 -0.3817
25216W        W38630   2.525   1.082  11.764  0.0948  0.2387  0.0766
25217W        W38631   2.588   1.694  14.459  0.3227 -0.0982  0.1757
25218W        W38632   0.200  17.145  14.034  0.1667  0.0589  0.1035
25219W        W38633   2.806  17.946   5.632 -0.3685 -0.0168 -0.0831
25220W        W38634  14.191   5.653   3.333 -0.2090  0.2264 -0.0246
25221W        W38635   0.327   2.739  14.227  0.2486 -0.1076  0.0578
25222W        W38636   8.994   1.233  16.236 -0.0010 -0.1979  0.2859
25223W        W38637  10.740   0.618  11.600 -0.0866 -0.1033  0.1376
25224W        W38638   0.344   4.919   4.106 -0.0400 -0.1972  0.0075
25225W        W38639  12.854  17.230  11.381 -0.1598 -0.0350 -0.2173
25226W        W38640   1.568  15.126  14.977  0.1007 -0.0434  0.1458
25227W        W38641   0.368   2.862  10.613  0.1154 -0.0629  0.0129
25228W        W38642  14.883   5.598   2.275  0.4590 -0.2632  0.0150
25229W        W38643  14.683   8.731   0.508  0.2513 -0.1153 -0.1700
25230W        W38644  10.411  10.287   5.361 -0.2199 -0.1572 -0.0916
25231W        W38645  17.145  16.071  15.068  0.3130  0.0984  0.2836
25232W        W38646  11.287  16.855  10.548 -0.1981  0.0867  0.0270
25233W        W38647  12.134   2.255  11.543  0.0623  0.0300 -0.3521
25234W        W38648   7.201  16.852   1.992  0.2861  0.0932  0.0149
25235W        W38649  15.275   8.496   4.729 -0.0991 -0.1576  0.1457
25236W        W38650   2.937   4.045  11.646  0.2197 -0.1671  0.3476
25237W        W38651  16.947   4.662  12.482  0.2580  0.2208 -0.1396
25238W        W38652   2.696  18.104   0.801 -0.2846  0.3428 -0.0049
25239W        W38653   8.928  15.910  15.625  0.1056  0.1907  0.2134
25240W        W38654   5.124   7.228  11.938 -0.1337 -0.0142 -0.1615
25241W        W38655  16.491  15.871   1.766 -0.0203  0.1334 -0.0179
25242W        W38656   9.257   6.918   3.012 -0.3801  0.0129 -0.2469
25243W        W38657  12.666  11.961  11.889  0.0457 -0.1750 -0.2270
25244W        W38658   3.557  14.495  12.749 -0.1430  0.1506  0.1382
25245W        W38659   5.956   5.618   0.102 -0.2796 -0.4495 -0.0250
25246W        W38660  11.132   6.762   3.608 -0.0764 -0.0668  0.2832
25247W        W38661  13.209  17.862   0.185  0.1278 -0.1703  0.1607
25248W        W38662  16.175   3.330   0.347  0.0552  0.0792 -0.1924
25249W        W38663   3.850   0.721   3.818 -0.1459  0.1880  0.0023
25250W        W38664  17.628   6.718   2.402  0.2125 -0.1922 -0.2176
25251W        W38665  15.735  17.700  15.141  0.0818 -0.0731 -0.1555
25252W        W38666   9.315   6.842  13.513 -0.2772  0.0263  0.0261
25253W        W38667   3.239  10.221   3.300 -0.0428  0.0889  0.2803
25254W        W38668   3.858   6.823   4.553 -0.2546 -0.1504 -0.0164
25255W        W38669   8.822  10.232  14.773 -0.0354 -0.2166  0.2182
25256W        W38670  10.958   6.198   3.805 -0.1315  0.1818  0.2222
25257W        W38671   2.516   2.533  14.657 -0.0888  0.0059 -0.0647
25258W        W38672   1.440   8.170  11.620 -0.3831 -0.2802  0.0346
25259W        W38673  17.027   9.997  14.364  0.0196  0.1289  0.0306
25260W        W38674  16.969  18.426   4.705 -0.2580  0.1668  0.0268
25261W        W38675   8.972  15.418  12.542 -0.0854 -0.0259 -0.1896
25262W        W38676   0.895   4.717   0.544  0.0604 -0.0084  0.0082
25263W        W38677  12.037  10.324  14.325 -0.0391  0.0570 -0.2658
25264W        W38678   6.428   9.085   1.753  0.1162 -0.0875  0.2189
25265W        W38679   0.943  12.268  11.311  0.2277 -0.1097  0.0082
25266W        W38680   1.043  14.742  15.114 -0.0891 -0.0633  0.1005
25267W        W38681  13.155  11.610   3.987 -0.1922  0.0939  0.1566
25268W        W38682   4.499   2.179   4.807  0.0715  0.3024 -0.3237
25269W        W38683  18.386  10.716   0.921 -0.3278  0.1340  0.0230
25270W        W38684   9.144  13.812   3.754  0.1183 -0.0926 -0.1401
25271W        W38685  14.667   5.294  15.409  0.2456 -0.1764 -0.1308
25272W        W38686  17.172   3.992   2.696  0.2329 -0.2586  0.0547
25273W        W38687   4.335   1.430  13.879  0.0584  0.0739  0.1611
25274W        W38688   9.265  10.739  11.680 -0.1861 -0.0505  0.1511
25275W        W38689  13.782   1.825  15.141 -0.2656 -0.0595  0.1043
25276W        W38690  10.768   6.941   6.775  0.0109  0.0790 -0.0598
25277W        W38691   3.418   9.183  15.360  0.2549  0.2214 -0.1345
25278W        W38692   0.610  17.588  12.728 -0.0179 -0.0311 -0.2547
25279W        W38693   5.766  15.129  12.577  0.1378  0.0005  0.0680
25280W        W38694   2.761   7.419   0.169  0.0103  0.1391  0.3513
25281W        W38695   0.352  10.575   5.156  0.1492 -0.1083  0.0073
25282W        W38696  17.038   2.585  15.267  0.2078 -0.3682  0.3059
25283W        W38697   5.409   2.704  14.681 -0.2472 -0.1110  0.1621
25284W        W38698   9.281  18.043  13.256  0.0500  0.0905 -0.3992
25285W        W38699   2.808  14.901   5.914 -0.3363  0.3506 -0.1696
25286W        W38700   5.010   5.679  13.159 -0.0093  0.1201 -0.1628
25287W        W38701  10.728   1.089  10.967  0.1912 -0.0577 -0.1557
25288W        W38702  16.043   7.836  12.349 -0.2508 -0.0797  0.2739
25289W        W38703  10.718  13.619   4.898 -0.0729 -0.0695  0.0535
25290W        W38704  12.473  15.841   5.214  0.3378  0.1797 -0.3222
25291W        W38705   4.282  16.386  12.087 -0.1698 -0.1972  0.0905
25292W        W38706   9.109   4.821   3.743  0.1120 -0.1878 -0.1838
25293W        W38707   3.954  15.698   0.054  0.0352  0.3716 -0.4299
25294W        W38708   3.689   3.441   5.186 -0.2881  0.3872 -0.4168
25295W        W38709  13.568  13.577  10.137  0.0220 -0.0102  0.0808
25296W        W38710  14.296   8.996   5.665 -0.0850 -0.0988 -0.3093
25297W        W38711  12.044  16.786   1.655  0.0065 -0.0569 -0.0219
25298W        W38712   9.551   8.247   5.047  0.1852  0.1227 -0.1171
25299W        W38713   5.898  17.157   1.348 -0.0832 -0.0795  0.1055
25300W        W38714  10.006  11.507  11.978 -0.1379  0.2385 -0.1038
25301W        W38715  11.253   8.068   5.729 -0.1971 -0.0389  0.3387
25302W        W38716   6.304   1.913   5.450 -0.0222 -0.1402 -0.0545
25303W        W38717  12.893   0.636  15.385  0.2380  0.0777 -0.0150
25304W        W38718   7.696   8.553   2.959  0.2656 -0.1571  0.2538
25305W        W38719  14.597   6.119   0.473 -0.0841  0.1518 -0.1011
25306W        W38720  16.470   3.935  13.779  0.0632 -0.0192  0.0416
25307W        W38721  11.153  17.410  13.286  0.1291  0.1893  0.1263
25308W        W38722  16.946  18.399  14.272  0.3468  0.0400  0.2491
25309W        W38723  18.067  17.748   2.586 -0.0439 -0.1105  0.0388
25310W        W38724   4.500  16.381  11.405 -0.0664 -0.1918 -0.1516
25311W        W38725  16.207   1.946  15.917 -0.0735 -0.1336 -0.0354
25312W        W38726   2.649   3.782  12.846 -0.1777  0.4189 -0.0057
25313W        W38727   9.845   3.651  16.036 -0.2111  0.3025  0.0600
25314W        W38728   7.123  15.188  12.699 -0.0771 -0.0101  0.0502
25315W        W38729  13.579  14.765  15.744 -0.1948 -0.0909  0.1013
25316W        W38730   8.510   0.106  14.853  0.3111 -0.1845 -0.0130
25317W        W38731   7.997   3.585   0.715  0.2684 -0.1273 -0.1479
25318W        W38732   7.224  18.408  13.228  0.0428  0.1589  0.0204
25319W        W38733   3.110   9.100   4.099  0.1604  0.2117  0.1458
25320W        W38734  17.098   7.929   0.894  0.0387 -0.2366  0.2438
25321W        W38735   8.618   8.397  12.450 -0.0073  0.2249 -0.0243
25322W        W38736  11.956   3.025   2.155  0.0458 -0.0127  0.0691
25323W        W38737  13.642   0.316   4.425  0.0244  0.3563  0.1877
25324W        W38738   6.225  10.102  11.141 -0.3227  0.1014 -0.0507
25325W        W38739  15.854  13.792  12.964 -0.2623  0.0854  0.1185
25326W        W38740   1.803  16.642  13.814 -0.0213  0.0027 -0.0639
25327W        W38741   6.423   8.066   4.890  0.0685  0.4539  0.0892
25328W        W38742  15.819   7.324  12.906  0.3265 -0.0773  0.2140
25329W        W38743  14.329  14.824   0.225  0.2579 -0.2379 -0.0821
25330W        W38744   5.235   6.922  13.277  0.1539  0.0440  0.0088
25331W        W38745   4.165   5.936  13.968  0.1869 -0.0772 -0.0139
25332W        W38746  13.391  14.888  15.179  0.2017 -0.1152 -0.1767
25333W        W38747   6.012   2.202  10.624  0.0969  0.1853 -0.0681
25334W        W38748   7.088  11.848  12.070 -0.1267  0.2029 -0.3303
25335W        W38749   4.775  16.560   3.139  0.0327  0.1102  0.0313
25336W        W38750   6.943   3.333   4.431  0.5383 -0.2012  0.0954
25337W        W38751   6.938   0.902  12.957  0.3131 -0.0430 -0.0768
25338W        W38752   5.790  10.564  14.053 -0.0003 -0.0210 -0.0776
25339W        W38753   1.573  12.424   0.368 -0.1254 -0.0577  0.0261
25340W        W38754  10.894  17.756   0.794 -0.1804  0.3407  0.0011
25341W        W38755  11.030   5.506  12.749  0.0561  0.2273 -0.4754
25342W        W38756   4.919  11.081  15.601  0.1235  0.0970 -0.2185
25343W        W38757  13.587   3.225   5.394 -0.0590 -0.0271  0.0671
25344W        W38758  15.945  14.612  10.815 -0.1262 -0.0398 -0.0870
25345W        W38759   7.095  15.218   5.133  0.1794  0.1116 -0.0379
25346W        W38760  13.275  17.203   4.784 -0.2681 -0.1098 -0.2315
25347W        W38761   0.386   5.413   0.277 -0.1642  0.0191  0.1953
25348W        W38762  16.581   4.655   5.467 -0.2262 -0.2115 -0.3602
25349W        W38763  10.229  10.613  10.175  0.1459  0.0849  0.2664
25350W        W38764  18.252   5.805   0.495 -0.0033  0.0677  0.2325
25351W        W38765   9.567   7.571   4.353 -0.0614 -0.0823  0.0641
25352W        W38766   5.795  10.439  15.450 -0.0545 -0.2037 -0.5265
25353W        W38767  12.159   4.107  12.419 -0.2289 -0.0948 -0.1351
25354W        W38768   3.459   7.708   2.583  0.2270 -0.1332  0.1380
25355W        W38769   0.837  13.341  14.413 -0.2533  0.2164  0.6520
25356W        W38770   7.253  17.444  10.543 -0.1329  0.1730  0.1352
25357W        W38771   5.714   8.454   2.229  0.1360 -0.2958 -0.2650
25358W        W38772  13.944  10.032   0.754 -0.1936  0.1091  0.0075
25359W        W38773  13.149  17.967   4.519 -0.0864 -0.1039 -0.0056
25360W        W38774   4.922  15.341  10.141  0.1575  0.2414  0.3267
25361W        W38775   7.581   7.135  14.133  0.2500 -0.2202 -0.3672
25362W        W38776   7.514   8.096   1.000  0.1138  0.0797 -0.3241
25363W        W38777   6.703   4.349  10.024 -0.2867 -0.0628 -0.0623
25364W        W38778  14.636  10.866  14.991  0.1454 -0.0391 -0.1547
25365W        W38779   3.167  13.934  14.520 -0.0571  0.1286  0.1951
25366W        W38780  10.776   2.271   4.572  0.1204 -0.0742 -0.3294
25367W        W38781   3.515   7.514   5.907 -0.0085 -0.4104  0.2052
25368W        W38782   3.715  11.681   2.226  0.2405  0.2401 -0.0048
25369W        W38783  10.299   9.087   2.273 -0.5592  0.1680 -0.1324
25370W        W38784  16.455  17.704  12.393  0.0586 -0.1299  0.1170
25371W        W38785  15.519   2.696   0.032  0.0634  0.4217 -0.1646
25372W        W38786  11.403   0.644  12.795 -0.2236 -0.0853 -0.0910
25373W        W38787   0.832   0.184  14.754 -0.3344 -0.4133  0.0346
25374W        W38788   7.761   3.273   5.205 -0.0791 -0.0841 -0.0057
25375W        W38789   1.844   7.370   5.460  0.0119  0.0600 -0.0697
25376W        W38790   9.126   0.243  15.812  0.5110 -0.3408 -0.0452
25377W        W38791   2.210   1.091  15.359  0.0755  0.1609  0.1481
25378W        W38792  14.765   1.992   2.530  0.1361 -0.1459  0.2280
25379W        W38793  11.394  17.681   4.316 -0.0824  0.0639 -0.1728
25380W        W38794   8.042  12.222  14.709  0.0573  0.1861 -0.0639
25381W        W38795   7.897  18.192  12.911 -0.2219 -0.1137  0.1014
25382W        W38796  10.133   4.403   6.123 -0.1670 -0.0916 -0.2332
25383W        W38797  14.398  10.919   1.354  0.3434 -0.3086 -0.0980
25384W        W38798  14.234  16.977  15.212 -0.0419  0.1783 -0.0190
25385W        W38799   9.600  11.747   4.527  0.1417 -0.0663 -0.0756
25386W        W38800  12.123  11.115   0.908 -0.3009  0.1426  0.1725
25387W        W38801  11.362   3.860   3.282  0.1907 -0.0976 -0.2316
25388W        W38802  16.006   3.224   1.979 -0.3139  0.0792 -0.0206
25389W        W38803   9.476   5.309   5.653 -0.0962 -0.1242 -0.0549
25390W        W38804  14.927  12.276   2.896  0.0837 -0.2228 -0.0994
25391W        W38805  14.896   8.476  15.175  0.0464  0.0628 -0.0539
25392W        W38806   4.051   7.829   1.567 -0.0882  0.2095  0.1279
25393W        W38807  15.313   7.511  15.125 -0.0594 -0.1946 -0.1456
25394W        W38808  16.091   2.593   2.007 -0.0954  0.0282  0.3584
25395W        W38809  14.038  11.154  10.637 -0.2195 -0.3677 -0.1244
25396W        W38810  14.709   7.331   0.529  0.1295 -0.0414  0.0295
25397W        W38811   9.290  11.319  15.380 -0.2848 -0.0880 -0.1011
25398W        W38812   6.556  12.547  10.481 -0.3745  0.1245 -0.2412
25399W        W38813   7.674  15.548  14.926  0.2218  0.3299 -0.1896
25400W        W38814   9.869  13.785   0.324  0.0247  0.0037  0.0845
25401W        W38815  15.992   2.648  10.920 -0.3889 -0.0409  0.3108
25402W        W38816  15.632  17.285  15.481 -0.1277 -0.0114 -0.2064
25403W        W38817  11.250   7.656   1.737  0.1405  0.1248  0.1045
25404W        W38818   5.628   6.180   3.114  0.0773 -0.0080 -0.0397
25405W        W38819  11.553   7.512  16.200 -0.2649 -0.0976 -0.1421
25406W        W38820  12.642  15.091  14.553 -0.1904 -0.0316  0.1671
25407W        W38821   9.675  12.222  15.944  0.0304  0.0214 -0.0732
25408W        W38822  18.063   5.325  13.537 -0.1957  0.1960 -0.0001
25409W        W38823  16.226  13.730  14.149 -0.1304 -0.0855 -0.3605
25410W        W38824   3.703   9.516  13.121 -0.0233 -0.0488  0.1917
25411W        W38825   2.960  14.633   3.101 -0.0322  0.1051  0.1128
25412W        W38826  13.606   8.023   4.242 -0.2597  0.0560  0.1077
25413W        W38827   7.504  13.290   4.239 -0.0206 -0.4455 -0.0346
25414W        W38828   1.693   8.163  12.350  0.0750 -0.1302 -0.0421
25415W        W38829  16.665  10.725  15.106  0.0428 -0.1521 -0.0026
25416W        W38830   0.856   6.146  12.061 -0.1061  0.6408 -0.0218
25417W        W38831   5.077  11.758   3.077  0.2244 -0.0878 -0.2846
25418W        W38832  15.978   1.179  14.960  0.2035  0.0441 -0.1887
25419W        W38833   1.400   5.857  16.043  0.0416  0.3786 -0.0368
25420W        W38834  16.016   3.368   4.979 -0.0097  0.0979 -0.3065
25421W        W38835   5.263  15.370  15.710 -0.0581 -0.1915  0.0860
25422W        W38836   7.063   5.106  10.988  0.3014 -0.2565 -0.1248
25423W        W38837  10.674   2.099   3.766 -0.3979  0.1034  0.2486
25424W        W38838   7.624  12.570  14.590 -0.0753  0.3663  0.0759
25425W        W38839   9.765   7.104   4.716  0.0554 -0.0525  0.1822
25426W        W38840   6.523   0.383  14.785  0.2729 -0.0233  0.2189
25427W        W38841  15.193   0.461  15.946  0.1410 -0.0353 -0.0409
25428W        W38842  10.474  12.805   3.611  0.2238 -0.2461 -0.0349
25429W        W38843   5.548  12.088   1.814  0.1398 -0.2475  0.0972
25430W        W38844   9.445  16.292  11.413  0.0104  0.0378  0.2474
25431W        W38845   0.959   2.389  11.804 -0.1711 -0.1117  0.3095
25432W        W38846   7.424   9.980   2.125 -0.1465  0.1845 -0.0930
25433W        W38847  11.539   2.971  11.777  0.1319  0.0785  0.2714
25434W        W38848   7.893  13.265   3.099  0.2084  0.0264 -0.0067
25435W        W38849   1.401   2.641  15.881 -0.2223  0.2464  0.0835
25436W        W38850   7.231   5.374  15.587  0.1121  0.0809 -0.1243
25437W        W38851  17.276  11.262   5.347  0.2054 -0.1185  0.0278
25438W        W38852  16.506   7.329   4.577 -0.0458  0.2621  0.1473
25439W        W38853   8.008  12.549   4.552  0.1326 -0.0543 -0.0404
25440W        W38854  17.206  13.172  14.144  0.2629 -0.1324  0.2036
25441W        W38855   0.455  14.636  14.209 -0.1269 -0.1682 -0.2716
25442W        W38856  14.029   9.265   3.475 -0.1284 -0.2713  0.3075
25443W        W38857  10.551  16.184  12.043  0.1260 -0.0410  0.0059
25444W        W38858  16.269   3.893  11.477  0.2539  0.1604 -0.0714
25445W        W38859   0.095  12.681   2.624  0.1817  0.0206  0.2015
25446W        W38860  16.079  16.105  11.233 -0.0480 -0.0176  0.1431
25447W        W38861  18.509   0.058   3.404  0.0250  0.0391 -0.1773
25448W        W38862  15.951   6.829   4.200 -0.0352  0.0569 -0.0367
25449W        W38863   1.779  11.565  15.042 -0.0679  0.1785 -0.0202
25450W        W38864  10.055  13.400  15.933 -0.1672 -0.0259 -0.1101
25451W        W38865  15.331   0.070  12.535  0.0574 -0.0226  0.3183
25452W        W38866  12.036  12.448  14.034  0.0204  0.2005  0.0802
25453W        W38867   9.110  12.109   3.173  0.1736  0.1777 -0.0568
25454W        W38868   4.684  11.992  13.270  0.2167 -0.1228  0.1645
25455W        W38869  18.442   9.730  15.845 -0.1596 -0.0149  0.2196
25456W        W38870   9.592   7.648   6.314  0.1057  0.2640 -0.1803
25457W        W38871   9.298  16.544   2.444 -0.1133 -0.1341  0.1956
25458W        W38872   2.839   9.546   0.504  0.2748  0.1401 -0.0394
25459W        W38873  12.741   6.860   1.907  0.0157  0.2285 -0.1347
25460W        W38874   8.449   4.477  12.184  0.0271  0.0322  0.0791
25461W        W38875  10.940   0.279  13.769 -0.1569  0.0018  0.3105
25462W        W38876   3.379  13.887   1.938 -0.0539 -0.1411  0.0546
25463W        W38877   8.702   0.828   0.716 -0.1711 -0.1210  0.2684
25464W        W38878  18.347   8.733   4.153 -0.0573 -0.3671 -0.2245
25465W        W38879   8.888   3.136   6.008 -0.3203 -0.1453  0.0237
25466W        W38880   3.180   1.215  13.294  0.1253 -0.3920  0.0031
25467W        W38881   2.516   4.648  13.187  0.0943  0.1183  0.2990
25468W        W38882  14.542  15.433  13.289  0.3420 -0.0434 -0.1779
25469W        W38883   6.648   0.561  12.691  0.3501  0.1998  0.1592
25470W        W38884   6.281   3.301   5.861  0.3504  0.0730  0.1278
25471W        W38885   2.323  16.398  15.306  0.0519  0.0714  0.3360
25472W        W38886  11.227  15.027  15.160 -0.1060  0.2711 -0.2375
25473W        W38887   7.748  16.460  12.379  0.1416 -0.0341  0.1989
25474W        W38888   3.356  12.201  15.706  0.2689 -0.2345  0.0998
25475W        W38889   8.878   6.954  12.101  0.1108 -0.2317 -0.0812
25476W        W38890  12.576   8.774   3.215 -0.1210 -0.2552  0.2374
25477W        W38891   5.793  17.957  13.449 -0.1599 -0.0803  0.1262
25478W        W38892  16.560  16.583   4.361 -0.3008  0.0113 -0.1880
25479W        W38893   8.716   4.791  14.656 -0.1113 -0.0465  0.0836
25480W        W38894   2.572   2.236   0.090 -0.1160 -0.1292 -0.2723
25481W        W38895  11.348  17.762  15.162  0.1638 -0.3366 -0.0200
25482W        W38896   6.903  16.700   5.502 -0.2120  0.2146 -0.0391
25483W        W38897   3.759  17.543   0.163 -0.1065  0.0006  0.3156
25484W        W38898   0.843  13.458   3.500 -0.1476 -0.1908  0.0750
25485W        W38899   7.305   3.937  15.863  0.0669 -0.0207 -0.1666
25486W        W38900   3.365   6.121   1.612  0.0221  0.2608  0.1082
25487W        W38901  13.067  17.953  11.973 -0.0101 -0.0027  0.4009
25488W        W38902   8.696  11.786  15.251 -0.1283 -0.1503  0.1955
25489W        W38903   8.551  13.490   3.109 -0.3667 -0.2166  0.0629
25490W        W38904   9.334   7.399  15.045 -0.2046 -0.2197 -0.4449
25491W        W38905   2.290  16.665   6.036 -0.1023 -0.1555 -0.2884
25492W        W38906   9.326   3.672   0.383  0.3048  0.1531 -0.1235
25493W        W38907   7.421  17.807  15.359  0.0365 -0.3415 -0.0563
25494W        W38908  15.948  10.937   5.092 -0.1585 -0.1297  0.0430
25495W        W38909   4.890  17.927  14.262 -0.1355 -0.2544 -0.0868
25496W        W38910  11.630  10.788  15.522 -0.0540 -0.0204 -0.2096
25497W        W38911   5.166  17.501  12.709  0.1211 -0.0477  0.1989
25498W        W38912   8.264   5.335   6.665 -0.3339 -0.0568  0.0491
25499W        W38913  13.141   6.434   5.846 -0.0860 -0.1260  0.0709
25500W        W38914  18.108   0.457  11.393 -0.2262 -0.1495 -0.1313
25501W        W38915   0.451   3.636   6.262 -0.0740  0.0680  0.0124
25502W        W38916   7.192  18.161  10.044 -0.2132  0.2619 -0.0384
25503W        W38917   2.847  11.828   0.309 -0.2645  0.2504  0.1405
25504W        W38918   4.344   6.682  16.005  0.2022  0.1624  0.6331
25505W        W38919   9.243   7.514   2.475 -0.2394 -0.1191 -0.0235
25506W        W38920  12.058   3.186   1.005 -0.2011  0.0579 -0.2300
25507W        W38921  17.940   6.112  12.152  0.0118  0.0101  0.0067
25508W        W38922   3.540   6.582  14.415 -0.2085  0.1788 -0.0481
25509W        W38923   0.925  15.712   3.064 -0.0965 -0.1413  0.0755
25510W        W38924   2.369  12.321   3.289  0.2639 -0.0292 -0.1683
25511W        W38925   2.457   2.823   6.195  0.1105 -0.2980  0.1421
25512W        W38926   7.806   3.056  11.010  0.1289  0.1337  0.0363
25513W        W38927  11.491   5.470  14.478  0.1754  0.1056 -0.1022
25514W        W38928   8.348   7.514  15.008 -0.1513 -0.0471  0.0903
25515W        W38929   6.385  16.542  16.150 -0.0090  0.0238  0.0485
25516W        W38930   0.599   1.818   2.167 -0.2552  0.0789  0.1079
25517W        W38931   5.664   2.212  11.621 -0.0744  0.0713 -0.0160
25518W        W38932   1.252   2.007  14.609 -0.1099  0.0278  0.0318
25519W        W38933   1.727  12.333  10.251  0.1898 -0.1694 -0.2027
25520W        W38934   8.932  11.091  15.958  0.4359 -0.1465  0.0443
25521W        W38935  17.835   5.792   2.048  0.0326 -0.0635  0.2566
25522W        W38936  17.021   8.004  13.231  0.0278  0.2728  0.0561
25523W        W38937   2.500   0.806  10.111 -0.0871 -0.0244  0.3751
25524W        W38938  17.929  17.167  11.303  0.0883  0.4516  0.2441
25525W        W38939  10.236   7.362   3.583 -0.1239 -0.0032  0.1838
25526W        W38940  14.107   8.429  12.339  0.0351  0.2441 -0.3872
25527W        W38941  15.086   2.687   0.379 -0.1422 -0.0572 -0.2752
25528W        W38942   6.604  11.855   4.212 -0.0230  0.1756  0.2757
25529W        W38943   4.130  10.205   3.950 -0.0407  0.0422  0.4166
25530W        W38944  17.980   2.506   2.283 -0.2734 -0.1852  0.1457
25531W        W38945   8.529   2.384  14.124  0.1264  0.1168  0.0322
25532W        W38946  14.889   7.567  11.458 -0.2297 -0.1015  0.4742
25533W        W38947   2.359   5.367   5.706  0.2168  0.0023 -0.2442
25534W        W38948   3.791  14.690  16.087 -0.1437  0.0037  0.1112
25535W        W38949  14.780  13.696   6.267  0.1118  0.3555 -0.0901
25536W        W38950   9.629  17.488   4.091  0.2740  0.1182  0.0268
25537W        W38951   8.607  13.367  13.473 -0.1112  0.2166 -0.0326
25538W        W38952   7.448   8.794  10.247  0.0806 -0.0058  0.2049
25539W        W38953  11.321  16.804   2.777  0.0128 -0.2805 -0.2918
25540W        W38954   7.546  17.443  13.292 -0.1297  0.1541 -0.2655
25541W        W38955   7.946   3.482  14.992  0.1617 -0.1609 -0.2489
25542W        W38956   8.515  13.303   3.827  0.2943 -0.0803 -0.2103
25543W        W38957  12.301   2.101   2.661  0.0833  0.1197  0.2391
25544W        W38958  16.354   6.356   3.088  0.1084 -0.0383  0.0531
25545W        W38959   8.432   9.191  14.390  0.0384  0.0950 -0.0638
25546W        W38960  12.496  10.979  11.011  0.1136  0.0784  0.3333
25547W        W38961  13.724   6.202  13.050  0.0312 -0.3337 -0.0711
25548W        W38962  12.709  11.355  12.748  0.0342 -0.1401  0.1968
25549W        W38963  10.790   6.155  14.738  0.0241  0.1917 -0.1268
25550W        W38964   4.887  13.899   0.900 -0.2269 -0.0117 -0.2529
25551W        W38965   3.568   5.223   4.601 -0.0737  0.4124  0.4163
25552W        W38966   6.031  11.428  15.647 -0.1729  0.4082  0.1352
25553W        W38967   0.234  18.107   2.221 -0.0329 -0.1186 -0.0374
25554W        W38968   7.122  17.810  12.012 -0.1534  0.2191  0.1908
25555W        W38969   5.361  12.058  10.341 -0.0281  0.1041  0.0595
25556W        W38970   6.523  15.299   0.935  0.1465  0.1346  0.1672
25557W        W38971  16.277  15.927  11.731  0.0357 -0.1851 -0.0760
25558W        W38972  15.295   6.036   1.585 -0.0790  0.2965  0.0040
25559W        W38973   7.869  10.101   0.254 -0.1325 -0.0668 -0.0328
25560W        W38974   6.373  17.455   3.498  0.2006 -0.1575  0.0544
25561W        W38975   7.867   7.654  15.221 -0.1604 -0.2292  0.1223
25562W        W38976  15.961   4.592   3.875 -0.3248 -0.1506  0.0755
25563W        W38977  14.341  12.184  12.661  0.0024  0.2289  0.1731
25564W        W38978  13.757   9.218  11.236  0.1871  0.3033 -0.0029
25565W        W38979  11.408   6.888  10.835 -0.0231 -0.1571  0.1046
25566W        W38980  15.373   2.465   1.662  0.0572 -0.0647 -0.1823
25567W        W38981   5.337   7.724   1.549 -0.0072  0.1906 -0.1937
25568W        W38982  15.156   1.560   3.263 -0.0523 -0.0372  0.1090
25569W        W38983  14.533   4.255   5.408  0.0796 -0.2451 -0.3819
25570W        W38984  12.686   0.662  10.182 -0.2542  0.0242  0.1063
25571W        W38985   1.386   0.993   5.256 -0.0769 -0.4049  0.1308
25572W        W38986  18.035  11.134  11.895  0.3121 -0.2533  0.1923
25573W        W38987   8.152  11.275  10.943  0.0575 -0.1556  0.0287
25574W        W38988   7.445   4.040   4.362 -0.4751  0.1858  0.1780
25575W        W38989   4.309   5.535  14.326 -0.0119 -0.0455  0.0575
25576W        W38990  11.340   3.764  13.928  0.0423  0.2629 -0.1737
25577W        W38991   8.656  12.331  10.948  0.2155 -0.0357 -0.1089
25578W        W38992  11.210   6.821   4.440  0.0931  0.0344 -0.3663
25579W        W38993  18.190  14.981  12.867  0.1043  0.1193  0.2749
25580W        W38994  11.554  10.776   3.333 -0.1911 -0.2086  0.0548
25581W        W38995  16.268   0.981   6.188 -0.0611 -0.1255  0.1372
25582W        W38996   7.268   8.632   0.953  0.0505  0.0999 -0.0069
25583W        W38997  12.216   1.883   5.860  0.1691  0.1272  0.4671
25584W        W38998  10.250  16.764   4.429  0.0429  0.1604  0.0703
25585W        W38999  10.193  14.522  12.203  0.0771 -0.0018 -0.0790
25586W        W39000   4.604   6.994  15.756  0.1365  0.1678  0.0352
25587W        W39001   6.662  13.523  12.670 -0.1816  0.2640  0.1589
25588W        W39002  18.375   2.953   4.359  0.2799  0.0988  0.0719
25589W        W39003   5.135   4.958   3.262 -0.2488 -0.1142 -0.0786
25590W        W39004   1.965   0.881   2.511  0.0584  0.0908  0.0097
25591W        W39005  11.823   5.620   3.237 -0.0913  0.1250 -0.0965
25592W        W39006  18.375   0.762  11.725 -0.2527  0.2387  0.0452
25593W        W39007   0.533  10.318  12.543 -0.0517  0.1335 -0.0239
25594W        W39008   9.104   6.286   4.458  0.0523  0.1124  0.3034
25595W        W39009   5.432  11.962   5.958  0.0380  0.0676  0.0130
25596W        W39010  16.217   5.964   3.686 -0.0951 -0.2116 -0.0967
25597W        W39011   5.392  17.205   1.109 -0.1629 -0.1226  0.1655
25598W        W39012  12.413   4.367   4.514 -0.1027 -0.1506  0.1136
25599W        W39013  12.536  13.835  15.391  0.1034 -0.0146 -0.4211
25600W        W39014   7.605   7.744  11.508  0.0384 -0.1647  0.0581
25601W        W39015   4.267  10.342   4.898  0.0781 -0.1998 -0.3937
25602W        W39016   7.214  13.168  12.588 -0.1781  0.2702  0.0963
25603W        W39017   0.917   8.673   0.320  0.1130  0.3547 -0.0656
25604W        W39018   2.978   2.152  15.941 -0.1318 -0.2055 -0.0247
25605W        W39019   8.338   8.651  10.402 -0.0295  0.1508 -0.0787
25606W        W39020  10.398   3.631  10.413  0.3533 -0.0983 -0.0517
25607W        W39021  17.522  14.455   4.551 -0.1873  0.4232 -0.3210
25608W        W39022  17.510  16.002   0.974 -0.2076 -0.0474 -0.0393
25609W        W39023   8.257  11.899   1.678  0.4094 -0.1293  0.1703
25610W        W39024   3.742   5.541   3.516 -0.1806  0.0528 -0.1078
25611W        W39025   7.474  12.152   0.382 -0.2451 -0.1317 -0.1310
25612W        W39026  13.783  16.078   1.471  0.0002  0.1494  0.2417
25613W        W39027  12.662   1.574   5.467 -0.0177  0.3283  0.0948
25614W        W39028   8.647  16.524  12.085  0.0260 -0.1477 -0.1050
25615W        W39029   1.132   8.577   2.823 -0.0771  0.2705  0.2971
25616W        W39030   5.113   0.168   5.775  0.1737  0.0979 -0.2274
25617W        W39031   5.497   5.302   0.475  0.3764  0.0652 -0.1178
25618W        W39032  16.632  14.786   3.747 -0.0009 -0.0728 -0.0298
25619W        W39033   6.435   0.932  12.499 -0.1108 -0.3010  0.1323
25620W        W39034   2.054  13.209   5.191  0.0330 -0.1283  0.0813
25621W        W39035  17.241   0.941   3.774  0.5291 -0.0901  0.1101
25622W        W39036  15.320   5.235  12.133 -0.1486 -0.0288  0.1711
25623W        W39037  17.025   3.131  13.042  0.0439  0.0399  0.3215
25624W        W39038  14.901   1.940   3.009 -0.2618 -0.2432 -0.2333
25625W        W39039   6.681   6.290   3.840 -0.0075 -0.3763 -0.0514
25626W        W39040   1.834   3.564   1.361 -0.3215  0.0576 -0.0503
25627W        W39041   8.955   8.083   0.878 -0.3969 -0.2274 -0.2627
25628W        W39042   5.633  15.533  10.563 -0.0011  0.0048  0.0207
25629W        W39043  13.700   1.345   1.353 -0.1340  0.0356 -0.2664
25630W        W39044  12.047  12.608   2.802  0.3938 -0.0766  0.3946
25631W        W39045  12.883   5.664   1.156  0.0857  0.0758 -0.1978
25632W        W39046   7.213   4.214   2.875 -0.3234 -0.0880 -0.1982
25633W        W39047  10.828   5.683   6.426  0.1157 -0.2326 -0.0307
25634W        W39048  13.649   4.715  13.820  0.2060 -0.0374 -0.1955
25635W        W39049   8.836  17.485   5.420 -0.2395 -0.0677  0.0198
25636W        W39050   0.393   5.223   1.004  0.1484  0.1289  0.0559
25637W        W39051   0.607   3.747  13.188  0.0332  0.0206 -0.0748
25638W        W39052  13.018  14.692  11.658 -0.1787  0.0279 -0.4069
25639W        W39053  11.495  13.116  10.902 -0.1639 -0.0580  0.0218
25640W        W39054   5.105   9.694  16.261  0.1103  0.0813 -0.2518
25641W        W39055  10.568  10.233   1.558  0.0645 -0.1236  0.1797
25642W        W39056   5.343   2.827   1.755 -0.0461  0.1022 -0.1596
25643W        W39057   1.220   2.557   6.395 -0.0521  0.0638  0.1373
25644W        W39058  18.037  16.265  15.450  0.0031 -0.0586 -0.1122
25645W        W39059  12.940  11.085  11.368 -0.2558  0.1720 -0.2651
25646W        W39060   6.732  15.517  12.683  0.2710 -0.1982  0.1088
25647W        W39061   7.148   7.546  13.468  0.0900 -0.1234  0.1623
25648W        W39062   2.873   0.416  10.474  0.0977 -0.2736 -0.3369
25649W        W39063   5.915   1.168   0.972 -0.4408 -0.0563 -0.0619
25650W        W39064  10.014   7.110  12.539  0.1488 -0.1094  0.1643
25651W        W39065   7.381   1.385  14.426  0.2444  0.1614  0.0432
25652W        W39066   7.613  17.200  10.297  0.0015  0.1160  0.2366
25653W        W39067  15.998  17.620   3.164  0.2710  0.2056  0.0441
25654W        W39068  11.495   2.440  11.980  0.0369  0.6172 -0.4349
25655W        W39069   0.698   0.457  11.063  0.0128  0.0729 -0.0159
25656W        W39070   5.637  12.317  15.404  0.1232  0.3761 -0.0343
25657W        W39071  16.387  11.076  15.378  0.1406 -0.3185 -0.1155
25658W        W39072   2.955   7.859   2.338  0.1432  0.0335 -0.1829
25659W        W39073  14.849   5.129  15.910  0.0314  0.1707 -0.0234
25660W        W39074   9.734   8.411   3.915  0.2083  0.1334  0.4203
25661W        W39075  12.430   6.580   4.323 -0.0419 -0.0395  0.0230
25662W        W39076   4.392   1.370   5.638 -0.0334  0.1642 -0.3240
25663W        W39077  14.963  12.168   0.695  0.3114  0.0361  0.2104
25664W        W39078   4.018  11.899   1.160  0.3510  0.4466  0.2030
25665W        W39079   2.455   0.422   5.003  0.2813 -0.3005 -0.2501
25666W        W39080   3.552   7.177  14.471  0.2456 -0.0599  0.1658
25667W        W39081   1.218   7.182   4.213  0.1494 -0.1370  0.4421
25668W        W39082   5.224  16.983   1.557 -0.2444 -0.1194 -0.3424
25669W        W39083  17.045   8.476  10.970 -0.0605  0.2737  0.0961
25670W        W39084  15.971   3.192  12.861 -0.0775  0.2520  0.0689
25671W        W39085   8.818   5.893   0.505  0.0979  0.3704 -0.1055
25672W        W39086   9.952   4.553  12.356 -0.3358  0.2854  0.1403
25673W        W39087  18.504   4.124   3.594  0.1627  0.3486 -0.0619
25674W        W39088   9.611  16.718   3.287  0.3036  0.1086 -0.2794
25675W        W39089  16.718   9.406  11.260 -0.2344  0.1611 -0.0922
25676W        W39090   2.169  13.212   4.188 -0.3061 -0.1835 -0.0602
25677W        W39091  14.014  13.168   5.988  0.0604 -0.1240 -0.0640
25678W        W39092   8.955  17.064   3.209  0.4710 -0.0354  0.1877
25679W        W39093  11.073   3.392   1.970  0.0198 -0.0657 -0.1070
25680W        W39094  15.494   2.892   1.315 -0.0767 -0.2570 -0.2495
25681W        W39095  10.783  15.810   5.256  0.1909  0.0787  0.0749
25682W        W39096   8.791   3.994  15.752  0.1468 -0.0428 -0.1192
25683W        W39097   7.914   6.769   2.281  0.6275 -0.3930  0.3036
25684W        W39098   3.083   0.032  15.482  0.0902  0.2276  0.0907
25685W        W39099  16.723   7.304   1.591  0.1496  0.1517  0.0983
25686W        W39100  11.976   9.546   0.638  0.0899 -0.2344  0.1107
25687W        W39101  15.063   8.630   5.268 -0.2933  0.3690 -0.2229
25688W        W39102  13.059  10.653   3.698  0.0565 -0.0900  0.2251
25689W        W39103  14.579  11.667  12.007  0.1598 -0.0893 -0.0608
25690W        W39104  15.635   6.061  11.102 -0.2596  0.3061  0.2667
25691W        W39105   3.729  12.569  13.936  0.0577  0.2716  0.2292
25692W        W39106   5.908  18.024  15.964 -0.2258  0.0621  0.1136
25693W        W39107   6.742   7.729   4.445  0.2498 -0.4374  0.0600
25694W        W39108   8.260   1.568  15.625 -0.0763  0.4527 -0.1189
25695W        W39109  18.506  11.261   5.472  0.1333 -0.1484 -0.1624
25696W        W39110   2.537   6.899   5.124 -0.0919  0.0731 -0.1040
25697W        W39111   9.555   7.205  15.557  0.0714 -0.1856  0.1717
25698W        W39112  12.653   2.082  12.080 -0.0161  0.3349  0.1381
25699W        W39113  15.493   3.028   0.460  0.0934  0.0651  0.2382
25700W        W39114   8.658   7.523  11.085  0.0657  0.1590 -0.0852
25701W        W39115   7.994   3.495  12.182  0.0497  0.0205 -0.0294
25702W        W39116   1.407   8.229   1.379  0.1430  0.1933  0.1358
25703W        W39117   8.939  16.707   2.155 -0.0293 -0.1931 -0.1774
25704W        W39118   0.036  11.633   1.019 -0.0221 -0.1184 -0.0762
25705W        W39119   4.876   6.751   2.169  0.0203  0.0164  0.0990
25706W        W39120  15.931   8.200  11.441 -0.1284 -0.0831 -0.0784
25707W        W39121   5.442  13.761  13.086 -0.1288 -0.0474 -0.0987
25708W        W39122  13.423  14.870   5.947  0.1768  0.2596  0.1000
25709W        W39123  16.089  13.301   3.018  0.0900 -0.0779 -0.0687
25710W        W39124  13.389   8.282  15.045 -0.3739  0.0110  0.1950
25711W        W39125   1.584  14.498  14.377  0.1455 -0.0705 -0.2033
25712W        W39126  18.436   9.196   4.339  0.1441  0.0156 -0.0331
25713W        W39127   8.764  12.817   2.714 -0.0475 -0.0140  0.3025
25714W        W39128  14.385  18.002   0.655  0.2243 -0.0649  0.0591
25715W        W39129   2.500  10.889   1.128  0.4604  0.1027  0.1364
25716W        W39130   6.178  15.413   1.585  0.0555  0.3055 -0.0620
25717W        W39131  11.962  15.993  13.899 -0.0220  0.0316 -0.0821
25718W        W39132   0.808   8.074  13.991 -0.2030  0.0964  0.0458
25719W        W39133   0.050   3.070   4.901 -0.2884  0.1054  0.0841
25720W        W39134   8.312  12.531   2.499 -0.0108 -0.0146 -0.0302
25721W        W39135  16.822   2.853  10.670 -0.2546  0.4640 -0.0168
25722W        W39136  15.840  12.369   0.515 -0.2822  0.1468 -0.2878
25723W        W39137   7.611  15.440   1.621 -0.1588 -0.1163  0.0314
25724W        W39138  17.341   3.083   1.047  0.1659 -0.3056 -0.0585
25725W        W39139   5.955  13.542   9.857 -0.0951 -0.2193  0.2172
25726W        W39140  14.327   9.627  10.836  0.0837  0.2655 -0.1837
25727W        W39141   8.919  11.547  14.840 -0.2018 -0.1535  0.0911
25728W        W39142   5.895   4.487  14.195  0.1480 -0.1258 -0.1273
25729W        W39143   6.867   3.744  12.561 -0.1048 -0.2153 -0.1030
25730W        W39144  14.241   6.323   1.739 -0.3796  0.0541 -0.0676
25731W        W39145  15.118   5.204  11.560 -0.0756 -0.0685  0.0351
25732W        W39146   1.496   0.653   4.843  0.0735  0.3400  0.0326
25733W        W39147   8.476   7.599   5.092  0.2616 -0.0347 -0.0415
25734W        W39148  15.341  12.337   0.336 -0.1432  0.0808 -0.1524
25735W        W39149   0.959   8.077   1.272 -0.0887 -0.0088 -0.3006
25736W        W39150   0.839  17.020  15.489  0.0202 -0.2676 -0.3048
25737W        W39151   5.177  14.098  13.874 -0.3590 -0.1118 -0.2916
25738W        W39152  15.743  15.672   3.853  0.0604  0.1179 -0.0719
25739W        W39153  12.168   8.506  10.913 -0.1696  0.4279 -0.0574
25740W        W39154   5.688  17.985  14.893 -0.2299  0.1130 -0.2999
25741W        W39155  10.552   3.851   0.660  0.2844 -0.1937  0.4411
25742W        W39156  10.506   2.437  16.221 -0.4615 -0.4281 -0.0866
25743W        W39157   3.633  16.401   3.768 -0.5068  0.2610  0.0446
25744W        W39158  13.348   0.033   0.531 -0.1214  0.1016 -0.1018
25745W        W39159  18.192  16.732  11.264 -0.0150  0.2409 -0.0501
25746W        W39160  17.296   0.364   2.766  0.0034 -0.1628 -0.1341
25747W        W39161  18.123   6.697   5.709 -0.5049 -0.0570 -0.0091
25748W        W39162  10.120   5.571   4.201 -0.1888  0.1895  0.2285
25749W        W39163   5.903  16.713   6.132  0.1564 -0.1633 -0.2309
25750W        W39164   6.794   0.369   1.395 -0.2817 -0.1756 -0.1239
25751W        W39165  10.227   8.790   4.634 -0.0949  0.1525 -0.2204
25752W        W39166  16.658   9.644  16.199 -0.2960  0.1767  0.3855
25753W        W39167   5.517   6.199  15.589 -0.2587 -0.1244 -0.1984
25754W        W39168   1.143   5.991   3.107 -0.2767 -0.1508 -0.2381
25755W        W39169   9.978   1.937   3.122  0.4795  0.4719 -0.0577
25756W        W39170   6.047  13.430  12.421  0.0234  0.0913 -0.2590
25757W        W39171  18.043  11.009   2.969 -0.3435 -0.2941 -0.3548
25758W        W39172  16.159   9.504   1.874 -0.0200 -0.2019 -0.1108
25759W        W39173  18.477   9.434  11.917 -0.3655  0.3145 -0.2589
25760W        W39174  17.097  16.153  14.110  0.0783 -0.1160 -0.0417
25761W        W39175   4.102  18.225  10.943  0.2399  0.1313 -0.0470
25762W        W39176   5.549   3.405  11.321  0.0288 -0.0952 -0.1702
25763W        W39177  15.044  13.976  12.625 -0.0079  0.1792 -0.4041
25764W        W39178   0.790  15.995  12.887  0.1451  0.0630 -0.2212
25765W        W39179  10.047  15.682   1.836  0.0388  0.0666  0.0349
25766W        W39180   1.091  17.031  10.082 -0.0900 -0.1645 -0.2078
25767W        W39181  15.417  10.376  11.728  0.4054 -0.1246 -0.3561
25768W        W39182   0.742   0.065  15.478 -0.1450  0.0578 -0.1082
25769W        W39183   0.794   8.980  13.604  0.0907 -0.0818 -0.1442
25770W        W39184  11.954   2.217  12.789  0.0221 -0.0229  0.1308
25771W        W39185  13.180   3.676   2.296  0.0351 -0.0764  0.5659
25772W        W39186  11.541   0.534  11.900  0.3775  0.3467 -0.1078
25773W        W39187  17.818   0.188  15.551  0.0863 -0.3062 -0.1009
25774W        W39188   2.225   2.328   4.387 -0.0075 -0.2654  0.0953
25775W        W39189  10.685  10.802  15.121  0.1316  0.1313  0.0925
25776W        W39190   0.528  17.704  10.463 -0.3258  0.0425  0.0024
25777W        W39191   9.404  12.085   5.241 -0.0463 -0.2359 -0.2686
25778W        W39192   5.300  11.612  16.166  0.2730  0.1365  0.3486
25779W        W39193   0.187   0.090   4.612 -0.0482  0.0775  0.3610
25780W        W39194   8.675   8.163   2.927  0.0908 -0.2413 -0.0809
25781W        W39195  17.208   0.691  13.740 -0.0222 -0.1580  0.0777
25782W        W39196  13.180  11.135   5.511 -0.0338 -0.1838  0.1895
25783W        W39197   2.193   6.079  16.129  0.3477 -0.0931  0.4302
25784W        W39198   0.142   8.526   3.200 -0.2157  0.3404 -0.0239
25785W        W39199   1.587  16.183   1.315  0.0671 -0.0320 -0.2339
25786W        W39200   6.532  13.898  11.737  0.1276 -0.1010  0.1842
25787W        W39201  15.453  15.703  10.967 -0.0183  0.2055  0.0364
25788W        W39202   2.212  11.729  15.992  0.0813  0.1843 -0.3034
25789W        W39203  13.125  11.517  12.493  0.1725 -0.1739 -0.0155
25790W        W39204   8.743   3.014   0.238 -0.1256 -0.0940 -0.1198
25791W        W39205   9.699   6.899  11.164 -0.0047  0.1912  0.1010
25792W        W39206   3.767   8.666  15.280 -0.1235 -0.0107  0.0699
25793W        W39207   5.528  17.884   4.255 -0.2206  0.0534 -0.0272
25794W        W39208   0.618  17.387   3.425 -0.2013  0.0981  0.3651
25795W        W39209  10.687  18.312  11.561 -0.3271 -0.1966  0.1496
25796W        W39210   2.244   5.184   2.903  0.4749  0.0494  0.1678
25797W        W39211   9.361   8.126  11.810  0.1272 -0.1685 -0.1442
25798W        W39212   4.677  10.125  15.392  0.2289 -0.2701 -0.0507
25799W        W39213   1.000   8.127  15.083  0.4224  0.5575  0.4478
25800W        W39214   0.153  15.004  16.245  0.0114 -0.3217  0.1224
25801W        W39215  15.140   4.280   6.208  0.4390  0.0523 -0.0768
25802W        W39216  18.458  15.580   1.295 -0.0211 -0.0309  0.5653
25803W        W39217  14.996   2.262  10.634  0.2020 -0.0898  0.3669
25804W        W39218  16.980   9.234   2.323 -0.0862 -0.1505  0.1473
25805W        W39219   3.036  16.439  10.839 -0.0356  0.1867  0.0588
25806W        W39220   1.775  14.111  15.630  0.0640 -0.2151  0.1697
25807W        W39221   5.843   4.259  10.352  0.0092  0.1227 -0.0087
25808W        W39222   8.107  13.567  10.177 -0.0047  0.0618 -0.1080
25809W        W39223   7.618   9.540  12.553 -0.0324  0.0064 -0.2482
25810W        W39224  15.422   2.685  11.797  0.1615 -0.1711 -0.0227
25811W        W39225  16.719  17.843  13.573  0.1602 -0.0555 -0.1470
25812W        W39226   8.123   5.507  14.124  0.1797  0.2416  0.0418
25813W        W39227   1.623  14.062   1.141 -0.2848 -0.2604  0.1833
25814W        W39228  10.501   2.690  14.532  0.3187  0.0841 -0.0295
25815W        W39229  15.307  15.903   3.894 -0.1683 -0.1605  0.0735
25816W        W39230   8.876   6.628  14.894  0.3609 -0.0519  0.0093
25817W        W39231   5.701  12.615   4.944  0.2268 -0.0817  0.1382
25818W        W39232  15.256   6.277   3.936  0.2195 -0.0118  0.5145
25819W        W39233   8.836  15.172  16.202 -0.1413 -0.1227 -0.2716
25820W        W39234   2.098  16.345   2.818 -0.0798 -0.0189  0.3683
25821W        W39235   9.743  13.737  11.350 -0.0720 -0.0806 -0.1508
25822W        W39236  18.268   2.803  11.968 -0.1782 -0.2932 -0.0479
25823W        W39237   8.407  10.765   2.693  0.1725  0.2239 -0.1777
25824W        W39238   3.869   3.082   0.532  0.3645 -0.0638  0.0223
25825W        W39239   8.918   3.032  13.645  0.1356 -0.0691 -0.1467
25826W        W39240   9.433   1.197  16.029 -0.0606 -0.0429  0.1592
25827W        W39241   8.740   7.937  15.388  0.3244 -0.2202  0.0596
25828W        W39242   3.369  17.932   0.353  0.1379  0.1421 -0.1017
25829W        W39243   7.589   1.793  11.496 -0.1909 -0.5005  0.1251
25830W        W39244   9.388  17.180   3.029 -0.1095 -0.1470 -0.1318
25831W        W39245   2.592   8.292   0.577  0.1890  0.1908 -0.2361
25832W        W39246  13.720   5.241   5.198  0.1030 -0.1479 -0.0176
25833W        W39247  16.220   0.273   1.528 -0.3936 -0.2365 -0.0637
25834W        W39248   0.653   2.426  12.259 -0.4282  0.0454  0.0092
25835W        W39249   5.768   1.435   6.133 -0.0247 -0.4045  0.2675
25836W        W39250  13.587  10.696   1.416 -0.1629 -0.0814  0.0782
25837W        W39251  16.232   0.636  13.638 -0.2338 -0.1804 -0.3167
25838W        W39252  16.413  15.603   0.078  0.0489  0.2256 -0.1202
25839W        W39253   8.488  15.497   4.627 -0.1577 -0.0866  0.0122
25840W        W39254  10.597  14.888  15.801 -0.2092  0.5027 -0.3256
25841W        W39255  12.893   1.276   5.803  0.2093 -0.1137  0.4088
25842W        W39256   5.270  13.219  11.040 -0.1495  0.0826 -0.1248
25843W        W39257   8.609   2.172  14.664  0.1485 -0.0061  0.4310
25844W        W39258   6.463   9.151  10.613  0.2917 -0.0409  0.1106
25845W        W39259  18.032  11.739  16.115 -0.1658  0.0587 -0.3530
25846W        W39260   1.959   7.007  10.462  0.0932 -0.0007  0.0970
25847W        W39261  14.919  14.260  10.836 -0.0176 -0.2066 -0.0890
25848W        W39262   5.488  14.795  11.370 -0.2092 -0.3568  0.0836
25849W        W39263   3.063   7.341   2.237 -0.2305 -0.3215  0.0373
25850W        W39264   4.924   2.609   5.440 -0.0266 -0.3516  0.1376
25851W        W39265  12.534   0.912   4.414 -0.0315 -0.2271  0.1594
25852W        W39266  18.033  18.207   3.855  0.2661  0.1019 -0.0416
25853W        W39267   4.184   8.914  14.150 -0.4194 -0.1381 -0.0233
25854W        W39268   6.894  14.382  13.252 -0.3318  0.0777  0.0072
25855W        W39269  14.847  10.668   0.614  0.4499  0.2119  0.0621
25856W        W39270   5.777   4.087   4.654 -0.1866 -0.0015  0.0562
25857W        W39271  13.100   9.719  13.122 -0.1959  0.1247  0.1532
25858W        W39272  15.395  14.843   2.822  0.1504 -0.0979  0.0645
25859W        W39273   5.356  18.342  11.947  0.0699  0.2610  0.3540
25860W        W39274   3.263  13.129   0.410  0.1486 -0.0743 -0.0646
25861W        W39275  16.995  15.910   4.296 -0.2535  0.3569 -0.1901
25862W        W39276   7.881  10.530   4.005 -0.2843 -0.4761  0.1231
25863W        W39277   7.428  10.921   1.091  0.2689  0.2967  0.1325
25864W        W39278   2.832   2.754  13.726  0.0344  0.1107  0.2426
25865W        W39279   2.973   4.235   3.835  0.0917 -0.0304 -0.3924
25866W        W39280  17.893  11.514   4.871 -0.0845  0.1358  0.2417
25867W        W39281   8.202  12.134  12.880  0.0530 -0.2408 -0.0167
25868W        W39282   7.637  11.132  15.559 -0.1359  0.1796  0.2431
25869W        W39283   9.359   0.846   3.746 -0.0578 -0.2147  0.2304
25870W        W39284  18.464  10.957  12.058 -0.1150  0.2266  0.3148
25871W        W39285  12.416   5.787  15.583  0.0865 -0.0913 -0.0302
25872W        W39286  15.789  13.175  12.284 -0.0435  0.1488  0.0548
25873W        W39287  13.199   0.583   1.531 -0.1688 -0.0055  0.2096
25874W        W39288   1.539  12.901  12.665  0.4062  0.1578 -0.1376
25875W        W39289   6.941   9.697  13.805 -0.1743  0.2958  0.2876
25876W        W39290   1.996  12.579  12.630  0.0682 -0.1639  0.0501
25877W        W39291  16.442   2.807  11.083  0.3327  0.1747  0.1582
25878W        W39292  18.407   4.044  15.568 -0.0828  0.1131  0.4374
25879W        W39293   9.644   5.141   4.804 -0.0119  0.2751 -0.2802
25880W        W39294   0.697  13.441   4.035 -0.1651 -0.0247  0.1084
25881W        W39295  16.344  17.926   0.242 -0.0884 -0.1585  0.0963
25882W        W39296  10.831   6.683   3.968 -0.0544  0.1046 -0.0609
25883W        W39297   8.552  15.673   3.682  0.2150 -0.0868  0.3480
25884W        W39298   2.100  15.796   2.808 -0.0773 -0.1725 -0.0562
25885W        W39299   3.147   8.044   2.753 -0.0966  0.0802 -0.1809
25886W        W39300  15.529  10.542   3.868 -0.2387  0.0693  0.1226
25887W        W39301  11.503   0.696   1.596  0.1194  0.1554 -0.0500
25888W        W39302  11.752   4.484  10.810  0.0009 -0.2317 -0.0989
25889W        W39303  17.850  10.420  14.752 -0.1485 -0.1751  0.2182
25890W        W39304   5.276   6.900   6.062  0.2535  0.1208 -0.3585
25891W        W39305  17.264   2.437   5.291 -0.0967  0.0690 -0.3870
25892W        W39306   5.259   2.280  14.362 -0.1040 -0.3249 -0.1241
25893W        W39307  10.442   2.536   6.198 -0.0257  0.0155  0.0449
25894W        W39308  16.518   8.023   5.071 -0.0416  0.2369 -0.0425
25895W        W39309  13.992  10.529   0.567  0.2047  0.1149 -0.0577
25896W        W39310  15.558  13.846   6.228  0.1158 -0.2772 -0.4907
25897W        W39311   1.987   9.337  12.300  0.0299 -0.3511 -0.0573
25898W        W39312   3.148  14.281   3.756 -0.4296 -0.2972  0.2088
25899W        W39313  17.917   2.013   0.736 -0.1868 -0.1830  0.0820
25900W        W39314   9.287   3.863   3.557  0.1182  0.0426 -0.0527
25901W        W39315   5.242  15.368   0.509  0.0538 -0.1286 -0.1571
25902W        W39316   8.451  15.781  15.743  0.1732  0.2953  0.3175
25903W        W39317   7.615  12.520   2.861 -0.0413  0.0900  0.0905
25904W        W39318   1.257  18.076  13.702  0.2796  0.0648 -0.1631
25905W        W39319  13.765  13.390  10.931  0.1086  0.1279  0.2396
25906W        W39320   0.274  10.559  15.550  0.2216 -0.1478  0.1944
25907W        W39321   9.415   6.425  16.086 -0.0566 -0.0839 -0.3282
25908W        W39322  12.759  17.761  15.098 -0.0129 -0.3318  0.0342
25909W        W39323   0.373  14.131  15.389  0.1974 -0.0649  0.0296
25910W        W39324   5.776  11.177   5.084  0.0053 -0.2261  0.0952
25911W        W39325  10.947   5.726   2.884 -0.1235 -0.0840  0.1170
25912W        W39326   2.743  13.748   0.075  0.2130  0.0735  0.1432
25913W        W39327   3.791   8.568   1.059  0.0224  0.2335  0.2054
25914W        W39328  11.349   8.913  11.056 -0.1962  0.1239 -0.3345
25915W        W39329   0.572   6.149   2.111 -0.1155  0.3669  0.1956
25916W        W39330   8.215  14.068   2.823  0.1500 -0.0499 -0.0793
25917W        W39331   4.177  13.612  10.987 -0.4360 -0.0028 -0.2346
25918W        W39332  13.324   5.522  15.968  0.0119  0.2194 -0.1297
25919W        W39333   2.653   1.525  12.354  0.1193  0.1067 -0.0227
25920W        W39334   1.384  14.675   1.890  0.1272 -0.0727 -0.2106
25921W        W39335  16.585  17.308  13.607  0.2339  0.2528 -0.2579
25922W        W39336   8.001  18.155  13.524  0.0759 -0.0582  0.1416
25923W        W39337   0.877   6.768   5.019  0.1405  0.0202  0.1327
25924W        W39338  17.413  14.665  13.259 -0.0325  0.0307  0.6507
25925W        W39339   1.560  10.214   0.376  0.0832 -0.1086  0.1131
25926W        W39340  12.245  16.342   1.545  0.0730  0.0633 -0.0076
25927W        W39341  10.906  12.267   5.453  0.0823  0.1355  0.0186
25928W        W39342  15.942  10.943   6.147 -0.1226  0.2688 -0.3431
25929W        W39343  16.291   3.029  15.003  0.0022  0.0882 -0.2271
25930W        W39344   3.358  16.750  13.742 -0.0328 -0.2540 -0.0050
25931W        W39345   2.446  11.868   1.712  0.0421 -0.1047  0.0974
25932W        W39346   7.858  13.065  12.737 -0.2751  0.0289 -0.2815
25933W        W39347   2.778  12.111   3.566 -0.0199  0.0658  0.1091
25934W        W39348   7.739   1.386  12.428  0.2959  0.4208  0.1283
25935W        W39349  10.041  11.705   4.326  0.2946 -0.1105 -0.1875
25936W        W39350  11.597   2.369   4.842  0.1830 -0.1881  0.0351
25937W        W39351  13.267   9.826   3.132  0.1817 -0.4077  0.1177
25938W        W39352  17.084   4.471   3.803  0.0394  0.2746 -0.0052
25939W        W39353   6.463  18.139  12.831  0.0576 -0.5144  0.4227
25940W        W39354  12.561  11.928  15.260  0.2310  0.1015  0.0785
25941W        W39355   7.770   5.355   2.530  0.0554 -0.2829 -0.1339
25942W        W39356   1.794   8.294   3.155  0.1803  0.0319 -0.0328
25943W        W39357  15.311   2.473  15.881 -0.0644 -0.0026 -0.0383
25944W        W39358   1.779  18.013   1.735 -0.2249  0.1215  0.4070
25945W        W39359   5.672  10.251   0.634  0.0333 -0.2013  0.2592
25946W        W39360   6.091   8.826  15.587 -0.0831 -0.1501  0.1098
25947W        W39361   0.461   9.012   3.414 -0.1092  0.2752 -0.0201
25948W        W39362  18.133  14.729  10.491 -0.3090 -0.0457  0.2697
25949W        W39363  16.905   3.371   1.141  0.1763 -0.0033  0.1647
25950W        W39364   1.561   4.992  14.671  0.0621  0.2213  0.2295
25951W        W39365   0.577   5.104   4.956  0.1306  0.3199 -0.1658
25952W        W39366   1.955   4.965  16.014  0.2261  0.0716  0.0005
25953W        W39367   5.949   6.687   2.768 -0.2018  0.0919  0.0958
25954W        W39368  10.735   3.626   4.724  0.1121  0.0882 -0.2646
25955W        W39369  18.362  14.774   2.662  0.0871 -0.0227  0.2608
25956W        W39370   4.387  17.306  15.022 -0.1661  0.1993 -0.0191
25957W        W39371  18.369  18.048  11.383  0.2739  0.0537  0.3278
25958W        W39372   6.285   8.321  13.555  0.1739 -0.6364 -0.3377
25959W        W39373  14.619   6.559   1.357 -0.1837 -0.4668  0.0066
25960W        W39374  16.255   2.502   4.993 -0.0067 -0.1618  0.0611
25961W        W39375  11.004  15.007   0.694 -0.0056  0.1786 -0.2782
25962W        W39376  14.236  18.452  14.861 -0.2029 -0.0503  0.1298
25963W        W39377  17.144  14.069   5.674  0.2360  0.5117  0.2251
25964W        W39378   5.362   1.297  12.096  0.2176  0.0612 -0.1806
25965W        W39379   8.981   5.506  11.175 -0.1636 -0.2641 -0.3736
25966W        W39380   7.593  15.298  10.456  0.2375  0.1918 -0.3131
25967W        W39381  14.630  16.514   4.416  0.0316  0.1096  0.0209
25968W        W39382   8.391  17.644  10.652  0.0322  0.2086  0.0414
25969W        W39383  15.755  15.197   1.722  0.0090 -0.1104 -0.0218
25970W        W39384   2.653  13.540  14.619 -0.0597  0.5227 -0.0019
25971W        W39385   7.329  16.681  12.581 -0.1834 -0.0566  0.0765
25972W        W39386  13.230  18.339   1.709  0.1139  0.2451  0.0851
25973W        W39387   2.464   9.264   2.762  0.2415  0.2418 -0.0940
25974W        W39388  16.833   1.611   1.616  0.0200  0.2319 -0.0814
25975W        W39389   1.798   8.939  12.828  0.2174 -0.4332 -0.0493
25976W        W39390   0.645   9.550  11.419 -0.0207 -0.1414 -0.0330
25977W        W39391   6.426   2.440  10.579 -0.0471 -0.5114  0.1489
25978W        W39392   5.870   8.604  14.979  0.1318 -0.1819  0.0531
25979W        W39393  14.865   7.751   5.494 -0.1713  0.1648 -0.0766
25980W        W39394  11.294   1.952  14.487  0.0784 -0.2086  0.1311
25981W        W39395  11.161   0.091   0.535  0.1730 -0.0100  0.0109
25982W        W39396   1.855   2.313   3.383 -0.1759  0.0047 -0.1719
25983W        W39397   9.243   8.476  12.285  0.2310 -0.0552 -0.2656
25984W        W39398  10.046   6.099  12.000  0.0518  0.1092  0.2551
25985W        W39399  10.423   4.865  14.541  0.0800  0.1119  0.1004
25986W        W39400   4.091  10.121  16.130 -0.2752  0.3995  0.1345
25987W        W39401  16.479  13.497  16.041 -0.1385 -0.1174 -0.2419
25988W        W39402  14.142   8.054   2.954 -0.1396 -0.0223 -0.0258
25989W        W39403  10.072   2.784   4.689  0.0415  0.1084 -0.0651
25990W        W39404   7.145  11.850  14.763 -0.1153  0.0875  0.3031
25991W        W39405   8.152  11.192   1.114 -0.1923 -0.0010  0.0729
25992W        W39406  12.358   3.674   1.099  0.1695 -0.1884 -0.4226
25993W        W39407   4.421   8.367   4.973  0.1114 -0.2118  0.3268
25994W        W39408  10.141   8.173   1.899  0.1600  0.1710  0.1850
25995W        W39409  18.292  15.838   4.031 -0.1219  0.2520  0.1353
25996W        W39410   1.333   6.422  12.786 -0.2046 -0.2455 -0.2303
25997W        W39411  12.807  16.161   3.584 -0.0281  0.1892  0.1108
25998W        W39412  17.282  16.802   0.328  0.1271  0.1350 -0.1269
25999W        W39413   4.083  15.861   1.581  0.0044 -0.1519  0.2105
26000W        W39414   4.411  12.717   3.709  0.0575  0.2385  0.1752
26001W        W39415   0.647  11.767   5.191  0.0022 -0.2344 -0.2202
26002W        W39416  13.772   4.202   4.294  0.1323  0.2316  0.0671
26003W        W39417   5.823   1.335   0.175  0.1422 -0.3892 -0.0299
26004W        W39418  13.488   7.037   0.557  0.2763 -0.1428 -0.0685
26005W        W39419   3.729  12.368  13.423  0.0596 -0.0568  0.0061
26006W        W39420  15.695   8.603  11.187  0.0704 -0.0259 -0.0840
26007W        W39421  10.902   1.771   5.858  0.0624 -0.1209  0.0141
26008W        W39422   8.290   8.061  15.881  0.1441 -0.2790  0.0629
26009W        W39423   4.204  17.673  12.649  0.1266 -0.0527  0.0174
26010W        W39424   9.250  13.144  14.279 -0.1722 -0.0380  0.0480
26011W        W39425   3.360   9.649  11.950  0.0997  0.0292  0.1679
26012W        W39426  12.876  16.260  12.650 -0.2335 -0.2401 -0.0454
26013W        W39427   3.638   9.611   0.898  0.1235 -0.1303 -0.2458
26014W        W39428   8.378   3.284  15.208 -0.0012  0.0782 -0.0465
26015W        W39429   2.703   0.894  10.534  0.0578  0.1443 -0.3200
26016W        W39430  16.182   0.693   1.895  0.1203 -0.0322 -0.2040
26017W        W39431  17.967  14.797  12.382  0.1791 -0.2568  0.2917
26018W        W39432   2.840  18.424  15.899  0.1850 -0.0042 -0.1016
26019W        W39433   9.828   8.274   0.587  0.0947 -0.0581  0.1054
26020W        W39434   6.436  16.181  10.953 -0.2360  0.1878 -0.2438
26021W        W39435  12.396   2.726  14.924  0.0226  0.0988  0.1199
26022W        W39436   7.878   9.218   1.446 -0.0281  0.0157 -0.2455
26023W        W39437   3.144   5.367  12.077  0.1441  0.1055 -0.2177
26024W        W39438  11.721  10.186   5.883 -0.1182 -0.1842 -0.1173
26025W        W39439   4.654   4.285   4.524 -0.1518 -0.0852 -0.1407
26026W        W39440   6.174  11.502   5.084 -0.2409  0.0118 -0.0039
26027W        W39441   3.470   4.262   4.739  0.0719 -0.4113  0.2130
26028W        W39442   4.004  12.956   3.919 -0.2411 -0.0995  0.5307
26029W        W39443   7.774  16.709   5.913 -0.1352  0.1192  0.2017
26030W        W39444  17.652   1.836  15.059 -0.1203 -0.0732  0.2497
26031W        W39445   7.812  12.109   0.909 -0.1333 -0.1335  0.3555
26032W        W39446  12.543  11.351   4.322  0.0109  0.0616 -0.2226
26033W        W39447   3.557   4.586   1.477  0.2284  0.0634 -0.0020
26034W        W39448  14.458  15.330   6.108 -0.0819  0.1551  0.0978
26035W        W39449   6.204   1.630   0.027  0.0446 -0.0114 -0.0568
26036W        W39450  11.188   1.184   3.925 -0.0484 -0.0315  0.1651
26037W        W39451  13.470   4.919  15.799 -0.4753 -0.0767 -0.2941
26038W        W39452   5.447   7.593  11.762 -0.2051  0.0984 -0.0228
26039W        W39453   8.091   5.529   0.498  0.0012 -0.2779  0.0602
26040W        W39454   6.548  18.130   2.009 -0.1727  0.0691 -0.1237
26041W        W39455   6.539  10.891   2.788  0.1172 -0.1371 -0.0855
26042W        W39456  13.260   5.943   5.088 -0.0330  0.0970  0.0196
26043W        W39457  17.340   7.587  11.991 -0.3159  0.2003  0.2280
26044W        W39458  12.724   9.678   0.283 -0.0762  0.1329 -0.1269
26045W        W39459  17.601   2.284   2.538  0.0682  0.2722 -0.2051
26046W        W39460   8.932  10.939   2.524  0.1911 -0.0500  0.0645
26047W        W39461  15.574  14.590   0.527  0.1201  0.1011  0.1650
26048W        W39462  16.575   8.710   4.926 -0.1917  0.1036  0.3201
26049W        W39463   9.396  14.956   1.414  0.1467  0.2897  0.4332
26050W        W39464   7.616  16.788   5.045  0.0671  0.1788  0.2668
26051W        W39465   4.965   5.102  12.498  0.2813 -0.1795 -0.2991
26052W        W39466   1.375   4.937   5.247  0.1856 -0.1584  0.1720
26053W        W39467  15.686   1.298  15.970 -0.0806  0.3601 -0.1239
26054W        W39468   4.459   3.751  14.387  0.3346  0.5987 -0.0491
26055W        W39469  15.397   2.224   0.047  0.0690  0.1210 -0.1518
26056W        W39470  18.448   0.150  15.717  0.2387 -0.0663  0.1801
26057W        W39471  11.784  13.406  13.149 -0.2200  0.1001 -0.0198
26058W        W39472  12.042  14.856  13.092 -0.2490 -0.1448 -0.1989
26059W        W39473  16.332   3.953   1.217 -0.2106 -0.0439  0.3856
26060W        W39474   4.231   1.218  14.973 -0.2056 -0.0796  0.1391
26061W        W39475   1.984   8.174  10.941 -0.0868 -0.0312 -0.0792
26062W        W39476   3.360   3.840  10.392 -0.1781 -0.0612  0.0845
26063W        W39477   2.519  13.766  15.016  0.1124  0.3398  0.2835
26064W        W39478   4.950  10.972   1.917  0.1893  0.0667  0.1033
26065W        W39479   1.289   5.799  15.569 -0.2115  0.2933 -0.0188
26066W        W39480   5.063   2.637   5.936 -0.1139 -0.2520 -0.1474
26067W        W39481   4.611   7.411  11.118 -0.0708 -0.1781  0.0673
26068W        W39482   4.913  10.809  12.141  0.3076  0.2117  0.2386
26069W        W39483   4.576  12.483  12.812 -0.3274  0.0727  0.0257
26070W        W39484  16.560   1.495  15.932  0.2956  0.3808 -0.1436
26071W        W39485   2.045  14.521  15.579 -0.1364 -0.0576 -0.0154
26072W        W39486  16.927   9.549  14.526  0.0245  0.1646  0.0552
26073W        W39487   4.466  11.279   2.768  0.1438 -0.1853  0.1024
26074W        W39488  14.073   0.665   3.384  0.1589  0.1367  0.2054
26075W        W39489  11.274  13.077  13.926 -0.2303  0.0415 -0.0231
26076W        W39490  10.473   5.078  10.543  0.0985 -0.1026  0.0973
26077W        W39491  14.609  12.310  13.738  0.1327  0.1083  0.1293
26078W        W39492   5.486  12.407  12.861  0.1638  0.1120  0.2848
26079W        W39493  17.339  13.591  11.841  0.1308  0.0463  0.1923
26080W        W39494   8.044   5.637   5.301  0.0650 -0.2705  0.1089
26081W        W39495  11.753   4.826  11.259  0.0823  0.3927  0.0584
26082W        W39496  11.816  15.745  11.322 -0.0592  0.1215 -0.0820
26083W        W39497   6.968   2.670  11.800  0.3229  0.0469  0.0143
26084W        W39498   7.770  11.050   1.493  0.1337 -0.3135 -0.0687
26085W        W39499  15.690   5.509  15.552 -0.0143  0.1117 -0.3058
26086W        W39500  16.569  10.786   1.283 -0.2227  0.4069 -0.0082
26087W        W39501   7.274  16.081  12.235  0.0826 -0.0067  0.5665
26088W        W39502   0.485   6.186  11.759 -0.2254 -0.1821 -0.0989
26089W        W39503   0.973   2.621  13.548 -0.2166  0.0288 -0.1920
26090W        W39504  13.970   4.882  11.039  0.1495  0.1990 -0.0067
26091W        W39505  15.235   7.663  11.085 -0.0320 -0.1290  0.2795
26092W        W39506   2.926   6.353  15.079 -0.3949  0.1180 -0.0379
26093W        W39507   9.342  10.569   3.115 -0.0462 -0.2725 -0.2186
26094W        W39508   8.003  14.993   3.707 -0.2499  0.0452  0.0220
26095W        W39509  13.019   6.520   0.079  0.0104 -0.0423  0.0436
26096W        W39510   7.354   2.498  13.946 -0.0615  0.1821  0.0375
26097W        W39511  15.936   3.439  10.658 -0.3703  0.0176 -0.1156
26098W        W39512  11.148   5.275   4.811  0.0810 -0.0378 -0.0324
26099W        W39513   5.083  12.899  15.795  0.0752  0.1029 -0.0132
26100W        W39514   7.342  14.508   3.083 -0.3148 -0.0889 -0.0717
26101W        W39515  11.491   7.045  15.232 -0.1318 -0.0312 -0.1293
26102W        W39516   1.297  13.731  15.626  0.1019  0.3394  0.3414
26103W        W39517   0.305  18.267   3.632 -0.2442  0.1558 -0.0370
26104W        W39518  10.167   9.949   0.367 -0.0282 -0.4129  0.2644
26105W        W39519  10.857   1.783  11.490  0.1424 -0.1440  0.3433
26106W        W39520   2.870   9.800  13.225  0.0365  0.1167  0.0935
26107W        W39521   4.387   9.848  11.336  0.2806 -0.0414  0.1359
26108W        W39522  16.124  12.362  10.965 -0.1074 -0.2022 -0.1662
26109W        W39523  12.123  11.639   1.438 -0.1055  0.0856 -0.1911
26110W        W39524  17.021   3.977  11.042 -0.1868 -0.1436 -0.0452
26111W        W39525   1.418   4.534   4.248 -0.1867 -0.0555  0.1025
26112W        W39526   4.773   2.841  15.169  0.0215  0.3548 -0.0371
26113W        W39527  12.247  16.626  14.103  0.0502 -0.0342 -0.0560
26114W        W39528   6.314  15.875   1.717  0.3183 -0.1507 -0.0460
26115W        W39529   1.317  10.132  14.912 -0.0333  0.1426  0.0462
26116W        W39530   6.200   8.631   1.172 -0.1294  0.2359 -0.2016
26117W        W39531   8.629   1.604   2.055  0.2538  0.3149  0.0560
26118W        W39532  17.440  10.638  11.027 -0.2000 -0.1861 -0.0046
26119W        W39533  17.340   9.056  12.198 -0.2720  0.1196  0.3875
26120W        W39534  16.540   0.244   4.635  0.4157 -0.2016 -0.0403
26121W        W39535  12.753  11.496   3.312  0.1125  0.1163  0.1400
26122W        W39536  16.378  15.261   0.633 -0.1962 -0.0179 -0.1302
26123W        W39537   9.172   1.986   2.150 -0.0800  0.0341  0.3149
26124W        W39538   7.267   1.511   2.287  0.2997  0.2689 -0.0841
26125W        W39539  11.085   2.808  14.134 -0.0572 -0.2291 -0.1907
26126W        W39540  12.939   0.030  12.295  0.2669  0.4130 -0.1593
26127W        W39541  16.870  13.842   3.464  0.2855  0.0448 -0.0633
26128W        W39542  15.438   9.910  16.233  0.2243 -0.0542 -0.4383
26129W        W39543  15.159   5.442  14.061 -0.0298 -0.2496  0.1191
26130W        W39544  13.276   1.122  14.878 -0.1540 -0.5365  0.1385
26131W        W39545   6.478   0.251   2.247 -0.1233  0.4652  0.1123
26132W        W39546   5.951  12.489  12.646 -0.3050 -0.0911  0.2255
26133W        W39547  12.831  16.725  10.586  0.0023  0.0653 -0.1223
26134W        W39548   0.856   2.470   5.994  0.1985  0.0333  0.0637
26135W        W39549   5.627  15.220  14.808 -0.2964 -0.1598  0.0515
26136W        W39550   0.704   3.774   5.456  0.0321 -0.2931  0.0637
26137W        W39551  10.137   2.641  10.015 -0.1455 -0.0355  0.0424
26138W        W39552  14.976  14.917  12.931  0.1050 -0.0230  0.0200
26139W        W39553  11.027  15.718  12.032 -0.0688  0.0427 -0.1055
26140W        W39554   7.153   2.855   4.326  0.0018 -0.0471 -0.1078
26141W        W39555  11.938   3.219   2.691 -0.0407  0.2744 -0.2042
26142W        W39556  11.160   9.998  12.928  0.2082  0.1870  0.1675
26143W        W39557  14.742   7.591   1.590  0.0169  0.0378 -0.2964
26144W        W39558   1.008  17.878  12.391  0.2178 -0.0192 -0.0929
26145W        W39559   0.426   0.925  14.354 -0.2223 -0.0082 -0.0237
26146W        W39560   5.820  14.068  10.820 -0.0610  0.0067  0.3420
26147W        W39561   0.076   5.185   5.828  0.5561 -0.2002 -0.3242
26148W        W39562   0.911   6.134  12.581 -0.0218  0.0831 -0.1123
26149W        W39563   6.869   1.419  14.511 -0.2964 -0.1901  0.2835
26150W        W39564   0.942  18.315  15.040  0.1624 -0.1268 -0.1217
26151W        W39565   8.354  10.226   2.768  0.4485 -0.3368  0.0578
26152W        W39566  11.511  14.233  13.788 -0.1283  0.1526  0.1685
26153W        W39567   3.104   0.219   5.598 -0.2846  0.1792  0.1690
26154W        W39568   4.104   2.168  14.514  0.0539  0.1841  0.3462
26155W        W39569  15.983   4.538  13.342 -0.4102  0.1882 -0.2698
26156W        W39570   4.765   1.614   4.736  0.0681 -0.1101  0.0314
26157W        W39571  17.613  14.758  12.760 -0.1744 -0.0853  0.1245
26158W        W39572  12.405   6.187   4.919 -0.0272  0.1083  0.1648
26159W        W39573   6.536  14.146   1.816 -0.2155  0.0612 -0.0894
26160W        W39574  12.793  12.315  14.648  0.0734 -0.1917 -0.2929
26161W        W39575  15.155  15.040  14.627  0.2253 -0.0045  0.1185
26162W        W39576  16.100  14.441  11.265 -0.1312 -0.0109  0.0260
26163W        W39577  17.014  15.746  15.451  0.2000 -0.1511  0.1102
26164W        W39578   1.384  13.080  15.329  0.0850 -0.0453  0.0345
26165W        W39579   4.095   9.046   2.179 -0.0740 -0.2499  0.0138
26166W        W39580   9.547   5.074  14.971  0.2736 -0.3186 -0.0022
26167W        W39581   7.714   7.607   0.819  0.0654 -0.2297 -0.0772
26168W        W39582  11.695   2.114  15.203 -0.2244 -0.1697  0.1164
26169W        W39583   7.847   6.028   2.880  0.1818  0.1503 -0.3611
26170W        W39584   2.476   8.769   5.257  0.0153 -0.0634 -0.0053
26171W        W39585   2.717   6.597  14.398  0.3939 -0.0084 -0.0602
26172W        W39586  15.035   4.794  15.524 -0.0910 -0.2864 -0.0100
26173W        W39587   3.904   4.720   5.392  0.0115  0.2494 -0.1700
26174W        W39588   1.799   7.826  11.937  0.2324  0.3169  0.0125
26175W        W39589  14.386   4.209  11.938  0.2591  0.3416  0.0826
26176W        W39590   6.479  16.545   5.387  0.1628  0.2411  0.5227
26177W        W39591  10.827   0.063  15.875  0.0088  0.1810  0.0331
26178W        W39592  10.450   3.196   4.760  0.2569 -0.2833  0.0304
26179W        W39593  15.802   3.650   4.635 -0.0420 -0.1738  0.1750
26180W        W39594  10.098   4.407   1.808 -0.1700 -0.2783 -0.0558
26181W        W39595   1.967   4.097   5.702  0.0325  0.1220  0.1515
26182W        W39596   4.740   0.910   5.373 -0.0298 -0.2843 -0.0988
26183W        W39597  11.470   7.359  12.341  0.2645  0.1900  0.1509
26184W        W39598   6.855  11.192   4.400  0.1922  0.1239 -0.2220
26185W        W39599  16.206   2.373   1.200  0.0779  0.0502  0.0150
26186W        W39600  12.765   5.897   2.081 -0.1420  0.0026 -0.2009
26187W        W39601  10.115   0.566   0.060  0.0492 -0.1809  0.3624
26188W        W39602  11.069   6.913   0.477 -0.2350 -0.2721  0.1307
26189W        W39603  12.618   3.473  15.066 -0.2669 -0.1839 -0.2055
26190W        W39604   3.031   5.418  13.018 -0.1197 -0.1396 -0.1906
26191W        W39605  11.584   6.022   3.058  0.2476 -0.1560 -0.0123
26192W        W39606  15.773  16.785   3.658 -0.0534 -0.3065  0.3800
26193W        W39607   4.854   5.261  12.002  0.0140  0.3436  0.1012
26194W        W39608  17.816   8.176   2.491  0.0754 -0.0492 -0.0682
26195W        W39609   7.778   9.522   0.489 -0.0464  0.0718  0.3107
26196W        W39610   4.109   5.088  15.563 -0.1193  0.0020  0.0517
26197W        W39611   1.361  17.835  13.280  0.0760 -0.1165  0.2450
26198W        W39612   7.000  16.450  11.628 -0.0857 -0.1177  0.3762
26199W        W39613   3.598   2.678   3.886  0.1599 -0.0451 -0.1339
26200W        W39614  18.287   2.446  15.705  0.6438  0.1158  0.0614
26201W        W39615  16.516   8.279   5.988  0.1772  0.3107  0.1111
26202W        W39616   6.749  10.643   5.116 -0.2034 -0.0195 -0.4254
26203W        W39617  17.775   2.889  10.849 -0.1747  0.0590 -0.4845
26204W        W39618   3.465   5.985   3.511  0.0322  0.1392 -0.1984
26205W        W39619  17.203  18.301  12.995  0.0763  0.0300 -0.2910
26206W        W39620   2.102   4.794   2.556 -0.2128 -0.2428 -0.1449
26207W        W39621  14.705   7.057  11.314 -0.2935 -0.0005 -0.1817
26208W        W39622   8.543  13.906  12.534  0.0523 -0.0711  0.0363
26209W        W39623  14.460   6.153  12.397  0.0457  0.1493 -0.2370
26210W        W39624   8.039  13.199   1.810 -0.1475 -0.0744 -0.0597
26211W        W39625  10.588   0.252   5.404  0.0580  0.0113  0.1838
26212W        W39626  13.178   6.949  11.653  0.0887  0.3263 -0.0717
26213W        W39627   6.664  12.205  13.977  0.1582 -0.0721 -0.0991
26214W        W39628   0.675   2.567  14.574 -0.0306 -0.0531  0.1876
26215W        W39629  12.202  18.483   2.901 -0.3527 -0.1104  0.2320
26216W        W39630   4.567   0.698   2.682  0.2002 -0.0190  0.4025
26217W        W39631   7.655  11.304   0.930  0.1644  0.1514 -0.0537
26218W        W39632  15.530   1.460  13.188 -0.0566  0.2039  0.2542
26219W        W39633   4.270   6.411   1.289 -0.1389 -0.2825 -0.2174
26220W        W39634   4.904  17.105   0.946 -0.0534 -0.0074 -0.1028
26221W        W39635  13.625   0.533  12.026 -0.1989 -0.0277 -0.3404
26222W        W39636   3.495  14.482   0.222 -0.2655  0.1199  0.1576
26223W        W39637   2.420  17.782  15.721 -0.1648 -0.1591  0.0791
26224W        W39638   7.037   5.075  14.327 -0.0017 -0.0883  0.1907
26225W        W39639  14.243   7.194   2.766  0.1238 -0.2742  0.0583
26226W        W39640  15.697  10.147  14.062 -0.1562  0.0365  0.2674
26227W        W39641  16.587   4.758  10.772  0.0438  0.1324 -0.0027
26228W        W39642  14.153  11.324  14.281  0.1235  0.2281 -0.1116
26229W        W39643   0.016   6.220  11.696 -0.2768 -0.0495  0.0114
26230W        W39644  16.857   4.853  13.844 -0.0451  0.2812  0.2556
26231W        W39645   1.740   0.896  10.757  0.2657  0.1052 -0.3316
26232W        W39646  12.808  16.209   1.738 -0.0445 -0.1596 -0.0372
26233W        W39647   5.801  12.559  15.008  0.2583  0.3181 -0.2819
26234W        W39648   0.123   9.044  10.668 -0.0401 -0.0703  0.1247
26235W        W39649   4.611  15.235  13.426 -0.0444  0.2239  0.0636
26236W        W39650  18.371  15.447   1.813 -0.0866 -0.1517 -0.3154
26237W        W39651   4.905   1.349   4.366 -0.0997 -0.3055  0.2228
26238W        W39652  11.616   5.372  13.146  0.0562 -0.0363  0.0966
26239W        W39653  14.788   3.262  15.992  0.2343  0.2185  0.0175
26240W        W39654   2.641  10.896   4.986  0.0667 -0.1374  0.2463
26241W        W39655  12.858  16.459   3.214 -0.0458  0.1929  0.2607
26242W        W39656   9.688  14.956  14.706 -0.2811  0.1091  0.3206
26243W        W39657  16.699   9.866  15.684  0.2125 -0.1030 -0.0657
26244W        W39658   4.516  11.520   3.741  0.0774  0.0708  0.0030
26245W        W39659  13.040  16.362   1.265 -0.4231  0.0012 -0.1734
26246W        W39660  12.235  10.333  13.104 -0.0978 -0.0010 -0.0682
26247W        W39661   5.475   4.155   5.063 -0.0048 -0.1312 -0.0211
26248W        W39662  14.027   2.012   2.138  0.0846  0.1105 -0.0377
26249W        W39663   5.178   7.339   5.329  0.0666 -0.4951  0.0704
26250W        W39664   8.539  12.554  13.103  0.0296 -0.2359  0.2934
26251W        W39665   4.770  14.101   1.776  0.1006 -0.0028  0.2036
26252W        W39666   8.709  11.154   0.165  0.0507  0.0357  0.0418
26253W        W39667  16.280   1.393  12.400  0.3103 -0.2255 -0.2020
26254W        W39668   8.535  10.679  16.034 -0.1992  0.2417 -0.3134
26255W        W39669  12.074  16.546  16.175  0.0664  0.2272  0.4036
26256W        W39670  10.501   4.072  15.687  0.1708 -0.0175  0.0610
26257W        W39671   0.345  14.702  13.307 -0.1048 -0.1761 -0.1977
26258W        W39672   0.111  12.837  14.884  0.2472 -0.2745 -0.0643
26259W        W39673   0.856   7.701  12.421 -0.0123 -0.4100  0.1369
26260W        W39674   9.027   7.665  15.885 -0.2699  0.0505  0.1878
26261W        W39675  10.852  16.614  11.533 -0.3539  0.4414  0.5073
26262W        W39676   5.039   9.568   3.467 -0.0545 -0.1157 -0.1936
26263W        W39677   3.139   9.456   4.502  0.0834 -0.0867  0.1204
26264W        W39678   1.825  10.455  14.161  0.0097 -0.0767  0.3373
26265W        W39679   9.615  17.105   4.442  0.1947  0.0011  0.0384
26266W        W39680  14.507  14.058   1.345 -0.2437  0.2599 -0.1654
26267W        W39681   3.736  15.160   1.079  0.2284  0.0034  0.1464
26268W        W39682   5.260  15.205  13.876 -0.0395  0.0206  0.1100
26269W        W39683  14.901  10.955  12.235  0.3374  0.1460 -0.0762
26270W        W39684  12.886  11.631  16.231 -0.1037  0.0437  0.0000
26271W        W39685   1.059   3.222  13.928  0.1579 -0.1323 -0.1475
26272W        W39686   7.235   9.665  12.013 -0.0067  0.0447 -0.0097
26273W        W39687   6.391   0.227   1.151  0.2433 -0.0941  0.0120
26274W        W39688   3.620  15.317  12.886 -0.1352 -0.0644 -0.3346
26275W        W39689  13.039   5.584   1.753 -0.1472 -0.1221 -0.1853
26276W        W39690  15.737   4.621   9.665  0.1154 -0.0594 -0.0335
26277W        W39691   4.008  15.654   4.712  0.1065 -0.0816 -0.2683
26278W        W39692   1.891  11.842  10.143 -0.0274 -0.3087  0.3154
26279W        W39693   3.505  14.227  11.663  0.1451  0.1706 -0.1545
26280W        W39694   7.129   9.418  11.223  0.2048 -0.1094  0.6177
26281W        W39695  18.279   8.063  15.537  0.0709 -0.0361 -0.0045
26282W        W39696  17.218  16.983  14.154 -0.1167  0.0791  0.0846
26283W        W39697   3.378   7.163  10.404 -0.1486 -0.1853 -0.1257
26284W        W39698  12.681   7.842  12.518 -0.3452 -0.1042 -0.0362
26285W        W39699   4.331  17.933  11.879 -0.0695 -0.1035 -0.0659
26286W        W39700   4.034  11.611   0.323  0.2533  0.0433  0.0790
26287W        W39701   6.182  10.894  16.196  0.2797  0.0128  0.1494
26288W        W39702  16.209  10.698  13.439  0.0962  0.0093  0.0958
26289W        W39703  14.743  18.370   2.189 -0.2237 -0.1484  0.5323
26290W        W39704  14.000   7.353   1.715  0.2691  0.1127  0.0454
26291W        W39705   5.130   9.014   0.398 -0.1335 -0.0766 -0.3131
26292W        W39706   2.476  16.976  12.194 -0.0448  0.0611  0.0280
26293W        W39707  11.377  11.150   5.922  0.4029  0.0203  0.0793
26294W        W39708   2.030   6.966   1.025 -0.1207 -0.4053  0.2108
26295W        W39709   9.891  13.841  14.925 -0.4827 -0.2024  0.1836
26296W        W39710  13.026   3.433  13.414 -0.2354  0.0481 -0.1118
26297W        W39711   1.110   9.033  10.879 -0.2346  0.0341  0.0583
26298W        W39712   0.722   4.133   3.158  0.0557  0.4034 -0.4541
26299W        W39713   1.251   0.222  12.319 -0.2148  0.3803 -0.1325
26300W        W39714  10.252  15.549  11.429 -0.1034 -0.2078  0.3039
26301W        W39715   0.030   3.358   1.173 -0.0610  0.2110  0.1725
26302W        W39716  11.019  11.756   5.319  0.1289 -0.0849  0.0388
26303W        W39717  13.865   5.367   1.938 -0.2377 -0.1815 -0.1473
26304W        W39718   4.463  14.624   1.185  0.2483  0.2363  0.1831
26305W        W39719   8.583  15.682   4.168 -0.0345 -0.4067 -0.0481
26306W        W39720  13.392   7.136   4.884  0.2179  0.2599 -0.0384
26307W        W39721   6.466  13.623  12.249  0.3565  0.1940 -0.1784
26308W        W39722   6.598   4.814   3.897  0.1554 -0.0353 -0.0724
26309W        W39723   2.601  18.501   5.226 -0.0592  0.0684 -0.0576
26310W        W39724   6.860   2.887   1.015  0.3537  0.4564  0.4013
26311W        W39725  14.601  16.536  13.957 -0.3029 -0.2301  0.1857
26312W        W39726  14.235  15.244  15.729  0.2414 -0.2436  0.2024
26313W        W39727   9.128   3.597  14.765  0.0974  0.0847 -0.2767
26314W        W39728   5.345   0.763   3.422  0.0445  0.1587 -0.1467
26315W        W39729  17.291   9.474   1.116 -0.0158  0.0127 -0.3331
26316W        W39730   5.273   7.123  15.138  0.0103 -0.1486  0.1228
26317W        W39731   5.463   5.987  10.509 -0.1018 -0.1726 -0.1592
26318W        W39732   5.591   0.901  10.716 -0.2574  0.0087 -0.1657
26319W        W39733  14.505  10.396   0.144 -0.2306  0.0826  0.1118
26320W        W39734  14.284  14.258   4.552  0.0751 -0.2625  0.0116
26321W        W39735   4.784  10.063  14.629 -0.0187 -0.1451 -0.0465
26322W        W39736   2.628   0.021  10.772 -0.0897 -0.1942 -0.0083
26323W        W39737   3.474   2.357  16.072  0.0051  0.2460 -0.0108
26324W        W39738   4.133  16.428   2.358  0.1241  0.0149 -0.1612
26325W        W39739  15.295  18.419   4.599 -0.0576 -0.1281  0.1895
26326W        W39740  17.887   1.091  12.708  0.1611  0.0712  0.0667
26327W        W39741   1.139  15.094   3.693  0.0000 -0.2040  0.1285
26328W        W39742  14.385   7.518   5.405  0.1701 -0.4803 -0.1680
26329W        W39743   4.905   1.108  14.577  0.2899 -0.1419 -0.0565
26330W        W39744  16.512   6.180  13.256  0.1003  0.0052 -0.0032
26331W        W39745   2.932  12.733  12.576  0.0355  0.0880  0.0191
26332W        W39746   4.595   3.907  13.496 -0.0157  0.1666  0.0852
26333W        W39747  18.028   6.293   1.379 -0.0453 -0.0817  0.0567
26334W        W39748   5.626   0.372   3.396 -0.2571 -0.0987 -0.3684
26335W        W39749   2.520   4.575   2.537 -0.0278 -0.0390  0.0523
26336W        W39750   7.017   2.434   2.608  0.0398 -0.4159  0.0571
26337W        W39751   7.448   8.078  15.518  0.1370 -0.0024  0.3819
26338W        W39752   6.888   8.161   6.449  0.0300  0.0450 -0.1568
26339W        W39753  10.738   7.341   5.885  0.1450 -0.0416  0.1944
26340W        W39754  14.062   5.804   4.206  0.0960  0.0445 -0.1093
26341W        W39755   5.836  12.617   1.899  0.0111 -0.1742 -0.1200
26342W        W39756   2.583  10.130  12.086 -0.1482 -0.1297 -0.0017
26343W        W39757   5.417  12.159  16.126  0.1791  0.1505  0.1878
26344W        W39758   5.452   8.405  10.764  0.0262  0.0320 -0.1165
26345W        W39759   5.384   1.581  15.691  0.1584 -0.2294  0.0868
26346W        W39760  10.939  12.773   2.790  0.1531 -0.2302 -0.0759
26347W        W39761  13.947   5.122  13.790 -0.0498 -0.2339  0.1840
26348W        W39762   6.155  16.161  16.219 -0.0766  0.3030 -0.0637
26349W        W39763  12.864  14.016   4.105  0.1590  0.0470 -0.0155
26350W        W39764  12.935   0.339   4.012 -0.2894 -0.1031 -0.0749
26351W        W39765   7.711  15.025  15.880 -0.2734 -0.0879  0.0144
26352W        W39766  12.015   2.095   3.449 -0.1387  0.0315  0.2239
26353W        W39767  16.542  18.488   0.039  0.0839 -0.0245  0.1766
26354W        W39768  14.931   7.333  13.640  0.3087  0.4339  0.0459
26355W        W39769   8.428   8.001   4.625  0.1910 -0.1223 -0.2203
26356W        W39770   6.282  17.715   2.015 -0.1880 -0.0115 -0.4023
26357W        W39771   1.545  12.796   9.839 -0.4493 -0.2268  0.0119
26358W        W39772   6.958   4.571  10.756 -0.2233  0.0636  0.0464
26359W        W39773  12.735   3.792  13.545 -0.1215 -0.1294  0.0019
26360W        W39774  14.793  11.806   4.200  0.3772 -0.0302  0.2908
26361W        W39775   6.581   3.669  10.403  0.0500 -0.3411 -0.1865
26362W        W39776   0.313   0.978   4.990  0.3605 -0.1531 -0.1266
26363W        W39777  11.414  13.762   4.491 -0.1317  0.2785  0.3382
26364W        W39778   9.501  12.605   1.500  0.0844 -0.2277 -0.0288
26365W        W39779   1.334  18.092  14.812  0.0230  0.0563 -0.3046
26366W        W39780   9.362  11.261  11.627  0.1001  0.0582  0.2712
26367W        W39781   9.794   7.120  13.634 -0.1434  0.1425  0.0519
26368W        W39782  11.609   8.286   6.119  0.2615 -0.2454 -0.0977
26369W        W39783   1.491   3.272  12.573  0.3369  0.2588  0.2258
26370W        W39784  13.503  10.336  14.251  0.1849 -0.1252  0.2096
26371W        W39785  11.206   8.459   0.034 -0.1825 -0.1005 -0.2226
26372W        W39786   7.992   8.196   0.311 -0.3502 -0.2714 -0.0081
26373W        W39787  16.441  10.973  15.861 -0.0548  0.0200  0.0429
26374W        W39788  10.235   5.625  12.025  0.2140 -0.4014  0.0285
26375W        W39789   6.113   4.162  12.981 -0.0188  0.2255 -0.0825
26376W        W39790   3.681  12.204   1.309 -0.0760  0.0734  0.0518
26377W        W39791   2.542  17.429  12.383 -0.1575  0.0631  0.1084
26378W        W39792   1.607   8.715   3.006  0.4109  0.2292 -0.0091
26379W        W39793   5.435  18.334   2.536  0.1344 -0.2420 -0.2304
26380W        W39794   3.253   5.742  14.328 -0.6229  0.3202  0.1267
26381W        W39795  10.742  14.274   3.579 -0.0599  0.0212 -0.1699
26382W        W39796   4.523   5.766  15.901  0.0948  0.2473 -0.0576
26383W        W39797   7.619  12.903  15.886 -0.2622 -0.2177 -0.0005
26384W        W39798   7.936  15.415  13.851  0.1684  0.2475 -0.0808
26385W        W39799   2.234  11.758   2.200  0.1714  0.1551 -0.2287
26386W        W39800   2.811   4.526  15.564 -0.5762  0.0098  0.1666
26387W        W39801   5.103   1.072  14.008 -0.2163  0.3452  0.1266
26388W        W39802  16.923  14.653  10.036  0.0163 -0.1435 -0.3976
26389W        W39803   2.261   2.371   2.886  0.3069  0.1884  0.4217
26390W        W39804   4.757  16.089  15.903 -0.3283 -0.0618  0.1821
26391W        W39805  16.156  13.062   0.038  0.1559  0.1672  0.2686
26392W        W39806  12.574  14.295   5.666 -0.0319  0.2017 -0.0662
26393W        W39807   0.620  10.864   2.053 -0.1882 -0.0443 -0.3064
26394W        W39808   5.244  10.091  11.121  0.1174  0.4417  0.0968
26395W        W39809   8.255  11.827  11.682  0.3199  0.2807 -0.2232
26396W        W39810   0.246  18.504  15.346  0.3021  0.0051  0.5622
26397W        W39811   3.183  17.064   3.126  0.3063  0.1070 -0.0680
26398W        W39812   0.162  12.681  12.645  0.0347 -0.1170 -0.4405
26399W        W39813  18.222  14.111  15.287 -0.1374  0.2293  0.0704
26400W        W39814   7.248   1.309   0.887 -0.2964 -0.4915  0.0453
26401W        W39815   6.214   6.261   1.528  0.2554  0.0171  0.1378
26402W        W39816   8.397  16.391  10.188 -0.3011  0.1288 -0.3769
26403W        W39817  10.226  10.276  12.409  0.1423 -0.0106  0.0499
26404W        W39818   1.542   0.468  11.901  0.3422 -0.4127 -0.1948
26405W        W39819  14.439   9.088  13.099  0.4007  0.1767  0.3005
26406W        W39820  16.283   6.315  12.126  0.1368 -0.0184  0.0397
26407W        W39821  10.380  11.101   1.841 -0.1833 -0.3398  0.1929
26408W        W39822   4.174  16.797  12.478  0.2066  0.2251 -0.0444
26409W        W39823   9.486   1.621   0.105 -0.1473 -0.1507 -0.1579
26410W        W39824   7.690  16.723   3.327 -0.0114 -0.1288  0.2544
26411W        W39825  12.530  10.492   4.809  0.1197 -0.1955  0.0522
26412W        W39826   3.185  14.851  13.462  0.0479 -0.2969  0.0084
26413W        W39827  14.638  10.030  10.888  0.0199 -0.0472 -0.1322
26414W        W39828   5.008   9.786  10.645  0.0752  0.0184 -0.0137
26415W        W39829   7.592  13.645   3.393  0.2322  0.1015  0.0054
26416W        W39830  16.825   7.510  13.456 -0.1752  0.1900 -0.2847
26417W        W39831  12.721  17.999   5.575  0.2534  0.0287 -0.0293
26418W        W39832   6.977  17.347  11.947  0.2221  0.0227 -0.2256
26419W        W39833  10.980  12.004   1.482 -0.1536  0.0860  0.1850
26420W        W39834  11.848  18.473   3.950 -0.1990 -0.1549  0.4465
26421W        W39835   8.344   7.116   3.634  0.0308 -0.1381 -0.1872
26422W        W39836   8.861   2.314   2.538  0.1654  0.2805  0.2998
26423W        W39837  15.812  17.248   1.164 -0.0478  0.1434 -0.1040
26424W        W39838   3.848  14.894   1.817  0.0984 -0.3374  0.0878
26425W        W39839  10.664  18.274   2.490 -0.0678 -0.0663  0.1102
26426W        W39840   6.918   0.987  15.838 -0.2389  0.0566 -0.0692
26427W        W39841   4.986   2.915   2.685 -0.0300 -0.0458 -0.2096
26428W        W39842   5.111   6.761  10.611  0.0256  0.0363  0.0144
26429W        W39843  16.434  11.458   5.094 -0.0539  0.0410 -0.2136
26430W        W39844  11.403   6.522  11.176  0.2028  0.0387  0.0683
26431W        W39845  15.602  17.223   4.924 -0.2316  0.0498  0.0353
26432W        W39846   2.345   8.822  15.713 -0.2644  0.1137 -0.0092
26433W        W39847  15.542  18.298  11.242  0.0094 -0.0376  0.1109
26434W        W39848   1.609   7.750   1.314  0.0133  0.0299  0.2582
26435W        W39849  12.598  11.670   2.168 -0.1494 -0.6656 -0.1157
26436W        W39850   9.410  13.992   0.107  0.0310  0.1608 -0.0306
26437W        W39851   4.973  11.361   1.238  0.2307  0.2137  0.1511
26438W        W39852  14.526  16.657  14.913  0.1988 -0.4017 -0.0201
26439W        W39853   9.530  13.921   1.638 -0.0145 -0.0801  0.0912
26440W        W39854   4.832   6.730   5.743 -0.1212  0.0311 -0.0678
26441W        W39855   5.802  13.457  14.831  0.0211  0.2177  0.1927
26442W        W39856   0.642   9.696   4.943  0.0717 -0.0501 -0.2112
26443W        W39857  11.786   1.869   4.538  0.2289  0.0162 -0.1310
26444W        W39858   0.523   0.457  15.093  0.0145 -0.2711 -0.0898
26445W        W39859   9.926   6.588   0.588 -0.2365  0.0361  0.1333
26446W        W39860   9.073  12.532   0.457 -0.1013 -0.0222  0.0862
26447W        W39861   2.655   3.595  15.801  0.1281  0.1502 -0.0423
26448W        W39862   7.079  10.206   0.267 -0.0015  0.2966  0.0441
26449W        W39863   1.703   8.328  14.270 -0.3040 -0.1210  0.1228
26450W        W39864  16.045   6.461   3.561  0.2596  0.3276  0.1510
26451W        W39865   3.112   1.356  10.710 -0.3095  0.0751  0.0540
26452W        W39866   0.595  10.790  15.143  0.0909 -0.0533 -0.0566
26453W        W39867  17.257  12.903  11.809  0.0445  0.0681 -0.1728
26454W        W39868   2.881   1.184  15.190 -0.0603  0.0306 -0.1788
26455W        W39869  12.199   9.997  12.145  0.1447 -0.1154  0.0805
26456W        W39870  13.133   9.058  12.737  0.3856  0.0388  0.0610
26457W        W39871   9.968   0.519  15.834 -0.2680  0.0941  0.0618
26458W        W39872  15.826   0.238   0.050 -0.0732  0.5898  0.0834
26459W        W39873   8.397   8.060  13.432 -0.3339  0.0934 -0.0743
26460W        W39874   4.861  11.047   9.780  0.3622 -0.2347  0.0338
26461W        W39875   5.848   4.482   3.195  0.2925 -0.2202  0.3179
26462W        W39876   4.110   7.745  13.980  0.1076 -0.1483  0.1064
26463W        W39877  16.488   6.626  15.037 -0.0925  0.1932 -0.1485
26464W        W39878  14.681   5.677   0.803  0.2946  0.0385 -0.1084
26465W        W39879   5.530  16.269  15.705 -0.2732 -0.0359  0.1882
26466W        W39880  10.860   6.265  15.691 -0.1051  0.0688 -0.1690
26467W        W39881  16.646   9.714  13.194 -0.1241  0.0337  0.4244
26468W        W39882  13.301   9.573  13.673 -0.0700  0.2963  0.0259
26469W        W39883   3.683   9.266   3.176  0.1003 -0.1862  0.0826
26470W        W39884  11.107  14.096   0.150  0.1882  0.1649  0.0246
26471W        W39885   4.047  17.485   1.457  0.0384 -0.0079  0.0030
26472W        W39886  17.589   8.161   1.914  0.2198  0.1102 -0.2669
26473W        W39887  10.156   1.449  12.568 -0.0684 -0.0635  0.1522
26474W        W39888  14.418   4.410  13.303 -0.2259 -0.2167  0.4757
26475W        W39889  17.711  18.181   2.787 -0.0089  0.1364 -0.1538
26476W        W39890   8.819   5.450   3.953 -0.0704 -0.0889 -0.4860
26477W        W39891  11.663   9.637   1.006  0.0863 -0.0775  0.3838
26478W        W39892  12.213   2.220   5.501 -0.1964 -0.1424 -0.2126
26479W        W39893  17.364   3.253  13.439  0.0997  0.1985 -0.1856
26480W        W39894   3.277  10.260  13.366  0.1540 -0.0487 -0.1654
26481W        W39895  10.445   6.329   3.862 -0.4132  0.1823  0.1803
26482W        W39896   3.788  13.205  13.079 -0.1662 -0.0758 -0.1854
26483W        W39897  13.410   7.236  12.332 -0.1429  0.1280 -0.3827
26484W        W39898   5.726  15.594  15.873  0.1137  0.0830  0.0615
26485W        W39899  11.540  14.913  13.322 -0.1276  0.2378 -0.0623
26486W        W39900  15.538  10.046  15.359 -0.2129  0.2133 -0.1272
26487W        W39901  17.522  11.135  14.953  0.0884  0.1170  0.6018
26488W        W39902  10.252   0.446   0.555  0.0996  0.2707  0.1878
26489W        W39903   0.939   6.423  13.116 -0.0445  0.2516 -0.0988
26490W        W39904   2.706  18.396   3.564 -0.1011 -0.1570  0.2952
26491W        W39905   4.130   8.993  15.209  0.1623 -0.2859  0.1840
26492W        W39906   7.504   2.264  14.941  0.2800  0.2090 -0.2180
26493W        W39907  15.891   6.211   0.240  0.2802 -0.1375 -0.0148
26494W        W39908  13.976   7.153  13.436 -0.2864  0.0624 -0.1420
26495W        W39909   4.870   6.578   4.927  0.3746  0.0292 -0.0419
26496W        W39910  18.243  14.164   1.546  0.2376 -0.2150 -0.0346
26497W        W39911  14.702   4.398  10.390 -0.1469 -0.1352  0.3692
26498W        W39912  11.065  16.692   2.353 -0.0576  0.1774 -0.0293
26499W        W39913   2.642   0.986   4.239  0.1326 -0.0557  0.1472
26500W        W39914  13.444   9.537   2.751  0.1751  0.1501 -0.0972
26501W        W39915  15.685  12.415   2.022 -0.2384  0.1738  0.0945
26502W        W39916  14.550  17.826  15.602 -0.1360  0.0972 -0.3918
26503W        W39917   7.784  14.011   3.855  0.1726  0.2362 -0.0410
26504W        W39918   8.705  17.262  12.583  0.1696 -0.3489  0.1984
26505W        W39919   1.143   6.893   3.321  0.1388  0.0022 -0.0398
26506W        W39920   1.270   5.044  11.525 -0.1124 -0.1668 -0.0754
26507W        W39921  15.193  10.095   3.514 -0.2826  0.1101 -0.2215
26508W        W39922   0.045   4.554  16.264 -0.2887 -0.0552 -0.2463
26509W        W39923  17.335  13.640  14.002 -0.3871 -0.0549  0.2678
26510W        W39924  15.170  15.327  10.724  0.0890  0.1358 -0.2217
26511W        W39925  18.289  18.452   1.494  0.1740  0.1944 -0.1030
26512W        W39926  13.959   3.675  16.024  0.0202  0.2286  0.1277
26513W        W39927   3.749  17.965   3.619 -0.2134  0.2846  0.1126
26514W        W39928   4.278  10.370  11.555 -0.0090 -0.3389  0.0185
26515W        W39929   3.694   0.774  11.900 -0.1123 -0.1600 -0.0386
26516W        W39930   4.113   7.450   1.132  0.0140 -0.0672  0.1969
26517W        W39931   2.272   3.996  16.252  0.3735  0.0778  0.3250
26518W        W39932   1.914   0.766  11.590  0.0558 -0.3456 -0.1040
26519W        W39933   7.089  18.018   2.596  0.0692 -0.0217 -0.4337
26520W        W39934   3.283  10.450  11.295 -0.0346  0.0343  0.2810
26521W        W39935  14.557   8.202   0.907  0.0965 -0.0401  0.1442
26522W        W39936  13.378  11.234   6.178 -0.1042 -0.2657  0.1180
26523W        W39937  11.879   4.381  12.693  0.3526  0.0166 -0.1704
26524W        W39938  15.192   0.378   5.255  0.0292 -0.0669 -0.1266
26525W        W39939   3.491  10.630  14.342 -0.1327  0.2323 -0.0238
26526W        W39940   7.821  17.408   4.645 -0.0987 -0.0675 -0.1684
26527W        W39941  11.537   7.869   3.305  0.0786  0.3652  0.2194
26528W        W39942  16.962  13.598  14.283  0.2211  0.1560 -0.1154
26529W        W39943  10.742   6.554   0.217  0.3761 -0.0297  0.0339
26530W        W39944  12.879  10.579  10.914  0.0226 -0.2241 -0.1104
26531W        W39945   1.896   1.423  15.132 -0.4279  0.2158 -0.1842
26532W        W39946  11.328   7.169   1.955 -0.1734  0.3390  0.2002
26533W        W39947   9.167  17.633  13.030 -0.3203 -0.1067 -0.1239
26534W        W39948  14.427  13.618  13.682  0.1709 -0.0827  0.1551
26535W        W39949  16.484  10.027   2.547  0.1647  0.1082  0.1414
26536W        W39950   1.016   5.309  14.347 -0.2352 -0.2540 -0.3235
26537W        W39951  16.552  11.984  12.416 -0.1456 -0.0874  0.1165
26538W        W39952   0.719  14.251  14.409 -0.1632  0.0559 -0.1176
26539W        W39953  17.389  12.747  15.568 -0.1537 -0.1214 -0.1650
26540W        W39954   3.349   9.792  13.412  0.1981 -0.1747 -0.1103
26541W        W39955  17.198  11.469  13.306 -0.0357 -0.1271  0.1966
26542W        W39956  16.084  17.663  15.624 -0.1061  0.0755 -0.0151
26543W        W39957  15.482   1.380   1.630 -0.1621  0.1074 -0.1221
26544W        W39958   2.335   7.192  11.548 -0.2415  0.1344  0.3552
26545W        W39959   7.858  10.688   0.093  0.1504 -0.1237  0.0156
26546W        W39960   4.118   3.228   5.687 -0.2461 -0.1726  0.1814
26547W        W39961   1.059  17.683   0.712  0.2537  0.1417 -0.0626
26548W        W39962   0.582   6.869   0.660  0.2444  0.0356 -0.0393
26549W        W39963   8.030  10.306   5.527 -0.0219  0.3233  0.2105
26550W        W39964   8.666   7.632   3.935 -0.0420  0.1217 -0.1472
26551W        W39965  13.158   2.080   2.326  0.1562  0.0669 -0.1242
26552W        W39966  17.817  15.779  10.418 -0.3028 -0.0573  0.1364
26553W        W39967   3.724   1.970  10.306 -0.1978  0.1839 -0.2786
26554W        W39968  10.781  13.877  11.324  0.1027  0.0629  0.1758
26555W        W39969  13.993   4.726  15.120  0.0180  0.0604  0.3056
26556W        W39970   4.368   9.793   4.764  0.1935 -0.1388 -0.3763
26557W        W39971   1.944  13.341   2.457  0.0502  0.4074  0.3019
26558W        W39972   6.980   7.817   2.279 -0.0477 -0.0750  0.0247
26559W        W39973   0.013  10.163   1.146  0.0213 -0.0626 -0.0763
26560W        W39974   7.141  15.513   0.103 -0.1434  0.3647 -0.1824
26561W        W39975  13.661   2.724   1.319 -0.1319  0.0146 -0.2949
26562W        W39976  11.956   2.174  10.677 -0.0701 -0.1543 -0.1943
26563W        W39977  13.735  16.596   2.284 -0.0809  0.0634 -0.4008
26564W        W39978   0.087   7.822  14.681  0.1531 -0.0431  0.0219
26565W        W39979   4.926  12.155  15.498 -0.0795 -0.0403 -0.3218
26566W        W39980  18.035  16.729  15.724  0.2426 -0.5288 -0.2386
26567W        W39981   1.621  13.199  11.818 -0.0732  0.1407 -0.1343
26568W        W39982  14.762  14.991  14.949 -0.2745  0.1298  0.1343
26569W        W39983  11.425  15.491   3.120  0.0328  0.0200  0.2420
26570W        W39984   6.137   3.962  12.051  0.4207 -0.1349 -0.0076
26571W        W39985  11.154  12.801  12.492 -0.0539  0.1110  0.0343
26572W        W39986   6.140   9.123   1.325  0.0985 -0.0536 -0.2854
26573W        W39987   0.212  16.270  12.076 -0.2789  0.0521  0.2119
26574W        W39988  12.144   6.502   0.415  0.0483  0.4608 -0.2684
26575W        W39989  13.026  11.719  13.545 -0.1683 -0.1907  0.0789
26576W        W39990   2.065   7.905   6.221  0.1427 -0.0185  0.2373
26577W        W39991   9.025  10.748   0.024  0.1349 -0.3301 -0.0685
26578W        W39992  17.479  14.862   5.735  0.2256  0.3151  0.1348
26579W        W39993  16.146  15.921  12.663  0.0026 -0.0246 -0.3153
26580W        W39994   6.650  11.278  13.240  0.0036  0.0923  0.1147
26581W        W39995   1.251  15.294  12.487 -0.1032  0.1693 -0.4836
26582W        W39996   3.241   2.363   2.819  0.1519  0.1035 -0.0403
26583W        W39997   1.161   3.257   0.272  0.3164 -0.2334  0.3419
26584W        W39998  11.539   8.639  13.192  0.0881  0.0066 -0.2704
26585W        W39999   6.844   3.928   0.760 -0.2126  0.2464  0.1800
26586W        W40000   3.881  11.247   4.895 -0.0546  0.2008 -0.2027
26587W        W40001  10.892   1.356   6.692  0.2389  0.2125 -0.1901
26588W        W40002  10.360  18.071  12.372 -0.0050  0.2206  0.0781
26589W        W40003  17.728   2.750   1.099  0.0234  0.0597  0.2564
26590W        W40004   1.195  16.111   3.809 -0.1628  0.0441 -0.0288
26591W        W40005   1.536  13.770   3.889 -0.2203  0.0694 -0.0679
26592W        W40006   1.318  16.657  11.013 -0.0289 -0.1970  0.2548
26593W        W40007   8.851  15.167  14.067 -0.3456 -0.0242  0.1112
26594W        W40008   2.096  11.246  15.356  0.1446  0.0439  0.0133
26595W        W40009  16.942   6.091  10.832 -0.1883 -0.1757  0.2999
26596W        W40010  12.005   7.564  15.991  0.2197 -0.1326 -0.2358
26597W        W40011  10.273  10.431  15.812 -0.0641 -0.3549 -0.1834
26598W        W40012  15.406   6.134  14.050 -0.2976 -0.1455  0.0470
26599W        W40013  15.426   6.994  15.198 -0.0555  0.2876  0.0924
26600W        W40014  12.891  10.154   4.569  0.1298  0.1542  0.0548
26601W        W40015   8.666   1.476  15.236 -0.1932  0.1366  0.2778
26602W        W40016   1.317   4.702  11.060  0.1241 -0.1214  0.0057
26603W        W40017   8.427   5.131   0.034 -0.3141 -0.3777 -0.0590
26604W        W40018  11.747   0.715  10.974  0.2649 -0.0992 -0.1227
26605W        W40019  17.336   9.257   0.213  0.4517  0.3325 -0.0785
26606W        W40020  13.840  14.358  14.584 -0.0804  0.1578 -0.2256
26607W        W40021   6.363  17.097   5.500  0.2510 -0.2225  0.1611
26608W        W40022  13.931  14.872  14.313 -0.1928  0.4336 -0.1054
26609W        W40023  10.426  18.499  13.609  0.2077 -0.6274 -0.1399
26610W        W40024   6.186   4.302  11.397  0.3868 -0.4810  0.1705
26611W        W40025  17.774   6.974  10.327  0.1108  0.0016 -0.0068
26612W        W40026  14.102  18.078   1.480  0.2410  0.1590  0.1330
26613W        W40027  11.182   8.981   6.066  0.1394  0.0032 -0.1408
26614W        W40028  15.729   4.886  12.392  0.1956 -0.5539  0.2724
26615W        W40029   8.993   5.799  14.294 -0.5482  0.0714 -0.1536
26616W        W40030  11.711  13.414   2.941  0.1245 -0.0704  0.2205
26617W        W40031  11.562   3.684   5.077 -0.0862  0.1680  0.0075
26618W        W40032   3.193  16.049   2.181 -0.2012 -0.1495 -0.0172
26619W        W40033  10.697   0.476   6.303 -0.1448  0.0134  0.1341
26620W        W40034   1.999  10.219   0.660 -0.1286  0.2798 -0.2533
26621W        W40035   8.705  15.786   4.938  0.1793  0.0762 -0.1984
26622W        W40036   2.608  13.599   4.982 -0.0007  0.0796  0.4182
26623W        W40037   8.331   1.332   3.424  0.0963  0.1002 -0.2057
26624W        W40038   0.051  12.015   1.376 -0.2053  0.2699 -0.0277
26625W        W40039   2.063   7.078   5.816 -0.1815  0.1431  0.0973
26626W        W40040   1.154   9.306  13.555 -0.2533  0.3155  0.2145
26627W        W40041  13.629  12.388   0.340  0.1869  0.0255  0.3350
26628W        W40042   9.031   8.834  12.072 -0.0332 -0.1001 -0.1714
26629W        W40043   0.626   8.932  11.752  0.0501 -0.0151 -0.1170
26630W        W40044   6.791   1.123   1.106 -0.2315 -0.2193  0.1018
26631W        W40045   7.360   8.131   2.173  0.1242  0.0696  0.3261
26632W        W40046  15.562  18.467  12.052  0.0740  0.2564 -0.3185
26633W        W40047   7.089   6.103  15.525 -0.0832  0.0441 -0.0028
26634W        W40048  17.081   1.498  10.096  0.0230 -0.1470  0.2746
26635W        W40049   6.292  12.264  12.315  0.1185 -0.0619  0.2329
26636W        W40050   5.437   1.470   3.480 -0.1880  0.0928  0.0811
26637W        W40051  16.277  14.180   1.810 -0.1377  0.0619 -0.4377
26638W        W40052  10.497   5.629   3.136  0.4496  0.1485 -0.2581
26639W        W40053   8.663  16.567   5.492  0.0722  0.3861 -0.3264
26640W        W40054  11.548   4.998  10.737  0.0274  0.3374 -0.2039
26641W        W40055   0.646  12.525   0.087  0.1709 -0.1573  0.1798
26642W        W40056   6.534  18.211  11.413  0.0454 -0.3986 -0.0934
26643W        W40057  13.366   5.350  14.906 -0.1453 -0.0735  0.0131
26644W        W40058   0.455   1.042  14.880 -0.2066  0.0113  0.3661
26645W        W40059  14.252   5.399  10.277 -0.0109  0.0632  0.0331
26646W        W40060  13.019  13.998   2.777 -0.0080  0.1344  0.0206
26647W        W40061  15.526  12.076  15.489  0.0261 -0.1146  0.0290
26648W        W40062  14.928   9.747   5.178 -0.0897  0.0841 -0.2199
26649W        W40063  16.902   5.322   6.072  0.1123  0.0132  0.3111
26650W        W40064   2.057   1.438   0.376 -0.0027 -0.0381  0.2465
26651W        W40065  10.742  17.474   3.925  0.1155  0.0192 -0.0357
26652W        W40066  16.706  13.915   2.657 -0.4074  0.0124 -0.1432
26653W        W40067   1.635   5.115  14.018 -0.2736  0.1996 -0.1971
26654W        W40068  17.373   2.342  13.461 -0.0143 -0.0415  0.0217
26655W        W40069   4.491  13.777  15.838 -0.1293  0.0150 -0.2180
26656W        W40070  14.123  14.117   1.664  0.1198  0.0016 -0.2318
26657W        W40071   6.445  16.519   4.357 -0.2913  0.0974  0.0252
26658W        W40072   3.430   4.325   0.191  0.1117  0.1875  0.0973
26659W        W40073  15.133   3.142  11.860  0.0386 -0.2060  0.0891
26660W        W40074   9.834   2.273   0.104 -0.2904  0.1260 -0.3489
26661W        W40075  12.238   2.361   3.087  0.0323  0.0740 -0.1883
26662W        W40076   8.825   2.490  12.685  0.0052  0.0859  0.1932
26663W        W40077   3.705  18.397   4.825  0.0537  0.1042 -0.0453
26664W        W40078  14.958  11.923  10.206 -0.0429 -0.0471 -0.1404
26665W        W40079   1.782   6.909  14.778  0.0780 -0.3438 -0.1757
26666W        W40080  15.982  17.611   4.861  0.1465  0.0933 -0.3576
26667W        W40081   2.799  16.027   0.129  0.1332 -0.0142  0.1402
26668W        W40082  14.977  10.112  14.393  0.0667 -0.1376 -0.0237
26669W        W40083   2.865  12.988  15.468  0.2958 -0.0915 -0.3917
26670W        W40084   3.979   5.560   4.808 -0.0703  0.0394  0.0115
26671W        W40085  12.765   8.406  11.501  0.2407  0.0509 -0.1432
26672W        W40086   0.947   5.627   6.514 -0.0244  0.0241  0.1968
26673W        W40087  13.609   6.945  14.629  0.2987 -0.0133  0.1742
26674W        W40088   2.479   6.029  13.355  0.1940  0.0263  0.2038
26675W        W40089   0.676   1.338   2.389  0.2304  0.1251 -0.1345
26676W        W40090   4.023   9.988   0.786 -0.1154 -0.2479 -0.3773
26677W        W40091   1.616  12.654  15.731 -0.1212  0.1812 -0.1564
26678W        W40092   3.874   4.393   2.226 -0.0482  0.0865 -0.0171
26679W        W40093   9.716  14.735  12.281 -0.2470  0.1598  0.0775
26680W        W40094   3.782   3.638  11.898  0.3325  0.1879 -0.1092
26681W        W40095   4.674   1.662  11.142  0.1200  0.3426  0.0318
26682W        W40096   0.029   0.808   5.959  0.0637  0.0225  0.2723
26683W        W40097  13.089   6.277  11.107  0.0804  0.1585 -0.0589
26684W        W40098  10.930  17.822  14.207 -0.2799  0.1065  0.0947
26685W        W40099   4.996   9.435   4.525  0.0800 -0.0720 -0.0642
26686W        W40100  16.372  14.046  11.344 -0.1829  0.3353 -0.0246
26687W        W40101  13.876  15.175   1.970  0.2226 -0.0043 -0.0197
26688W        W40102   4.005   8.311   1.428 -0.1757 -0.1188  0.1242
26689W        W40103   3.342   4.099  12.875  0.3045  0.1421 -0.0710
26690W        W40104  10.242  16.355  15.884 -0.4078  0.1136 -0.3338
26691W        W40105   9.916   7.609  11.040  0.1012 -0.0834 -0.0731
26692W        W40106   2.397   6.741  12.690 -0.1031 -0.2492  0.0811
26693W        W40107  15.168   4.534   3.206  0.1322 -0.1894 -0.0127
26694W        W40108   2.644  16.981   2.005 -0.0852  0.1458 -0.1026
26695W        W40109  14.848   4.666   5.349  0.2450 -0.0683  0.3375
26696W        W40110  11.101   4.610  11.852 -0.1201  0.1669  0.0999
26697W        W40111   5.737   0.150   0.835  0.1557  0.5165 -0.0401
26698W        W40112  17.996  15.345   1.479  0.1057  0.1565 -0.2027
26699W        W40113   5.558   6.697  15.011  0.0712 -0.0778  0.1123
26700W        W40114   1.039   9.482   2.907 -0.0233 -0.0960 -0.1453
26701W        W40115   8.496   0.515  15.547  0.0133  0.0363  0.0548
26702W        W40116   2.622  14.736  10.812 -0.1745  0.0672 -0.2690
26703W        W40117   3.758  16.155  11.925  0.0392 -0.3671 -0.0069
26704W        W40118   7.677  12.408  13.771  0.3577 -0.0904 -0.3374
26705W        W40119  14.188  14.505  12.244 -0.0286 -0.0259 -0.0142
26706W        W40120   4.879   5.582  14.369 -0.0080  0.3415  0.0173
26707W        W40121  16.908   7.704   4.363  0.1607 -0.3676 -0.0550
26708W        W40122   3.803  10.782  15.105 -0.1600  0.1257  0.3044
26709W        W40123  10.681  15.663   3.462 -0.2589  0.2040  0.0977
26710W        W40124   2.612  10.004  14.432 -0.0519 -0.0215  0.0424
26711W        W40125  13.800  10.418   3.224  0.0882  0.1932  0.2148
26712W        W40126   9.374   4.492  13.696  0.0363  0.0120  0.0285
26713W        W40127  14.273   0.535  15.076  0.1513  0.1969  0.1465
26714W        W40128   4.034   1.564   3.229 -0.2291  0.1696  0.1222
26715W        W40129  18.129  12.871   2.998  0.1236 -0.1654  0.3314
26716W        W40130   6.364   6.342   4.165  0.1088  0.0605 -0.3441
26717W        W40131   5.684  16.383   5.016 -0.3202 -0.3661  0.0031
26718W        W40132   6.674  10.236   1.149  0.3145 -0.1092  0.0567
26719W        W40133  11.516   2.435   2.776 -0.2487 -0.1039  0.0543
26720W        W40134  15.167   8.773  12.278 -0.0331 -0.0527 -0.0849
26721W        W40135   0.680  17.486  12.250 -0.2637 -0.0513  0.1533
26722W        W40136   1.659   9.326   1.659 -0.1461  0.1696  0.0760
26723W        W40137   1.045  16.979   2.429 -0.1693 -0.1688  0.0636
26724W        W40138   0.689  11.060  13.730  0.3709 -0.1052 -0.0673
26725W        W40139   0.683   7.775   1.517  0.0576  0.0285  0.3261
26726W        W40140  17.535   6.023  14.102 -0.0781 -0.2614 -0.0989
26727W        W40141  13.735  17.149   5.135 -0.1904  0.2361  0.0812
26728W        W40142   9.722  15.977  10.928  0.2307  0.3607 -0.2534
26729W        W40143  14.230  11.770  15.780  0.0561 -0.0084  0.0106
26730W        W40144   3.175   7.581  15.086  0.1818 -0.0855  0.2618
26731W        W40145  12.458  15.860   1.442 -0.0719 -0.0943 -0.0873
26732W        W40146   2.671  17.909  14.382  0.1626 -0.3384  0.1219
26733W        W40147   1.390  12.214  16.046  0.0647  0.0193  0.1051
26734W        W40148  11.626  10.227  13.979 -0.4282 -0.0465  0.1670
26735W        W40149   8.784  13.448  15.848  0.3627 -0.0094 -0.1151
26736W        W40150  17.978   6.544  15.434 -0.1953 -0.3877  0.1913
26737W        W40151  13.568   1.622   4.405  0.1539  0.4354  0.3035
26738W        W40152  13.504   1.941  10.988 -0.1416 -0.0291 -0.2617
26739W        W40153   1.328  15.719   5.805  0.1976 -0.4936  0.1384
26740W        W40154   8.899   3.193  12.352 -0.2736  0.0714  0.1656
26741W        W40155   3.343   4.322   0.676  0.3543 -0.1739 -0.0922
26742W        W40156   5.055  12.062  12.864  0.2493  0.2450  0.0422
26743W        W40157   7.731  13.043   0.973  0.0835 -0.1043  0.1836
26744W        W40158   3.397   4.853  11.286  0.4221  0.0094 -0.2172
26745W        W40159   8.933  10.910  14.634  0.2124  0.2207  0.0232
26746W        W40160   7.754   7.284   1.218  0.0082 -0.2676  0.0478
26747W        W40161  16.949  11.764   3.606 -0.0136 -0.1806  0.1760
26748W        W40162  17.929  11.301   1.682  0.2202  0.2074  0.1006
26749W        W40163  13.596  12.903  12.321 -0.0248  0.3461  0.2268
26750W        W40164  13.047   5.896   0.135  0.1108 -0.2258 -0.3643
26751W        W40165   6.984   6.942  12.805 -0.1222 -0.0431  0.0178
26752W        W40166   4.506  17.448  10.606 -0.1472  0.4426  0.0465
26753W        W40167   0.953   1.986   0.732 -0.0631 -0.0490 -0.0614
26754W        W40168  13.806  18.294   6.163  0.0951 -0.1892 -0.1385
26755W        W40169   1.683   3.210   1.083  0.1050  0.1475  0.1038
26756W        W40170   2.890   9.484  12.127  0.1046  0.0685  0.2975
26757W        W40171   8.160   1.549   2.718  0.0859 -0.2620 -0.0322
26758W        W40172   8.656  18.164  13.950 -0.2501  0.1061 -0.0324
26759W        W40173   4.364   2.699   9.925  0.0929 -0.1622  0.3717
26760W        W40174   0.516  10.933   3.982  0.0411  0.1682 -0.2845
26761W        W40175  12.212  16.129  12.530 -0.2647 -0.0519 -0.3160
26762W        W40176  17.151   5.856  11.171 -0.0250 -0.1101 -0.1855
26763W        W40177   9.408   6.765   4.659 -0.0482 -0.1525  0.2650
26764W        W40178   5.563  17.969   5.860 -0.1753 -0.0523  0.1291
26765W        W40179   2.390   6.359   3.837 -0.0635  0.2230 -0.0244
26766W        W40180   6.662   4.504   1.316 -0.2622  0.0478 -0.3461
26767W        W40181  14.580  18.441  12.746  0.1145 -0.0521  0.2491
26768W        W40182   6.907   1.437  16.058  0.3707 -0.0544  0.0298
26769W        W40183  16.672  12.095   3.390  0.0667 -0.2921  0.1526
26770W        W40184   1.628   3.107   3.292 -0.0248  0.4553 -0.1823
26771W        W40185   0.816  14.098   2.830  0.1567  0.1140 -0.2987
26772W        W40186  15.782  12.617  14.376  0.0373 -0.2551  0.1135
26773W        W40187  13.475   9.097   2.300  0.3351 -0.0552 -0.2719
26774W        W40188   8.095  16.473   4.643 -0.0215 -0.0768 -0.1329
26775W        W40189   9.183  11.678  12.865  0.1320 -0.0248 -0.1112
26776W        W40190   3.063   1.510   4.972  0.0196 -0.0735  0.2228
26777W        W40191   8.534   9.746  11.345 -0.0230 -0.0132  0.0082
26778W        W40192   1.132  10.378  11.448 -0.1365  0.0999 -0.5703
26779W        W40193   4.093   2.425  11.466 -0.0868  0.0097 -0.4204
26780W        W40194   3.290   0.936  11.665 -0.0282  0.1498  0.1254
26781W        W40195   6.897   7.452   5.215  0.0837 -0.1443  0.1014
26782W        W40196  13.232  17.250   4.303 -0.0520 -0.2405 -0.0582
26783W        W40197   9.420  15.098  12.587 -0.1489  0.4969  0.1456
26784W        W40198   0.095   7.615  11.704 -0.1382  0.1100 -0.0345
26785W        W40199  18.216   5.855   4.241  0.2187  0.0395  0.0337
26786W        W40200   9.381   6.994   3.649  0.2682 -0.1165 -0.0162
26787W        W40201   2.812   9.278   3.563  0.0042 -0.0259  0.0344
26788W        W40202  10.826   0.947   2.867 -0.2632  0.0906 -0.1401
26789W        W40203   4.531  16.294  15.003  0.2643 -0.1105 -0.1129
26790W        W40204   1.040   2.688  11.171  0.0905  0.3056 -0.0610
26791W        W40205  10.944   4.791   4.701 -0.1853  0.2210 -0.2661
26792W        W40206   1.137  12.073   3.231 -0.0954 -0.1066  0.1838
26793W        W40207   8.647  14.985   4.987  0.2492  0.0093 -0.1231
26794W        W40208   6.547  13.573   5.770 -0.0037 -0.2054 -0.1467
26795W        W40209   7.583  17.802  10.727 -0.0261  0.0050 -0.2337
26796W        W40210  14.262   2.509   4.511  0.0425  0.0622 -0.1798
26797W        W40211   3.385   5.200  14.423 -0.2236 -0.1383 -0.1450
26798W        W40212  13.771  18.233  15.786 -0.1930 -0.0957 -0.1893
26799W        W40213  16.469  14.104   3.113 -0.2422 -0.1347  0.0637
26800W        W40214  17.720   7.426   2.133 -0.2610  0.1328  0.1188
26801W        W40215  13.459   1.140   4.516  0.1630 -0.1637  0.1073
26802W        W40216   0.545  17.127  13.059  0.2229 -0.2733 -0.1841
26803W        W40217  10.086   0.764  12.188  0.0739  0.0579  0.2826
26804W        W40218   6.914   2.581  13.047  0.0382 -0.1653  0.3814
26805W        W40219   8.567   1.819  14.066  0.0532 -0.0059  0.2568
26806W        W40220   5.322   5.794   0.814  0.0685  0.1895  0.2185
26807W        W40221  11.017  18.452   5.637  0.0085 -0.4093  0.0940
26808W        W40222   4.691  15.109  11.621  0.0429 -0.0764 -0.0001
26809W        W40223   1.553   6.037   2.236  0.0703 -0.4437  0.2085
26810W        W40224  10.409  11.456  11.672  0.1052 -0.1566  0.1948
26811W        W40225   4.680  18.487  15.213  0.1028  0.2547  0.0205
26812W        W40226   3.067  10.896  11.370  0.2366  0.2442 -0.1826
26813W        W40227   0.555   2.777  11.213 -0.0567 -0.1643  0.1347
26814W        W40228  10.546   5.821  13.531  0.2692 -0.2202  0.1308
26815W        W40229   5.330  18.264  11.400  0.0130 -0.0629  0.2342
26816W        W40230  18.234   8.598   5.070  0.0410  0.2317  0.1840
26817W        W40231  13.407  10.789  14.508  0.0673  0.0964  0.1928
26818W        W40232   1.298  12.034   3.731  0.0741  0.0646 -0.0230
26819W        W40233   1.000  15.323  11.584  0.1751 -0.2155 -0.3169
26820W        W40234  10.029   8.654   2.370 -0.2475 -0.2371  0.3819
26821W        W40235  18.488  13.681  14.255  0.0311 -0.2006 -0.3172
26822W        W40236  16.318  16.413   1.791 -0.1789  0.2432 -0.0255
26823W        W40237   0.320  17.822  11.502  0.0906  0.1398  0.0443
26824W        W40238  15.868   2.308   3.333 -0.2054  0.1564 -0.0387
26825W        W40239  11.598  11.120   4.975 -0.2832  0.2636  0.1434
26826W        W40240   8.918  10.363  15.308  0.2132 -0.0363  0.0732
26827W        W40241  11.451  12.232  14.603  0.0426  0.5071 -0.0439
26828W        W40242   5.875  11.411   0.167 -0.2238  0.0841  0.1611
26829W        W40243   1.325   2.863  15.083 -0.0816 -0.0723 -0.1097
26830W        W40244   6.882  13.778  12.017 -0.0897 -0.1001 -0.3046
26831W        W40245   7.820   5.742  15.902 -0.1404  0.1182 -0.0616
26832W        W40246  10.138   0.425  14.899 -0.0143 -0.0181  0.1304
26833W        W40247   6.552   6.007  12.087 -0.0592 -0.0537  0.1302
26834W        W40248  16.368  10.027  11.682 -0.0821 -0.0478 -0.7270
26835W        W40249  15.118  17.321  12.248  0.0731 -0.2563  0.0292
26836W        W40250  16.938   6.592   1.269 -0.2772 -0.0925  0.1067
26837W        W40251   8.616   2.171  13.325  0.1404 -0.0476 -0.3360
26838W        W40252   5.151   2.261  10.878  0.0798  0.0987 -0.0803
26839W        W40253   6.302  16.131  12.066  0.0773  0.0844 -0.2061
26840W        W40254   6.326   3.464  10.849  0.5575 -0.0634  0.1224
26841W        W40255   2.245   1.873   1.299  0.1977 -0.2006  0.0052
26842W        W40256   3.785  12.233   3.213  0.0676  0.1434  0.1357
26843W        W40257  14.912  14.821   2.468  0.0324 -0.0663 -0.1967
26844W        W40258  10.398  15.339   0.689  0.3814  0.0621 -0.1286
26845W        W40259   7.309   7.667   4.261  0.2745  0.0447 -0.2054
26846W        W40260  11.341  10.820   1.802  0.0015 -0.0597 -0.1884
26847W        W40261  10.671   1.207  15.576  0.1237  0.0436  0.0328
26848W        W40262  15.108   0.366  15.469  0.2740  0.1365  0.0534
26849W        W40263   1.544   9.133   6.560  0.1521 -0.3738  0.1153
26850W        W40264  15.440  17.337  11.357 -0.1662 -0.2872  0.2965
26851W        W40265   8.420  17.945   4.328 -0.0203 -0.4806  0.0908
26852W        W40266   0.118  14.611  10.645  0.1190 -0.4179 -0.0107
26853W        W40267  10.999   0.058   4.047  0.3713 -0.0680  0.1898
26854W        W40268  11.131   4.200   1.740 -0.1671  0.1970 -0.0891
26855W        W40269   1.180  14.767  13.590 -0.0181  0.1353  0.1837
26856W        W40270  14.965  15.256   6.088  0.0007  0.2070  0.0998
26857W        W40271   2.185  15.975   1.326  0.3340 -0.2688 -0.0308
26858W        W40272   6.919  12.610   2.019  0.0814 -0.0789 -0.0045
26859W        W40273   7.868   7.945   5.052  0.3389  0.1279 -0.1737
26860W        W40274  15.131   8.687   2.798  0.0755 -0.1635 -0.1418
26861W        W40275   3.015  13.211  16.234 -0.2449  0.0781  0.1029
26862W        W40276  12.387  16.081   3.227  0.0686 -0.1135 -0.3355
26863W        W40277   6.209   0.561  10.278  0.0645 -0.1190  0.0928
26864W        W40278   4.988  16.489   1.579  0.2663 -0.2027 -0.2970
26865W        W40279   3.960  16.547  15.104 -0.0828  0.3029  0.0892
26866W        W40280  11.525   2.960  14.512  0.2269  0.1172  0.1641
26867W        W40281   8.101  16.993   1.821 -0.1468  0.1301  0.1859
26868W        W40282  14.230   9.411  11.230 -0.0563  0.3724  0.0346
26869W        W40283  11.247  18.144   2.721 -0.1824  0.2403 -0.0743
26870W        W40284  10.701  11.961  12.719  0.1720 -0.3314  0.1108
26871W        W40285   9.746   3.591  12.074 -0.3909 -0.3282 -0.2963
26872W        W40286   3.770  18.473  16.002  0.1477 -0.3686  0.2262
26873W        W40287  14.925   0.375  11.605  0.0058  0.2428 -0.0025
26874W        W40288  17.676   0.045   0.212  0.1197 -0.2529  0.1805
26875W        W40289   9.801   3.489   1.575 -0.2073  0.0904  0.0128
26876W        W40290   5.707  10.850  12.277  0.3866  0.2549 -0.4586
26877W        W40291   2.719  10.441  10.765 -0.1241  0.0382  0.2547
26878W        W40292  10.206  11.911  12.630  0.2408 -0.0354 -0.1274
26879W        W40293   6.501  10.318   0.666  0.3424 -0.1173  0.0308
26880W        W40294  12.067   9.027  10.410 -0.0597 -0.0021 -0.1435
26881W        W40295   6.758   0.652  11.630  0.2090  0.2917 -0.0776
26882W        W40296  12.938  12.923  12.846 -0.0724 -0.0443 -0.2213
26883W        W40297   8.018  17.189  14.825  0.1071 -0.1129  0.0918
26884W        W40298   1.284  10.820  10.087 -0.0306 -0.0292  0.3564
26885W        W40299   7.761   1.693  14.316  0.0510  0.0654 -0.1054
26886W        W40300   3.010  11.099  12.963 -0.1163 -0.2116 -0.6100
26887W        W40301  15.260  14.934  11.047 -0.0198  0.2705 -0.3642
26888W        W40302  14.501   9.497   0.015 -0.2266  0.0420  0.0796
26889W        W40303  15.132  17.911   4.800 -0.0844 -0.0785  0.0146
26890W        W40304   7.164  14.692   2.125  0.2257  0.1517 -0.0179
26891W        W40305  12.654  12.113   0.019  0.1601 -0.0826 -0.0232
26892W        W40306   3.242  10.749   2.481  0.2583  0.2056  0.2414
26893W        W40307   0.792  14.141  13.915 -0.2480  0.1097  0.2821
26894W        W40308   8.051  15.091  11.990  0.0094  0.2394  0.0132
26895W        W40309  15.399   9.605  12.964  0.4986 -0.2844 -0.0122
26896W        W40310   3.278  17.119  11.832 -0.3794  0.0407 -0.0994
26897W        W40311  16.013  16.426  12.899  0.0020  0.0818  0.1584
26898W        W40312  12.739  14.031  12.314  0.0345 -0.4334 -0.0303
26899W        W40313   5.146   2.447   2.570 -0.0520 -0.1169 -0.2552
26900W        W40314  14.072   4.667  14.112 -0.1360 -0.1695 -0.0158
26901W        W40315  11.366   0.049   3.722  0.5474  0.1384  0.0643
26902W        W40316   6.190  14.411  15.676 -0.0156 -0.1346  0.1334
26903W        W40317  12.304  16.672  10.426 -0.0872  0.1274 -0.1926
26904W        W40318  18.480   5.401  12.694 -0.1063 -0.0161  0.5338
26905W        W40319   4.731   6.278   4.554 -0.0678  0.1339 -0.0030
26906W        W40320   2.727   6.958  15.630 -0.1325 -0.2942  0.3770
26907W        W40321   2.384  16.800   0.983  0.1141 -0.0605  0.0460
26908W        W40322  15.767  11.021   0.797 -0.1611 -0.0303  0.2502
26909W        W40323   6.333  10.594   5.443 -0.0835  0.1082 -0.2734
26910W        W40324  10.713  15.706   4.768  0.3384 -0.0508 -0.1650
26911W        W40325   4.167  12.895   2.727  0.2833  0.0224  0.2319
26912W        W40326  15.034  13.791  14.761 -0.0987  0.0310 -0.0004
26913W        W40327  14.979  10.078   0.039  0.2018 -0.0929 -0.1889
26914W        W40328  18.251   3.128  10.907  0.0196 -0.0807  0.1034
26915W        W40329   1.149  11.372   4.178  0.2660  0.0584  0.0649
26916W        W40330   7.050  15.279  13.686  0.1330 -0.2047  0.1758
26917W        W40331   8.122  17.186   2.318 -0.0789 -0.3135 -0.0504
26918W        W40332  14.569  13.881  16.016  0.2541 -0.0599  0.0356
26919W        W40333   3.280  13.931   3.288  0.0918  0.0812 -0.4645
26920W        W40334   6.573  10.384  12.953  0.2428  0.0597  0.2838
26921W        W40335   1.897  17.292  10.388 -0.0375  0.0447  0.1921
26922W        W40336   1.309   8.830  15.689 -0.0717 -0.1018 -0.2887
26923W        W40337  17.642   4.282  16.003  0.0923  0.3086  0.1247
26924W        W40338   8.957   6.437   3.900 -0.0526 -0.2044 -0.1025
26925W        W40339   7.382   0.395  13.124 -0.1604  0.0672 -0.0593
26926W        W40340  13.163   0.776  13.804  0.3791  0.0933  0.2649
26927W        W40341   7.417  17.685   4.540 -0.2335 -0.1385  0.2319
26928W        W40342   2.829  18.269   1.720  0.0844 -0.2401  0.0011
26929W        W40343   0.068  17.554  10.235  0.1424 -0.1923 -0.2657
26930W        W40344   9.422   0.689   6.399  0.1043 -0.1774  0.1503
26931W        W40345  13.652   5.630   4.841  0.2711 -0.0140  0.1496
26932W        W40346  14.169  18.171   5.363 -0.3173  0.1317 -0.3800
26933W        W40347  14.946   0.516  14.501  0.1687  0.2103 -0.0767
26934W        W40348  14.778  18.442   9.822  0.0838  0.1795 -0.3163
26935W        W40349   4.736  13.072  13.199 -0.0633  0.1571 -0.0658
26936W        W40350  17.661  10.178  12.939  0.2773  0.0108  0.2335
26937W        W40351  15.125   6.696   3.543 -0.2297 -0.0247  0.4820
26938W        W40352   1.733  14.971  15.408  0.2214  0.0130  0.0110
26939W        W40353   6.407   6.148  14.107 -0.2679 -0.1299  0.0364
26940W        W40354  14.990   6.398   2.626 -0.0594  0.1998  0.4243
26941W        W40355  15.175   4.341  15.532 -0.2671  0.0496  0.3468
26942W        W40356  11.611  10.361   0.105  0.2082  0.1392 -0.1193
26943W        W40357   7.566   5.309  11.073 -0.0441  0.0864 -0.0453
26944W        W40358  12.799  15.470  11.981  0.0107  0.2082  0.0680
26945W        W40359   9.589   9.686   4.713 -0.3426 -0.3358  0.2150
26946W        W40360   2.200   5.318  15.731  0.0322  0.2943 -0.1106
26947W        W40361   2.503   6.336  12.457  0.2365 -0.2463  0.0883
26948W        W40362   0.075   5.435   2.136  0.1935 -0.0756  0.3981
26949W        W40363  18.025  14.313   4.070 -0.2769 -0.4151  0.4211
26950W        W40364   2.993  15.889   3.108 -0.0145  0.1712 -0.0618
26951W        W40365   8.390   9.600   1.014  0.0659  0.1706  0.0777
26952W        W40366  17.360   3.106  11.128 -0.2556 -0.0942  0.2351
26953W        W40367   4.303   0.950  11.521  0.2243 -0.1155 -0.0540
26954W        W40368  12.497  13.293  11.455  0.0645 -0.2983  0.1598
26955W        W40369   4.897   9.725  11.142 -0.0293  0.0127 -0.1183
26956W        W40370  17.726   8.287   4.065  0.2313 -0.0981 -0.2292
26957W        W40371  10.351  13.379  14.279  0.1117 -0.0467  0.1750
26958W        W40372  11.435   9.203  11.938 -0.0451 -0.0211 -0.0966
26959W        W40373  15.992   8.405  14.628  0.4446 -0.0443  0.2406
26960W        W40374   7.365   8.889   0.432  0.3192  0.2385 -0.2775
26961W        W40375  13.306   7.272  14.726  0.2637  0.0023 -0.0699
26962W        W40376  13.484   2.294   3.725 -0.3101 -0.2890  0.2061
26963W        W40377   9.386   4.071   2.591  0.0506 -0.0446  0.1120
26964W        W40378  11.330   6.290   3.415  0.3515 -0.1435 -0.3990
26965W        W40379   7.162   0.091   5.488 -0.2518  0.2583 -0.0141
26966W        W40380  16.122   6.859  15.924 -0.2176 -0.2958  0.1746
26967W        W40381   9.408   8.852  14.664  0.0243  0.1527 -0.4500
26968W        W40382  11.742  14.527   0.709 -0.1280  0.0911  0.1340
26969W        W40383   3.777   3.192  12.243 -0.1589 -0.2506  0.1397
26970W        W40384  10.376  12.067   4.485 -0.1638  0.0105  0.0209
26971W        W40385  17.152   1.108  12.273  0.0684 -0.2054  0.2792
26972W        W40386  15.998  15.698  15.372  0.0303  0.1621 -0.0395
26973W        W40387   9.840   0.634  14.470  0.0911  0.0964  0.0017
26974W        W40388   3.812   3.220  11.510  0.0288  0.3523  0.5364
26975W        W40389   1.077   0.945  14.038 -0.2561 -0.1722  0.0321
26976W        W40390   6.059  13.545   2.959  0.3277  0.1322  0.5406
26977W        W40391   8.734  15.944  12.229  0.3951 -0.0296  0.1317
26978W        W40392  16.510   1.284  14.785  0.1908 -0.1007  0.1339
26979W        W40393  11.117  14.955   3.616 -0.0648 -0.2952 -0.0486
26980W        W40394   5.031   5.747   1.223  0.0589 -0.1228 -0.1907
26981W        W40395  17.074   5.006  12.155  0.1935  0.2118 -0.2860
26982W        W40396   7.939  10.310  11.945 -0.1610  0.0375 -0.1225
26983W        W40397  15.240   6.025   6.358  0.1311  0.5174 -0.0124
26984W        W40398   6.918   1.626  13.973  0.1478 -0.0950  0.0598
26985W        W40399  14.830   6.807   0.320  0.1246  0.1477 -0.2863
26986W        W40400   9.190  15.889   5.700  0.2473  0.0310 -0.1485
26987W        W40401  11.616   4.387   0.168  0.2127 -0.0337 -0.1237
26988W        W40402   9.354  12.369  15.351  0.1112 -0.0941 -0.0964
26989W        W40403  13.070   9.003   0.960 -0.1285  0.0785  0.2462
26990W        W40404  17.988  11.815  15.629  0.0384  0.0606 -0.1530
26991W        W40405  14.813  16.401  11.199 -0.1036 -0.2841 -0.0022
26992W        W40406   7.681  18.495  15.316  0.0466  0.2323  0.3446
26993W        W40407   2.255  14.523  13.621 -0.1827 -0.2177 -0.3154
26994W        W40408   8.399   1.078  11.742  0.0427  0.2397  0.1929
26995W        W40409   9.818  13.252  11.400  0.6014  0.2439  0.1485
26996W        W40410  16.557   1.052   1.746  0.1176  0.1417 -0.0788
26997W        W40411   4.977  15.891  14.887 -0.0058  0.2553  0.2618
26998W        W40412  17.333  18.035   6.195  0.2497 -0.1498  0.0830
26999W        W40413   5.826  11.304  12.003 -0.2636  0.1369 -0.0344
27000W        W40414   2.951   2.409   4.262  0.0035 -0.0040 -0.2772
27001W        W40415  18.129  13.174  14.219 -0.3708  0.0214  0.1970
27002W        W40416   7.007  13.173   1.452 -0.0325 -0.2449  0.0313
27003W        W40417  10.079  13.560   1.112  0.1067 -0.3475 -0.1651
27004W        W40418   1.454  15.241  11.956 -0.0415 -0.2993 -0.0982
27005W        W40419  10.575  17.299  14.762  0.1538 -0.1808 -0.0097
27006W        W40420  16.620  10.052   4.814  0.2914  0.0931  0.2098
27007W        W40421   9.993   7.123   0.520 -0.2887 -0.0463 -0.1852
27008W        W40422   5.582  10.300   2.072 -0.1088 -0.0537 -0.2334
27009W        W40423   8.378  12.468   4.952 -0.0453 -0.1222 -0.1938
27010W        W40424  12.388  11.553  11.731  0.0082  0.2613  0.2332
27011W        W40425  16.605  15.472   4.216  0.3692 -0.1331  0.2380
27012W        W40426  17.188   6.162  15.013  0.0164  0.1606 -0.1549
27013W        W40427  16.603   5.284  11.234  0.3725 -0.1670 -0.0059
27014W        W40428   1.803   8.976  14.610 -0.2153  0.1077  0.0378
27015W        W40429  14.403  17.983   0.118 -0.0076 -0.0602 -0.1610
27016W        W40430  13.262  10.555  11.813  0.1482  0.0266  0.0299
27017W        W40431   8.808  10.658  11.169  0.1618 -0.1742  0.2932
27018W        W40432   2.421  14.900   3.836 -0.1977  0.0705  0.0785
27019W        W40433   0.599  10.454  13.172 -0.0036  0.5624  0.1677
27020W        W40434  11.562   7.941  10.680  0.0457  0.0419  0.0372
27021W        W40435  10.894  11.598  12.452  0.0018  0.0635 -0.0941
27022W        W40436   9.017  15.617   4.533  0.2508  0.1578 -0.0812
27023W        W40437   9.520   6.925  12.369  0.3060  0.0605  0.1461
27024W        W40438   6.716  10.646  13.407 -0.0257 -0.0043  0.3429
27025W        W40439  16.033  16.380   2.927  0.2232  0.1340 -0.0176
27026W        W40440   9.870  12.986   1.555 -0.0427 -0.2882 -0.0581
27027W        W40441  12.700   8.434   4.508 -0.0771 -0.1267 -0.0446
27028W        W40442  17.648  12.186  14.982  0.1039 -0.0896  0.4450
27029W        W40443   7.948   3.330   5.663  0.1155  0.2161 -0.0382
27030W        W40444   3.967  10.178  13.775 -0.2436 -0.1207  0.4669
27031W        W40445   0.690   4.381   3.617 -0.1373 -0.3086  0.0721
27032W        W40446   4.099  15.027   2.421 -0.1454 -0.2911 -0.2462
27033W        W40447   0.061   6.207   4.314  0.0938  0.1953  0.0732
27034W        W40448  12.724   6.027   1.519 -0.0109 -0.3329 -0.0284
27035W        W40449  18.095  18.272   2.444 -0.1301 -0.1311 -0.0098
27036W        W40450   3.798   0.699   5.705  0.0704 -0.0367 -0.4447
27037W        W40451   1.336  17.652  15.733  0.1301  0.0734 -0.0977
27038W        W40452  13.452   5.069  11.090  0.2998 -0.2496 -0.0717
27039W        W40453   6.857  15.850   0.327  0.1905  0.2013 -0.1965
27040W        W40454   6.624   2.002   2.177  0.0813  0.1032  0.0270
27041W        W40455   3.790  10.813   5.572 -0.4637  0.4010  0.0899
27042W        W40456   4.015  10.145   2.188  0.0123 -0.1067 -0.0622
27043W        W40457  17.499  17.595  14.554 -0.3694 -0.1504 -0.2032
27044W        W40458   1.311  10.200  13.381  0.0405 -0.1562 -0.5271
27045W        W40459   5.778   3.239  11.773 -0.0325  0.0755 -0.2202
27046W        W40460   8.162  12.220  10.927 -0.0402  0.1954 -0.0280
27047W        W40461  16.655  17.934  15.595  0.1642  0.0364  0.1988
27048W        W40462   4.596  17.535  11.810  0.2151  0.0530  0.2993
27049W        W40463   2.746  13.277   5.344 -0.3106  0.3330  0.0479
27050W        W40464   5.856  17.404   2.255 -0.1527  0.2120 -0.2279
27051W        W40465   6.671  11.024   5.475 -0.1687  0.0160  0.1492
27052W        W40466   3.028  11.583   3.256 -0.1150 -0.0693 -0.1824
27053W        W40467   0.608  18.425   3.128 -0.0739  0.1748 -0.2036
27054W        W40468   7.743   4.873   0.066 -0.1181 -0.0237  0.0712
27055W        W40469   9.144  13.199  10.260  0.2312  0.2026 -0.2185
27056W        W40470   1.665   6.342  15.903  0.5019  0.0038  0.1857
27057W        W40471   4.418  12.431   5.062 -0.0745 -0.0519 -0.2028
27058W        W40472   6.273  14.822  12.545 -0.1019  0.0512 -0.1261
27059W        W40473   6.004   4.768  12.826 -0.0171 -0.0421  0.1985
27060W        W40474   8.230   3.761  15.348  0.1129 -0.0138  0.1873
27061W        W40475   2.491   0.926  11.304 -0.1972  0.4347 -0.0512
27062W        W40476   5.312  11.638   1.527 -0.2551 -0.0977  0.0708
27063W        W40477   3.174   4.957   5.120  0.1974 -0.2254 -0.1438
27064W        W40478  14.103   8.202   5.261 -0.0045 -0.1147 -0.0264
27065W        W40479   2.968   1.296   3.420  0.3267 -0.1751  0.1631
27066W        W40480   2.422   2.283   6.189  0.2942  0.2520  0.2335
27067W        W40481   0.745  14.266  11.324 -0.2357 -0.0427 -0.0058
27068W        W40482  17.780   4.752  13.842 -0.1125 -0.1432 -0.0287
27069W        W40483  14.120   8.724  12.861  0.3267  0.4389  0.1609
27070W        W40484   2.892   3.240  14.977 -0.1679  0.2332 -0.2364
27071W        W40485  13.135   2.283  10.901  0.1145 -0.1665 -0.0017
27072W        W40486   8.478  12.481  12.388 -0.0040 -0.1410  0.1682
27073W        W40487   4.726  10.914   3.668  0.1368 -0.0641 -0.1247
27074W        W40488  11.884  12.190   5.188  0.0476  0.0713  0.3323
27075W        W40489  17.284  16.420   0.733  0.2790  0.0849  0.1854
27076W        W40490   4.483  15.097   3.951 -0.3969 -0.1722  0.1349
27077W        W40491   5.759  16.978  12.327  0.0880 -0.0238  0.1741
27078W        W40492  17.344  12.848   5.309 -0.1588  0.0731  0.0119
27079W        W40493  14.579  11.513   2.056 -0.1958 -0.0011  0.0658
27080W        W40494  11.827   3.226  15.481  0.0102  0.0959  0.0577
27081W        W40495  15.969   8.656   0.036  0.0247 -0.2331  0.1144
27082W        W40496   2.717   3.945  10.169  0.2332 -0.0938 -0.0198
27083W        W40497  13.242   4.976  10.630  0.0582 -0.2985  0.0270
27084W        W40498  16.010  12.925  15.229 -0.0726 -0.1362 -0.2312
27085W        W40499  11.665  16.431   4.742  0.1671 -0.0297 -0.1604
27086W        W40500  15.501  12.469  13.598 -0.1841  0.1378  0.0348
27087W        W40501  13.875  13.662  14.915  0.2034 -0.0840  0.3789
27088W        W40502  11.064  14.017  15.853 -0.3279 -0.0650  0.0727
27089W        W40503   4.215  10.006  14.614  0.1758 -0.2670  0.0362
27090W        W40504   9.614   2.633   3.569 -0.3034  0.1844  0.3676
27091W        W40505   4.565  17.522   0.204  0.3404 -0.0126  0.1850
27092W        W40506   2.789  14.002   4.611  0.0588  0.1537  0.1298
27093W        W40507  16.808  16.861   5.194 -0.1516  0.3661  0.0780
27094W        W40508  15.552   0.833  10.602  0.1341 -0.1419  0.2290
27095W        W40509   3.741   7.932   3.891  0.1997 -0.4003  0.1077
27096W        W40510   8.241  18.110   1.093  0.1070 -0.0022 -0.3166
27097W        W40511  14.258   5.314  12.734 -0.0669 -0.2268 -0.1874
27098W        W40512   8.940  14.433   1.253  0.2753  0.0580 -0.2182
27099W        W40513  10.923   1.962   3.376  0.0542  0.1545 -0.2761
27100W        W40514   0.884  16.190   3.386  0.0428 -0.3149  0.2312
27101W        W40515  12.336   6.094   2.918  0.1242 -0.2345  0.2415
27102W        W40516  13.320  14.404   2.733 -0.2383 -0.0203 -0.2232
27103W        W40517   0.839  10.285   0.958 -0.2562 -0.0377 -0.0063
27104W        W40518   7.735   0.485  15.649  0.1128  0.2465 -0.2952
27105W        W40519   8.099   1.360   9.794  0.3846 -0.0094  0.0189
27106W        W40520  14.571   3.528   4.667  0.0065  0.2576  0.0702
27107W        W40521  15.239   4.830  12.568  0.1308  0.0258  0.0382
27108W        W40522  18.422  11.829  13.825  0.2103  0.1756 -0.1762
27109W        W40523   4.102  11.055  11.417  0.0291  0.1288  0.1524
27110W        W40524   2.627  15.111   0.437  0.2658 -0.0439 -0.1727
27111W        W40525  14.013   0.593   4.744 -0.0267 -0.0760  0.0096
27112W        W40526  12.219   6.870   3.991  0.1108 -0.0048  0.0397
27113W        W40527   2.308   1.088  12.177  0.0424 -0.1875 -0.1049
27114W        W40528  15.937  12.260   2.758  0.1473  0.2388 -0.0233
27115W        W40529  15.206   5.780   0.936 -0.0186  0.0261  0.1494
27116W        W40530   8.001   8.296   1.176  0.0934 -0.1309  0.0321
27117W        W40531   3.507   3.615  16.150  0.0649 -0.0902  0.1611
27118W        W40532  15.659  10.788  11.868 -0.2554 -0.2326 -0.0692
27119W        W40533  17.043   2.754   2.973 -0.0476 -0.0356  0.0177
27120W        W40534  13.338  10.373   2.276 -0.0134 -0.3353 -0.3966
27121W        W40535  13.992   3.988   1.604  0.2962  0.0846  0.4888
27122W        W40536  10.688   7.558   0.943 -0.1015  0.1457  0.0554
27123W        W40537   8.119   5.703   1.051  0.0159  0.0664  0.1855
27124W        W40538  18.337  12.617  11.674  0.0322 -0.1508  0.2170
27125W        W40539   4.033   8.545  11.837  0.3025 -0.0088 -0.0178
27126W        W40540   4.746  14.434  13.265  0.3154 -0.2290 -0.1950
27127W        W40541   4.213  17.664   5.803  0.1094 -0.0942  0.1294
27128W        W40542   9.524  14.112   5.231 -0.0923  0.5063 -0.2064
27129W        W40543  16.898  12.863   0.312 -0.1107 -0.1330 -0.2708
27130W        W40544   4.459   2.890   5.381 -0.1527  0.2382 -0.1228
27131W        W40545  13.496   5.734   6.475  0.1336  0.0184 -0.1677
27132W        W40546  16.296   6.921  12.103  0.1652  0.5837 -0.2818
27133W        W40547   4.825  11.029   2.484  0.0246  0.0487  0.1514
27134W        W40548  12.317  13.841   5.701 -0.1788  0.2374  0.2404
27135W        W40549   3.539  15.937   4.519 -0.0541 -0.0897 -0.1616
27136W        W40550  16.980  18.420  11.595 -0.1084  0.0538  0.0370
27137W        W40551   9.057   7.363   5.237 -0.2551 -0.0190 -0.0846
27138W        W40552  14.985  13.045   5.616 -0.2337 -0.1935 -0.3309
27139W        W40553   5.906   1.032   5.739  0.2700 -0.1280  0.1530
27140W        W40554   6.472  12.833   5.261  0.3441  0.1016  0.0608
27141W        W40555   6.858   8.326   2.816 -0.0600  0.1332  0.1490
27142W        W40556   6.092  14.190   1.656  0.0520  0.1162  0.2882
27143W        W40557  13.454  17.513  13.704 -0.0425  0.0519  0.1968
27144W        W40558   9.350   9.624   2.536 -0.1356  0.0787 -0.0290
27145W        W40559   9.101  14.832  10.580  0.0635  0.1155 -0.0139
27146W        W40560   5.940  10.006   1.483  0.0541  0.1681 -0.4740
27147W        W40561  17.074   9.443  12.016  0.1335 -0.1550 -0.0832
27148W        W40562  13.904   3.900  15.563  0.1215 -0.2684 -0.0187
27149W        W40563   9.457  14.585   3.162 -0.1057  0.0556  0.1205
27150W        W40564   1.304  12.985   4.724 -0.1451 -0.0492  0.0677
27151W        W40565  15.345  10.992   0.026 -0.0296 -0.0180 -0.1467
27152W        W40566  13.422  14.225  15.517  0.4463 -0.0893 -0.0209
27153W        W40567   1.048  17.128   1.892  0.1387 -0.0648 -0.1052
27154W        W40568   4.553   9.574   4.328  0.1067 -0.1292 -0.2582
27155W        W40569   8.427  15.724  11.672  0.1695 -0.1237  0.1336
27156W        W40570   9.634  16.378   0.635  0.0682  0.2047  0.1874
27157W        W40571  11.578  14.075   0.438 -0.1569  0.1410  0.1052
27158W        W40572  14.413   4.957   6.012 -0.2442 -0.1017 -0.4373
27159W        W40573   8.212   9.671  14.541  0.1461 -0.2827  0.0009
27160W        W40574  17.160  14.899   1.707 -0.1570 -0.3160  0.2941
27161W        W40575   0.045  13.116   2.951 -0.0095 -0.0644  0.0262
27162W        W40576   7.365  13.840   1.744 -0.6074 -0.1197 -0.3885
27163W        W40577   3.621  11.534  10.663  0.0415  0.0973  0.0711
27164W        W40578   1.351  14.182  16.065  0.1082  0.0189  0.0751
27165W        W40579   5.626  13.521   3.906  0.0802  0.0311  0.1786
27166W        W40580  15.219   1.078  16.070 -0.0550  0.0378 -0.1147
27167W        W40581  16.128  14.644  14.959 -0.0589 -0.3475 -0.2470
27168W        W40582   6.807  17.380   3.242 -0.2530  0.0698 -0.0525
27169W        W40583   2.729   5.888  15.025  0.1387 -0.0362  0.1551
27170W        W40584  12.716  14.400  10.394  0.0725 -0.0835 -0.1949
27171W        W40585   6.833  11.762   1.772  0.1197 -0.0226  0.1238
27172W        W40586   4.190   3.494  14.884  0.0204  0.2274 -0.0742
27173W        W40587  13.230  10.171   4.880 -0.1544 -0.2980  0.2853
27174W        W40588   8.543   3.453  14.725 -0.0888  0.3233  0.1274
27175W        W40589   5.822   5.138  16.218 -0.1101  0.0405 -0.0356
27176W        W40590  11.927   1.777   6.195  0.0237  0.0581  0.2418
27177W        W40591   2.340   0.910   1.546  0.1613 -0.0343 -0.3119
27178W        W40592   8.485   2.798  11.087 -0.1775 -0.2190 -0.2296
27179W        W40593  10.309   9.532   2.664  0.4149  0.0334  0.2049
27180W        W40594   7.915  14.464   3.694 -0.1090 -0.1638  0.0919
27181W        W40595   3.061  17.699   5.300  0.6513 -0.2544  0.0508
27182W        W40596   4.045   0.829   2.821  0.2801  0.2023  0.1756
27183W        W40597   6.206   1.345  12.541 -0.2562 -0.3550 -0.2513
27184W        W40598   1.452   2.861   0.545 -0.1155  0.0306 -0.1791
27185W        W40599   1.642  17.116  13.790  0.0578 -0.0042 -0.2829
27186W        W40600  12.765  10.905  15.768  0.4439 -0.1773 -0.2281
27187W        W40601  15.449   3.579  14.830  0.3002  0.1788  0.0687
27188W        W40602   3.535   4.009  15.842  0.2199  0.0617 -0.3409
27189W        W40603  11.439   6.640   5.637 -0.2350  0.0213 -0.0320
27190W        W40604  15.882   4.269  14.354 -0.1625  0.2098  0.0766
27191W        W40605  12.250  11.651   3.039  0.0448 -0.1055 -0.2574
27192W        W40606   9.077   3.896   3.112 -0.1345  0.1557 -0.0574
27193W        W40607   7.702  14.438   2.317 -0.1242 -0.0292 -0.1365
27194W        W40608  16.361  16.863   2.906  0.2878  0.2631 -0.1378
27195W        W40609   6.329   4.199  14.136  0.3951 -0.5074  0.0893
27196W        W40610   5.561  14.912   3.181  0.0194 -0.0723 -0.0211
27197W        W40611  10.517  17.821  11.847 -0.2732 -0.2995 -0.1450
27198W        W40612  16.417   6.728  10.776  0.0027  0.0726  0.0062
27199W        W40613  16.064  10.122   1.672 -0.0470  0.1139 -0.0425
27200W        W40614  14.711  16.228  10.745  0.4352  0.2810 -0.0763
27201W        W40615   9.185   6.742  15.723 -0.2779  0.1414 -0.1624
27202W        W40616   0.601  14.365   1.971 -0.2327  0.1695 -0.2169
27203W        W40617   0.194  17.812  11.025  0.4642  0.2212  0.2774
27204W        W40618   8.084   8.736   5.769 -0.3794  0.2149 -0.1602
27205W        W40619   4.914   7.964   4.568 -0.0377  0.0136 -0.1031
27206W        W40620   5.448   8.295  13.171 -0.5001  0.1179  0.0404
27207W        W40621  12.490   7.743  12.019 -0.0156  0.2701 -0.0408
27208W        W40622  17.442   4.565  10.244  0.1708  0.1275  0.3527
27209W        W40623   0.245   7.068   5.431 -0.2150  0.1676  0.1699
27210W        W40624   9.700   2.748   3.059  0.2224  0.0566  0.0606
27211W        W40625   4.465   5.673   2.287  0.1122  0.2777  0.4507
27212W        W40626   7.617   6.481   0.367 -0.0319 -0.1070  0.2064
27213W        W40627   1.743   2.671  12.318  0.1288 -0.1201 -0.1507
27214W        W40628  10.505   7.260  12.687 -0.0059 -0.0356 -0.0254
27215W        W40629   8.599  15.561   0.224 -0.0679  0.2202 -0.2740
27216W        W40630   8.676  12.176   4.718  0.0910  0.1293 -0.1804
27217W        W40631   6.949  16.947  15.671  0.2181 -0.0730 -0.0682
27218W        W40632   8.577  16.554   4.677  0.1435 -0.2287 -0.2711
27219W        W40633   1.463   3.932   5.119 -0.1421  0.1285  0.2700
27220W        W40634   4.352   5.713  10.712 -0.6239  0.0714 -0.1592
27221W        W40635   2.915   2.664   1.939  0.0471  0.0423 -0.0821
27222W        W40636  13.552  10.673   6.195  0.1780  0.0176  0.0812
27223W        W40637   5.914   4.978  11.972 -0.0612  0.1451 -0.0946
27224W        W40638   8.657   2.991  14.877  0.0832 -0.1077 -0.0014
27225W        W40639  15.783  15.266   5.748  0.3337  0.0170  0.1116
27226W        W40640  18.346   8.546   6.137  0.2403  0.1736 -0.1077
27227W        W40641  10.310  10.947  15.981  0.1293  0.2297 -0.3858
27228W        W40642   7.816  16.946  16.208  0.0014 -0.1558  0.0550
27229W        W40643   7.985   3.952  12.970 -0.2112  0.0140  0.2129
27230W        W40644  10.277   3.148  10.563 -0.1362 -0.3546  0.1646
27231W        W40645   6.893   3.624   1.614  0.0866  0.1636  0.0753
27232W        W40646  14.861   0.020   4.379  0.0042  0.0655  0.0568
27233W        W40647  12.100  14.525   3.718  0.0565 -0.1782  0.4121
27234W        W40648   1.295  17.146   0.299  0.0006  0.0400  0.2500
27235W        W40649   9.251  10.949  11.221  0.1126 -0.1450 -0.3968
27236W        W40650   1.143  16.770   1.486 -0.0964  0.2050  0.1866
27237W        W40651   4.611   1.425   0.139 -0.1453  0.1193  0.2167
27238W        W40652  10.642   9.547   3.847 -0.1152  0.1038 -0.0047
27239W        W40653  13.425   2.082  14.892  0.0353  0.0762 -0.3781
27240W        W40654   6.936  16.702   0.962 -0.4559  0.2088  0.2579
27241W        W40655  10.655  15.084  14.287  0.1171  0.1046 -0.0644
27242W        W40656   5.274   5.438  11.235  0.0995  0.2479  0.0170
27243W        W40657  17.776   4.919  14.696  0.1833  0.5596  0.2906
27244W        W40658  10.073   2.224  15.878 -0.0747 -0.0192 -0.0087
27245W        W40659  14.790   7.318  15.811  0.0274  0.1484  0.0863
27246W        W40660  13.198  11.574   3.506  0.2374 -0.0009  0.4131
27247W        W40661  16.302   9.616  11.286  0.2767  0.3026  0.1678
27248W        W40662  12.827   1.913   4.486 -0.2287  0.0872  0.0051
27249W        W40663   2.200   4.759  10.447 -0.1859 -0.0504 -0.1027
27250W        W40664   8.023  15.892   0.193  0.0500 -0.2027  0.0191
27251W        W40665   2.373  13.324   3.165 -0.3360  0.0896  0.2427
27252W        W40666   2.947  12.822   5.090  0.1385 -0.1559  0.0780
27253W        W40667   9.837  15.424  14.797 -0.0226  0.1067 -0.0136
27254W        W40668  13.042  13.897   0.118  0.3713  0.0761  0.0605
27255W        W40669  13.447   8.943   4.764 -0.0535 -0.0838 -0.0251
27256W        W40670   2.400   7.924  15.777 -0.0671  0.2088  0.1221
27257W        W40671   5.775  16.497   0.061 -0.2344  0.1495  0.2866
27258W        W40672   9.935  16.479  10.305  0.0818 -0.3110 -0.0584
27259W        W40673  11.222  15.432   4.110 -0.0327 -0.1647 -0.0026
27260W        W40674  11.019   7.873  15.430  0.0760 -0.2109  0.0835
27261W        W40675  16.352   3.333   0.820  0.0058  0.2261  0.1642
27262W        W40676  17.921   8.255   5.237 -0.2317 -0.1891  0.3804
27263W        W40677   1.331   2.960   2.958 -0.0046  0.1447  0.0857
27264W        W40678  12.094   6.829  12.485  0.2280  0.0810 -0.0027
27265W        W40679   4.207  11.561  13.085  0.3499 -0.0080 -0.2466
27266W        W40680  18.134   6.092  10.602 -0.1811  0.1563  0.2402
27267W        W40681   0.614   1.093   3.069  0.2333 -0.1616  0.0698
27268W        W40682   7.715   7.883  11.983 -0.2104  0.0529 -0.1492
27269W        W40683   1.105  18.237  15.869  0.1253  0.0628 -0.0138
27270W        W40684   1.834  12.178  15.747 -0.1181  0.0136  0.1984
27271W        W40685   2.482  12.352  13.221  0.0301  0.2845  0.1300
27272W        W40686   0.028   9.621  13.329  0.1809 -0.0977  0.2564
27273W        W40687  18.504   4.950   0.983  0.0111  0.3783  0.0224
27274W        W40688   0.919  13.124   2.534 -0.0824 -0.2868  0.0147
27275W        W40689   2.683   4.453   4.662 -0.0084  0.0267  0.0922
27276W        W40690  15.721   1.296   0.269  0.0034 -0.4014  0.0034
27277W        W40691   9.177   0.305  13.435 -0.0245 -0.1551  0.1494
27278W        W40692   7.163   2.063   3.502  0.0411  0.3429 -0.1674
27279W        W40693  14.684   3.588   1.306 -0.0104 -0.0185  0.2513
27280W        W40694   1.705  17.127   5.545 -0.2799 -0.2911  0.0877
27281W        W40695  14.720  10.400   5.646  0.1765 -0.3146  0.0771
27282W        W40696  10.000   4.636   1.202 -0.0931 -0.0352 -0.0615
27283W        W40697  11.134   9.743  11.049 -0.1459  0.2363  0.0957
27284W        W40698   8.733   6.231  13.346  0.0981 -0.2331  0.1342
27285W        W40699   1.795   4.817   5.473  0.1964  0.2515  0.1348
27286W        W40700  14.987   4.144  14.509 -0.0378  0.1398  0.0481
27287W        W40701  11.578   9.377   4.089 -0.2277  0.1200 -0.0638
27288W        W40702  15.797   2.023  14.916 -0.1391  0.1290 -0.2148
27289W        W40703  17.525  12.861   2.023  0.0965  0.0889 -0.1229
27290W        W40704   7.886   1.774  14.804  0.1318 -0.2642 -0.1256
27291W        W40705  15.329  10.397  14.330  0.0402  0.1238  0.5009
27292W        W40706   1.523  16.927  14.253  0.2424 -0.0004 -0.0350
27293W        W40707  15.335  16.593   2.778  0.1273  0.3049  0.2323
27294W        W40708  12.676   2.243   5.230  0.3850 -0.0512  0.1234
27295W        W40709  12.873   9.026   3.558 -0.0516  0.0809 -0.2319
27296W        W40710   5.492   2.582  10.058  0.1957 -0.1611 -0.1187
27297W        W40711   4.177   9.494   0.880 -0.1505 -0.2957  0.0333
27298W        W40712  11.843   1.914  15.735  0.2976  0.0519 -0.0640
27299W        W40713  14.788   9.683   3.254 -0.0652  0.0673  0.0825
27300W        W40714  14.309   1.607   2.312 -0.0664  0.1753 -0.3033
27301W        W40715   0.840   2.670  12.674 -0.0698 -0.1245 -0.2450
27302W        W40716   6.588   4.848  10.879  0.2761 -0.0392 -0.3663
27303W        W40717  16.214   6.330   2.604  0.0578  0.0280  0.0045
27304W        W40718   6.676   3.382  13.128  0.0797 -0.0951 -0.1564
27305W        W40719  11.799   7.304  15.654  0.1814 -0.2762 -0.0276
27306W        W40720  11.840   8.949  10.809  0.0169 -0.0157 -0.0835
27307W        W40721  17.761  17.944   2.258  0.1511 -0.0365 -0.0717
27308W        W40722  12.122  17.213  12.587  0.0506 -0.0061  0.0323
27309W        W40723   9.081  14.232   0.796  0.0110 -0.1010  0.1508
27310W        W40724   3.167   2.767   4.051 -0.2728 -0.2138  0.0872
27311W        W40725  13.202  15.871  12.558 -0.0250 -0.2818  0.1833
27312W        W40726   4.222   0.986  13.668 -0.3856 -0.1184 -0.1291
27313W        W40727   2.258  17.857   3.320  0.2574  0.1010 -0.0712
27314W        W40728  10.187   1.956   4.638  0.1988  0.0302  0.0693
27315W        W40729  13.633   7.832   3.714  0.0254  0.1480 -0.2053
27316W        W40730  18.085  18.461  15.906 -0.0380  0.2241 -0.0407
27317W        W40731   6.046  14.763   2.292  0.0170  0.0545  0.2003
27318W        W40732  16.180  15.237   2.047  0.1194  0.1208 -0.1597
27319W        W40733  16.371  16.047  13.091  0.0123  0.0003 -0.1924
27320W        W40734   7.828   4.441   5.018 -0.1017 -0.0503  0.1421
27321W        W40735  15.831   2.726   3.644  0.1105 -0.0302  0.1565
27322W        W40736   7.458  12.753  14.130  0.0027 -0.3846  0.3375
27323W        W40737  15.238  10.950  11.393 -0.0124  0.1833  0.1153
27324W        W40738  10.509  17.621  15.201  0.2171 -0.0364  0.0027
27325W        W40739   2.621   4.341  15.108 -0.3935  0.0776  0.1259
27326W        W40740   0.893  10.105  14.011  0.1240 -0.2227 -0.0297
27327W        W40741  12.174   8.508   1.123  0.0570 -0.4005  0.4428
27328W        W40742  11.195  12.789   1.391  0.2287  0.3146  0.2947
27329W        W40743   0.331   9.846  15.135 -0.0661  0.2419 -0.3879
27330W        W40744   3.760  11.119  11.980 -0.2521 -0.4724  0.1694
27331W        W40745  12.876   2.343   4.281  0.0406 -0.2247  0.2009
27332W        W40746   5.225   2.297   0.111 -0.1222  0.0145 -0.0645
27333W        W40747   5.230  15.757   2.025 -0.0153 -0.2317 -0.0371
27334W        W40748   5.439   2.657  16.035 -0.3266  0.0499 -0.0638
27335W        W40749   4.317   6.633  12.623 -0.1521  0.1392 -0.1735
27336W        W40750   0.187  10.815  11.198 -0.2215  0.1208 -0.1128
27337W        W40751  17.389   2.631  11.640  0.2268  0.0151  0.0185
27338W        W40752   6.223   3.990   4.889 -0.0053 -0.1474 -0.0588
27339W        W40753   5.746   1.799  14.971  0.0786  0.1007  0.1019
27340W        W40754  18.268  17.586  10.785 -0.0892  0.0507 -0.1772
27341W        W40755   3.821   8.990   4.711 -0.2269  0.1888 -0.0401
27342W        W40756   7.195   9.885   4.853 -0.2879  0.2528  0.1862
27343W        W40757   7.230   6.374   1.134  0.0021 -0.0499  0.3094
27344W        W40758   5.494  16.476  13.587  0.1303  0.0200 -0.1817
27345W        W40759  13.255   3.484  11.687 -0.0344  0.1332 -0.2389
27346W        W40760  10.159   6.838   0.111 -0.2210  0.1356 -0.2957
27347W        W40761   3.744  17.104   0.030  0.3097  0.3039  0.0574
27348W        W40762   6.494   4.168   2.137  0.2326 -0.1397  0.1957
27349W        W40763   2.373   7.727   0.003 -0.3202  0.3097  0.1310
27350W        W40764  16.560   7.780  12.460  0.0438 -0.3337 -0.3429
27351W        W40765   3.026  15.754  13.869 -0.0086  0.2137  0.0267
27352W        W40766   4.874  14.168   4.209  0.0532 -0.0161  0.0544
27353W        W40767   1.975   8.085  10.363  0.2285 -0.2061  0.1813
27354W        W40768  14.847   6.835  14.418  0.1875  0.2109  0.0218
27355W        W40769  12.517  11.636   5.138 -0.0814 -0.2792  0.1081
27356W        W40770   0.113   5.583  11.199 -0.1141 -0.0033  0.1981
27357W        W40771  14.915  13.805  15.247 -0.2200 -0.2563  0.2043
27358W        W40772  15.710   3.722  15.775  0.2583 -0.0925 -0.0137
27359W        W40773  15.057   5.651  11.899 -0.0774  0.1363  0.1669
27360W        W40774   3.250   3.795   3.352 -0.1363 -0.0749  0.1203
27361W        W40775  13.327   8.024  10.530  0.1267 -0.0825 -0.0612
27362W        W40776   1.019   9.451  11.910 -0.2230 -0.0011  0.3062
27363W        W40777   2.472  11.443   5.324  0.0357 -0.1133 -0.0378
27364W        W40778   7.057   3.194   1.387 -0.0801  0.1858  0.1023
27365W        W40779   9.644  15.065   5.154  0.1165  0.4332 -0.1356
27366W        W40780   2.324  12.341   4.667 -0.1819  0.1124 -0.2877
27367W        W40781  11.171  17.889  11.325 -0.2507  0.3866  0.2395
27368W        W40782  16.962  13.479  15.872 -0.1221  0.1445 -0.2720
27369W        W40783  16.438   0.416  13.153  0.4059 -0.0481 -0.2563
27370W        W40784  16.203   0.725   4.474 -0.0734  0.3802  0.2326
27371W        W40785   2.110   6.063   0.834 -0.3508 -0.0913  0.1704
27372W        W40786   1.364   0.213   3.683  0.0286  0.3862 -0.3082
27373W        W40787   9.927  13.890  15.737 -0.1808 -0.1186 -0.0930
27374W        W40788   8.839  13.723   4.536 -0.1426  0.3592 -0.2981
27375W        W40789   4.570   0.215   1.008  0.3471  0.1760  0.0354
27376W        W40790   5.663  14.210   1.350  0.2442 -0.0010  0.1317
27377W        W40791  11.624   5.353   1.365 -0.0226 -0.1029  0.1634
27378W        W40792   5.254  13.015  12.375 -0.0953  0.1274  0.1097
27379W        W40793   5.622  10.732  13.424  0.0518  0.1373 -0.5087
27380W        W40794   0.834   4.670   1.510  0.2099 -0.5023 -0.2721
27381W        W40795  11.950   5.445   5.282  0.1622  0.1218  0.3143
27382W        W40796  12.675  10.791   5.677  0.0566 -0.3310  0.0471
27383W        W40797   8.575  11.102   3.902 -0.0255 -0.1435  0.0358
27384W        W40798   4.295   1.390   1.097 -0.0694 -0.2084  0.0216
27385W        W40799   7.783   1.089   2.693  0.1485 -0.2087 -0.0724
27386W        W40800   2.198  15.233   4.649  0.3072 -0.0071 -0.0004
27387W        W40801  13.470   8.572  13.697  0.0110 -0.1038 -0.5061
27388W        W40802  18.217  17.521   4.567  0.0133  0.2101 -0.0425
27389W        W40803   4.306  17.184  12.698  0.2068  0.4397 -0.1082
27390W        W40804   7.459   1.621   5.523 -0.0021  0.5872  0.0990
27391W        W40805   9.719  10.580   0.724  0.0889  0.2800  0.0038
27392W        W40806  14.650   3.883   2.566  0.0121  0.4308 -0.0427
27393W        W40807   2.793   5.542   1.573 -0.2703  0.1280 -0.1294
27394W        W40808   2.283   5.036  11.376  0.0746  0.3446  0.0751
27395W        W40809   1.764  17.489   0.163  0.1756 -0.4869 -0.0570
27396W        W40810  12.554   8.693  13.899  0.0681  0.0166  0.0784
27397W        W40811  13.626   2.095  11.522  0.0909  0.3582  0.1714
27398W        W40812  15.389   2.437   3.894 -0.0060  0.1515  0.1520
27399W        W40813   2.902   3.572   4.565  0.3440 -0.1002  0.1567
27400W        W40814   5.526   7.807  13.712  0.0554  0.0946 -0.2299
27401W        W40815  12.020   0.751   2.330 -0.0252  0.2029  0.0571
27402W        W40816   2.069   1.757  13.376 -0.1201  0.0061  0.1816
27403W        W40817  13.870   3.190   0.066  0.1633 -0.2795 -0.1598
27404W        W40818  14.929   5.737   1.785  0.0249 -0.2274 -0.3172
27405W        W40819   1.175  11.336   1.070  0.0325 -0.0093 -0.1228
27406W        W40820  15.114  12.943  13.485 -0.1341  0.0012 -0.1838
27407W        W40821  13.828   4.886   1.009  0.1201 -0.0325  0.1110
27408W        W40822  13.042   7.113   0.875 -0.0239  0.0649  0.1154
27409W        W40823  17.718   1.825  12.199 -0.1556  0.1437 -0.1080
27410W        W40824  15.334   9.788   5.533  0.1338  0.1032 -0.3644
27411W        W40825  15.129  14.881   2.045  0.0275  0.0673 -0.0855
27412W        W40826  14.729   3.760  11.555  0.0029  0.2676 -0.0895
27413W        W40827  13.596  10.472   6.681 -0.2640 -0.0070 -0.0763
27414W        W40828   6.148  11.541   0.599  0.0162  0.0153 -0.0099
27415W        W40829  10.867  18.356   0.079 -0.0722 -0.1611 -0.1332
27416W        W40830  13.508  16.985   0.385 -0.2923 -0.0413  0.0743
27417W        W40831   2.767   9.258  12.639 -0.1684 -0.2664 -0.0398
27418W        W40832  18.163   3.235  12.265  0.0146 -0.0066  0.0986
27419W        W40833  16.217   8.564   0.470  0.0448  0.2045  0.0674
27420W        W40834  17.050   5.370  14.445  0.1728  0.1547 -0.0182
27421W        W40835   1.219   2.872  14.592  0.1078  0.1010  0.0419
27422W        W40836  11.358  10.245  11.373  0.0052  0.1494 -0.2402
27423W        W40837   1.296  13.618  14.528  0.1544 -0.3697 -0.0365
27424W        W40838  15.444   0.334  14.173 -0.3525  0.1935 -0.0606
27425W        W40839   9.734  11.513   5.231 -0.0194 -0.3505 -0.0072
27426W        W40840  14.189  12.457   6.438  0.2589 -0.2560 -0.1651
27427W        W40841  16.410  16.918   6.013  0.1086  0.2283  0.1491
27428W        W40842  11.314  18.350  11.161  0.0381 -0.0385 -0.1310
27429W        W40843  17.468   4.009   4.354 -0.2358  0.0601 -0.0783
27430W        W40844   2.095   6.903   4.807 -0.1685 -0.0371 -0.0678
27431W        W40845  15.251  11.845  13.463  0.0349 -0.3709 -0.1627
27432W        W40846  13.215   4.816  12.778  0.2491 -0.0216  0.0926
27433W        W40847   6.354  12.986   3.603  0.2368  0.1691 -0.1448
27434W        W40848   7.866   1.149  11.068  0.1655 -0.0425  0.0537
27435W        W40849   6.438  12.042   2.059 -0.3153  0.0248 -0.0534
27436W        W40850   9.459   1.581   3.907  0.1818  0.1012 -0.2188
27437W        W40851  18.331  10.237   0.667 -0.0001 -0.0776 -0.1174
27438W        W40852   6.170   4.864   5.414 -0.3022  0.1613  0.1615
27439W        W40853   8.533  15.940  13.338  0.1509 -0.1376 -0.0038
27440W        W40854  12.483   2.476  11.842  0.2884  0.0383  0.0597
27441W        W40855  10.440  17.187  12.749  0.1888 -0.0399 -0.3122
27442W        W40856   5.156   5.377   1.561  0.2950  0.3785  0.1306
27443W        W40857  18.291   5.315  15.858 -0.0111  0.2319  0.1623
27444W        W40858  16.911   9.034  14.724 -0.3064 -0.4800  0.0600
27445W        W40859   0.052   5.189   1.492 -0.0007 -0.0057 -0.1047
27446W        W40860   9.691   6.632   3.171  0.1041 -0.3575  0.2974
27447W        W40861   0.263   8.184   4.431  0.2343  0.3524  0.2066
27448W        W40862  15.063   7.571  14.145 -0.2323 -0.0665 -0.0135
27449W        W40863  12.864  18.216  15.869  0.0003 -0.0373 -0.3120
27450W        W40864  12.948  13.818  12.698 -0.3272 -0.0147 -0.0681
27451W        W40865  11.581   4.951   6.096 -0.0879  0.0131 -0.1149
27452W        W40866   1.718   5.773   0.699 -0.0673  0.1547 -0.2586
27453W        W40867  16.979  15.619  10.724  0.0161  0.1293  0.4488
27454W        W40868   5.550  15.847  15.500 -0.2980 -0.1548 -0.0881
27455W        W40869   8.297  11.519   2.047 -0.2874  0.2004 -0.3530
27456W        W40870   6.132   1.271  10.096 -0.3394 -0.0931 -0.1173
27457W        W40871  11.584  11.325   4.130  0.0612 -0.5210  0.2489
27458W        W40872  15.247   8.990   6.025  0.0348  0.3048 -0.1023
27459W        W40873   6.389  17.432  15.209  0.0118 -0.1236 -0.0434
27460W        W40874  13.501  14.661  13.041 -0.1255  0.1163  0.0142
27461W        W40875  18.366  12.664   2.176 -0.2229  0.1620 -0.3757
27462W        W40876   2.862   6.570  12.663  0.1457 -0.2905  0.0697
27463W        W40877   9.870  17.351   3.603 -0.2319  0.2679  0.0257
27464W        W40878  10.811  11.983   4.309  0.0557  0.1718  0.0555
27465W        W40879  17.769   0.249   3.171  0.2359  0.0737 -0.1193
27466W        W40880  11.523   9.829  16.056 -0.1749 -0.1584  0.0719
27467W        W40881   7.727   7.350  15.551 -0.3109  0.1604  0.1420
27468W        W40882   2.428   4.315   3.461  0.1520 -0.0181  0.1651
27469W        W40883  13.919   3.132   1.439 -0.0924 -0.1728  0.0029
27470W        W40884   5.597   7.631   5.333  0.2085 -0.3686  0.1258
27471W        W40885  16.401   2.920   2.198 -0.1520  0.0961  0.0930
27472W        W40886   4.893   2.919   1.592 -0.1108  0.1383  0.0782
27473W        W40887  10.289   7.306  13.338  0.0014 -0.1656 -0.2931
27474W        W40888  12.684  12.875   2.012 -0.2083  0.0147  0.0411
27475W        W40889  17.348  17.634   4.578  0.2384 -0.0172  0.0876
27476W        W40890  16.169   3.653  12.079 -0.0492  0.4058  0.1596
27477W        W40891  13.564   3.213  15.276  0.0408 -0.0756  0.0569
27478W        W40892   7.336  12.028  15.751 -0.2433  0.1335  0.0884
27479W        W40893  12.077  10.737  13.411  0.2200  0.0814 -0.1438
27480W        W40894   9.671   3.031  14.702 -0.5363  0.0855 -0.0379
27481W        W40895   3.910   1.255   4.497  0.2939 -0.0531 -0.0683
27482W        W40896  16.219  14.916  11.143  0.0396 -0.3987 -0.1117
27483W        W40897   1.135   4.586   0.096  0.0807  0.2251  0.3161
27484W        W40898  10.720   7.028   0.053  0.2464 -0.2401 -0.0526
27485W        W40899  15.537   5.941  12.781  0.0266  0.0391 -0.0658
27486W        W40900   7.424   1.942   1.520  0.1016  0.0046  0.1568
27487W        W40901   7.529   9.298  10.142 -0.1727 -0.1325  0.0703
27488W        W40902  15.549   9.117  13.608  0.1389  0.0479 -0.0482
27489W        W40903  10.396   4.350   3.559  0.3213 -0.0108 -0.0959
27490W        W40904   2.978  17.557   4.595  0.1472  0.2017 -0.1375
27491W        W40905  16.141  16.601  11.022  0.2484  0.1860 -0.1042
27492W        W40906   5.631   7.155  11.907  0.0675 -0.0125 -0.1419
27493W        W40907   7.809   4.025  15.503  0.0109  0.1075 -0.0710
27494W        W40908   5.096  17.219   6.005 -0.3800 -0.0020  0.1761
27495W        W40909   5.422  12.351   5.623  0.1895  0.0166 -0.1390
27496W        W40910  17.179  10.988  10.478 -0.0730 -0.1435  0.2614
27497W        W40911  15.986  17.746  16.230  0.1728 -0.3872  0.1028
27498W        W40912  15.174   6.744  12.230  0.1954 -0.0905 -0.1663
27499W        W40913   9.494  18.512  12.503 -0.0524  0.2292  0.1198
27500W        W40914   6.558   9.135   3.552 -0.3128 -0.0116 -0.2356
27501W        W40915   7.409   4.015   2.387  0.1999  0.1075 -0.1628
27502W        W40916   9.186  13.647   1.409 -0.0747  0.0413 -0.0083
27503W        W40917   6.453   3.995  14.689  0.1082 -0.1125  0.2736
27504W        W40918  14.123  12.348   2.539 -0.3316  0.2229 -0.3740
27505W        W40919  17.672  14.018  13.880  0.2458 -0.0655  0.1480
27506W        W40920  12.263  12.286  15.412 -0.1016  0.1846  0.1747
27507W        W40921  12.841   1.225  11.885  0.1517 -0.1155  0.0305
27508W        W40922  12.802   5.065  13.402  0.0960  0.1232 -0.0595
27509W        W40923   2.836   6.845   0.618  0.1398 -0.0336  0.0324
27510W        W40924  10.318  13.832  14.545 -0.1769 -0.2263 -0.1803
27511W        W40925  10.235  16.164  11.079 -0.1494 -0.4862  0.1172
27512W        W40926  10.694  12.447  13.081 -0.3130  0.0781  0.2154
27513W        W40927   3.830   0.860   1.032  0.2117  0.4234  0.1303
27514W        W40928  15.718   1.390   2.872  0.2281  0.0553  0.4581
27515W        W40929  11.920  12.970   0.272 -0.1350  0.1542  0.1303
27516W        W40930   0.634  15.091  16.022  0.0270  0.1585  0.0761
27517W        W40931  15.250   7.992  11.653 -0.2014  0.0940  0.3070
27518W        W40932  12.194   8.648   1.681 -0.0208 -0.3274  0.1291
27519W        W40933  18.026  13.709   0.747 -0.1143 -0.0658  0.0672
27520W        W40934  11.702   0.708   0.710 -0.0462  0.2152  0.2420
27521W        W40935  14.147  12.301  15.784  0.0710 -0.3225  0.1403
27522W        W40936   4.353   4.682  14.538  0.1402  0.1251  0.0226
27523W        W40937   1.872   0.844   3.512 -0.2864 -0.2236  0.1609
27524W        W40938   5.572  13.732   3.144  0.0988 -0.0255 -0.2361
27525W        W40939   5.522  15.774   4.678  0.1683  0.1541  0.0457
27526W        W40940  12.264   9.400  13.123 -0.0014 -0.1008 -0.3474
27527W        W40941   4.270   5.669  13.562 -0.1756 -0.0032 -0.0031
27528W        W40942   2.565  17.892  12.603  0.5539  0.0782  0.1211
27529W        W40943  12.434   0.564   5.551 -0.1745 -0.1655 -0.2421
27530W        W40944  14.917  13.523  12.435  0.0534  0.1997 -0.1855
27531W        W40945   1.992  16.237  12.626  0.0019 -0.3867  0.0152
27532W        W40946  13.686  12.322   3.840  0.1857 -0.1305 -0.1300
27533W        W40947  17.718   3.624   1.588  0.1211  0.2100  0.0608
27534W        W40948  12.671   2.531   1.010  0.0459  0.0314 -0.1504
27535W        W40949  17.982  16.717  15.221  0.1425 -0.1801 -0.0646
27536W        W40950   0.143   3.339  10.628 -0.1411 -0.1304 -0.1394
27537W        W40951  11.660  11.250  15.970 -0.3995  0.0159  0.3101
27538W        W40952   0.844  15.306  13.381  0.1814  0.0147 -0.2338
27539W        W40953  12.951   8.017  12.005  0.3321 -0.1440 -0.2331
27540W        W40954  18.452   9.773  14.790  0.4513  0.1904 -0.0286
27541W        W40955   7.773   7.712   4.445 -0.2533 -0.0780  0.1360
27542W        W40956   2.414  15.712  10.837 -0.3402 -0.1135  0.2426
27543W        W40957  15.895  16.775  15.316  0.0771  0.0353  0.3027
27544W        W40958  10.638  10.228   0.216  0.2931 -0.0240  0.0070
27545W        W40959  16.336   9.286   3.593  0.5019 -0.1932 -0.5316
27546W        W40960   2.831  13.835   2.458  0.0019 -0.1428  0.2835
27547W        W40961   9.903  13.283  10.632  0.0326 -0.1066 -0.1882
27548W        W40962   5.840   0.439  10.968  0.2997  0.1957 -0.2486
27549W        W40963  16.855  15.430  11.202  0.1072 -0.1877  0.1522
27550W        W40964  14.114  14.211   3.989 -0.2227 -0.3162  0.4987
27551W        W40965  10.646  16.534   2.704  0.2246  0.0644 -0.4163
27552W        W40966   1.517   0.187   2.190 -0.3002  0.0868 -0.0925
27553W        W40967   8.846   1.592   4.810 -0.2323 -0.3236  0.4091
27554W        W40968  14.275   3.126   1.900  0.2336 -0.2619 -0.3039
27555W        W40969  13.794  16.454  12.995 -0.4321 -0.1722 -0.0310
27556W        W40970   5.039   7.484   1.199 -0.1326  0.0433 -0.0192
27557W        W40971   7.094  10.618  11.577 -0.0758 -0.1069 -0.1193
27558W        W40972  14.205   4.247  13.829  0.2510 -0.1829  0.1325
27559W        W40973  11.708   4.514   5.338 -0.0109 -0.0892 -0.1636
27560W        W40974  16.737   6.199  10.265 -0.0049  0.2841 -0.1264
27561W        W40975  17.782  10.768   0.155  0.1783  0.0829  0.0179
27562W        W40976  15.323  13.632  12.751  0.0836  0.0565 -0.0426
27563W        W40977   1.647  10.983   5.737  0.0249  0.0563 -0.0819
27564W        W40978   0.644   6.264  14.449 -0.4211 -0.4844  0.0427
27565W        W40979  15.235  15.399   3.111  0.1356  0.2263 -0.0898
27566W        W40980   1.251   3.333  11.621 -0.1675  0.0679  0.0003
27567W        W40981   0.826   3.126  15.431 -0.1635  0.0611 -0.2239
27568W        W40982  13.403   0.104   3.281  0.0509  0.2586  0.3202
27569W        W40983   1.194  11.699   5.970  0.0249  0.1183  0.0670
27570W        W40984  10.164   3.234  12.746  0.0085  0.0339  0.1562
27571W        W40985   8.910  18.351  16.112  0.3316 -0.0349  0.1392
27572W        W40986   4.336   3.416  10.628  0.2432  0.0446 -0.3608
27573W        W40987  10.551   5.478   1.633  0.1350  0.2043  0.0900
27574W        W40988   4.565   4.117  14.074  0.0038 -0.2710  0.0318
27575W        W40989  17.024   0.622  13.257  0.0416 -0.4421  0.1178
27576W        W40990  16.724  13.660   0.625 -0.0777  0.0551 -0.1663
27577W        W40991  12.631  10.925   0.842  0.0820 -0.0798 -0.2036
27578W        W40992   0.867  17.955  13.155 -0.0128 -0.4000  0.0669
27579W        W40993   9.050   0.958   2.667 -0.1827  0.4706 -0.2747
27580W        W40994  16.297   6.043   0.047 -0.2333  0.1725 -0.2106
27581W        W40995   3.153   5.012  12.677 -0.0426  0.1869  0.0581
27582W        W40996  18.045   2.671  15.233  0.3755 -0.0754  0.0167
27583W        W40997  16.069   3.491   3.329  0.1237  0.0320  0.0538
27584W        W40998  12.456   3.995   2.424  0.1187  0.3794 -0.2250
27585W        W40999   1.087   6.708  15.354 -0.0572 -0.3529  0.3494
27586W        W41000   8.400   8.700  12.079 -0.0924  0.0322 -0.1144
27587W        W41001   5.198  11.240   2.231  0.0272  0.2140 -0.3528
27588W        W41002  12.021   7.975  12.046  0.2294  0.3320  0.0840
27589W        W41003  10.534  11.595   4.478 -0.0671  0.1675 -0.2580
27590W        W41004   5.159  12.846   2.255 -0.0357 -0.1644  0.1312
27591W        W41005  16.708   1.833   5.753  0.1516  0.1268 -0.1036
27592W        W41006  15.080   2.320  14.304  0.1370 -0.2552  0.1372
27593W        W41007  14.681   3.644  14.255 -0.4780 -0.0496 -0.0539
27594W        W41008   3.389  16.819   2.746 -0.1279 -0.0908  0.2301
27595W        W41009  16.918  14.930   5.089  0.1006  0.0691 -0.0852
27596W        W41010   4.542   4.400   2.651 -0.0731  0.0117  0.0257
27597W        W41011  11.130   2.301   0.599 -0.0810 -0.0096 -0.3381
27598W        W41012   7.021  12.162   6.052 -0.0845  0.0496 -0.0885
27599W        W41013   0.510  18.427   5.683  0.0492 -0.1558  0.1462
27600W        W41014   6.816   6.554   5.065  0.2225 -0.0802 -0.0692
27601W        W41015   4.234   9.385   2.919  0.1325 -0.2083  0.0643
27602W        W41016  12.997  16.287  13.743 -0.2631  0.3534  0.0599
27603W        W41017   4.783   4.912   5.051  0.0468 -0.1680  0.3682
27604W        W41018   2.018   9.644  12.757  0.0331  0.0204 -0.1867
27605W        W41019  14.376   6.736   3.036 -0.0388  0.2541 -0.1045
27606W        W41020   4.956   6.256  13.444 -0.4823  0.0230 -0.1297
27607W        W41021   5.673   2.137  12.605  0.0850  0.1648 -0.0734
27608W        W41022   5.696  14.518   5.144  0.1708 -0.2961 -0.0497
27609W        W41023  15.460   2.631   3.240  0.2374  0.1799 -0.1666
27610W        W41024  10.074  16.791   2.367  0.2297  0.0044  0.3208
27611W        W41025  10.828  11.054   3.141 -0.1125 -0.4601  0.0200
27612W        W41026  17.800  10.525  12.574 -0.2978 -0.0407  0.0201
27613W        W41027  16.298   5.650  13.310 -0.2486 -0.4564 -0.2347
27614W        W41028   4.545   4.396  11.893 -0.0987  0.1844  0.3543
27615W        W41029   2.028   5.346  11.118  0.2211 -0.0564 -0.0811
27616W        W41030  10.460  11.621  10.626 -0.0831  0.0528  0.0353
27617W        W41031  14.002   6.376   6.904  0.0112 -0.0233 -0.1936
27618W        W41032  17.675  17.085  14.401  0.2890 -0.1841  0.2042
27619W        W41033  16.398   2.578   3.017 -0.4140  0.2359  0.0389
27620W        W41034  12.397   0.529  14.535 -0.2851 -0.1251  0.0428
27621W        W41035   1.130   5.104  10.801  0.2332  0.1507  0.1897
27622W        W41036   3.128   8.757   3.368 -0.1195 -0.1902  0.1555
27623W        W41037   0.903   2.108   3.932  0.1328  0.2629  0.0119
27624W        W41038   2.187  12.252  13.698 -0.3419  0.2170  0.1092
27625W        W41039   6.703  12.110  12.870 -0.2358 -0.0347  0.2219
27626W        W41040   5.159   5.396  15.365 -0.0458 -0.2049  0.0455
27627W        W41041  18.498   0.056   3.903 -0.2660  0.0470 -0.3273
27628W        W41042   2.690   8.041   1.527 -0.0185  0.1003  0.1099
27629W        W41043  16.737  15.785  12.472  0.0346 -0.1140 -0.1928
27630W        W41044   1.493   0.625  13.156 -0.3020  0.0022 -0.4266
27631W        W41045  18.018   7.241   4.805  0.2516 -0.0359  0.2483
27632W        W41046   0.349   9.170   5.463  0.0667 -0.0960  0.1050
27633W        W41047   8.588   0.393   3.802 -0.0065 -0.2891  0.0073
27634W        W41048  16.533   5.036  12.218  0.2971  0.1205  0.1912
27635W        W41049   9.466  17.863   3.686  0.1044 -0.4612 -0.3215
27636W        W41050  17.653  17.908  13.925 -0.1095  0.2155 -0.0008
27637W        W41051   9.998  15.308   1.050  0.1656 -0.0610 -0.0192
27638W        W41052   7.445  15.151   4.688  0.3526 -0.1826 -0.1727
27639W        W41053  13.191  12.714  11.119  0.1942 -0.0438  0.0816
27640W        W41054  14.862   9.607   2.373  0.0661  0.1946  0.1083
27641W        W41055   4.909   6.208  14.410  0.5345 -0.4365  0.4307
27642W        W41056   7.801  14.117  13.516  0.1107 -0.0329  0.0013
27643W        W41057  12.071  16.913   2.848  0.4253 -0.0708  0.0310
27644W        W41058   7.388   9.219   5.882 -0.1342  0.2219 -0.0328
27645W        W41059   9.618   8.836   0.488 -0.0455 -0.0604  0.0269
27646W        W41060  14.822   9.095  12.451  0.0686 -0.1160 -0.3012
27647W        W41061  17.153   7.377   4.579 -0.1716 -0.0190 -0.1204
27648W        W41062  16.641   7.598   1.147  0.0834 -0.0718  0.1533
27649W        W41063   9.761  10.066  15.313  0.1557  0.0190  0.0630
27650W        W41064  13.477  13.796   3.448  0.0512  0.1148  0.2805
27651W        W41065   1.345   1.744   4.923  0.1236  0.1713  0.0417
27652W        W41066   4.873  15.372   1.273 -0.0998  0.0465 -0.0332
27653W        W41067  18.296  11.078  11.047  0.0069 -0.1187  0.2780
27654W        W41068  14.753  17.894  10.769  0.4468 -0.0825 -0.3390
27655W        W41069  16.536  13.498  11.531  0.0753  0.1559  0.1119
27656W        W41070   0.384  13.444  11.490 -0.0022  0.1958  0.1144
27657W        W41071  14.559  14.563   5.524  0.0098 -0.0081  0.0465
27658W        W41072  11.493   4.378  15.761  0.2168 -0.0068  0.0486
27659W        W41073  15.259  15.508   6.402  0.0751 -0.1755 -0.3104
27660W        W41074   9.529   5.946   4.787 -0.0174 -0.0176 -0.0106
27661W        W41075  12.106  10.669  11.644  0.0312 -0.0084  0.1514
27662W        W41076  14.505  13.217  14.191 -0.0078 -0.4966  0.0831
27663W        W41077  12.357   9.975  10.686  0.4671  0.1286  0.0479
27664W        W41078  15.421   6.634  13.471 -0.0274 -0.0733 -0.1726
27665W        W41079  15.456   8.892   0.018  0.1872  0.0137  0.0107
27666W        W41080   1.448   5.348   4.837 -0.4021 -0.0182 -0.1098
27667W        W41081  16.293  16.640  15.022 -0.1403 -0.0923  0.3317
27668W        W41082   5.635   9.448   4.152 -0.1386 -0.1945  0.2506
27669W        W41083   1.668   0.852   0.830 -0.0549 -0.0254  0.1167
27670W        W41084  15.160  13.545   4.252  0.1757 -0.1824 -0.3223
27671W        W41085  10.067  10.366   4.509  0.2275 -0.0936 -0.2499
27672W        W41086  13.879   7.511   3.031  0.1946  0.1307  0.0449
27673W        W41087  13.877  10.457  12.430  0.0870 -0.2974 -0.1679
27674W        W41088   8.412  13.782   2.331 -0.2615  0.1296  0.1185
27675W        W41089   7.697   1.688   9.907  0.0425  0.3189 -0.0861
27676W        W41090   8.212   4.544   0.434 -0.2540 -0.2513 -0.0042
27677W        W41091  10.003  13.024  15.609 -0.1043  0.2563  0.0742
27678W        W41092  12.771  11.331  15.093 -0.1609 -0.1299 -0.0405
27679W        W41093  12.061   7.793  12.952  0.0988 -0.1916 -0.0539
27680W        W41094  17.371  18.144   0.544 -0.0271  0.1996  0.0112
27681W        W41095  10.054   4.307  11.749  0.1412  0.2235 -0.0967
27682W        W41096  14.081  10.080   0.283 -0.1465  0.1047 -0.1007
27683W        W41097  14.830  16.701   3.931  0.0639 -0.0204  0.0077
27684W        W41098  11.992   4.835  14.642  0.1456  0.0321  0.1430
27685W        W41099   7.804   9.040   0.589 -0.0122 -0.0684  0.2838
27686W        W41100   3.607  12.476  11.809  0.0100 -0.0093  0.1022
27687W        W41101  14.635  12.372  15.949  0.0434 -0.1294 -0.0112
27688W        W41102  16.289  17.825   2.202 -0.1214  0.0456 -0.1415
27689W        W41103   0.206   1.091  11.719 -0.1531 -0.0649  0.0137
27690W        W41104   7.353  11.164  13.296  0.1493 -0.1137 -0.2139
27691W        W41105   4.149  12.028  16.218  0.3207 -0.0604 -0.1084
27692W        W41106   8.288   6.069   5.575 -0.0815 -0.0390 -0.1580
27693W        W41107   9.064   6.254  14.126 -0.0828 -0.2476  0.1139
27694W        W41108   4.553  14.584   1.778  0.1470  0.0638 -0.0343
27695W        W41109   2.100  18.078   4.246  0.0330 -0.2356 -0.1059
27696W        W41110   0.614  17.043  12.036 -0.2908  0.1176  0.2699
27697W        W41111   2.287   4.784   4.285  0.2954 -0.0636  0.0228
27698W        W41112   2.563  11.093   3.272 -0.0719 -0.2061  0.2763
27699W        W41113   7.837  11.321  14.018  0.3548 -0.1843  0.0004
27700W        W41114  14.308  18.239  11.592  0.0021 -0.1478  0.0518
27701W        W41115  16.753  15.736  15.952 -0.2337 -0.1351 -0.0710
27702W        W41116   5.941   6.094  12.881  0.1916  0.1295  0.0740
27703W        W41117  14.944  11.740  15.393 -0.0606  0.0655 -0.1447
27704W        W41118   3.663   9.295   4.290 -0.2614  0.1453  0.1234
27705W        W41119  10.094  10.270  14.997  0.2429  0.0684 -0.1006
27706W        W41120  17.871   9.067   1.950 -0.1894 -0.2643 -0.1250
27707W        W41121  10.723   2.847  11.671  0.3048  0.0915  0.3498
27708W        W41122   5.553   5.735   1.282  0.0886 -0.3596 -0.2625
27709W        W41123   9.969   4.832   0.405  0.2764  0.1519  0.1181
27710W        W41124  12.850   8.766   0.436  0.0157  0.2693  0.1067
27711W        W41125  13.553  14.919   1.630 -0.0137  0.0043 -0.0005
27712W        W41126   5.827   1.051  14.563  0.1539  0.0974 -0.3532
27713W        W41127  10.247  15.056  15.464  0.3765 -0.3040  0.0353
27714W        W41128  14.951   1.297  11.827 -0.3302 -0.0752  0.1084
27715W        W41129  16.042  17.733   1.190  0.0933  0.1314  0.0943
27716W        W41130   0.371  15.328   1.479 -0.0355  0.0378  0.2237
27717W        W41131  13.196   3.807  11.270 -0.1079  0.1414  0.0238
27718W        W41132   2.604   6.287   2.172 -0.3159  0.1644  0.3440
27719W        W41133   7.818   7.396  12.153  0.3164  0.0117  0.0501
27720W        W41134  13.313  10.394  12.255  0.0154  0.0392 -0.0402
27721W        W41135   4.022   9.885   6.219 -0.0033 -0.1038  0.1337
27722W        W41136   4.611   2.855  14.688  0.2236 -0.1525 -0.1061
27723W        W41137  11.434  17.443  11.224  0.0683 -0.0792  0.0304
27724W        W41138   5.125   6.909  12.802  0.0862 -0.1308  0.0046
27725W        W41139   1.897  12.449   4.050 -0.3134 -0.2200 -0.0059
27726W        W41140   9.277   0.660   0.322 -0.4261 -0.0736  0.0443
27727W        W41141  18.056   9.818  11.026  0.1355 -0.3593 -0.0263
27728W        W41142  12.235   1.317   0.277 -0.3227 -0.2359  0.4023
27729W        W41143   4.293  14.119   5.009  0.0554 -0.0976  0.2049
27730W        W41144  12.160  11.783  12.112  0.0463 -0.2252  0.3201
27731W        W41145  15.318  10.433   2.169 -0.1973  0.0992  0.0782
27732W        W41146  10.640   0.338   4.391 -0.0043  0.0952  0.1056
27733W        W41147   3.582   8.007  14.117 -0.2166  0.1806 -0.3203
27734W        W41148  17.198  13.824  12.259  0.2708 -0.0541 -0.2314
27735W        W41149   9.042  15.997   3.631 -0.1220  0.1944  0.0224
27736W        W41150  10.130  11.913   5.274 -0.0871  0.1273 -0.1719
27737W        W41151  17.588  15.475  13.685  0.1275 -0.0178 -0.2669
27738W        W41152   5.146   0.334  14.584 -0.2667 -0.1594 -0.2928
27739W        W41153  17.979   0.851   1.893  0.1011  0.0253 -0.2824
27740W        W41154  13.838   9.458  11.944  0.5573  0.0125  0.1357
27741W        W41155   3.149   9.952   1.549  0.0049 -0.4395  0.3954
27742W        W41156  15.098  15.407  15.185 -0.1013  0.1873 -0.0982
27743W        W41157  14.707  17.109  12.064 -0.1028 -0.0026  0.2976
27744W        W41158  12.682   8.441  14.581  0.1982 -0.2151 -0.0519
27745W        W41159  10.140  11.309  13.225 -0.0083  0.0916 -0.1737
27746W        W41160   7.906   6.837  14.528  0.1506  0.1243  0.0450
27747W        W41161   6.035  15.212  13.743 -0.0429 -0.0755  0.1187
27748W        W41162   3.988   7.582  16.085  0.2684  0.2970 -0.2132
27749W        W41163   8.622   2.912   5.204 -0.0979  0.3213 -0.0331
27750W        W41164   2.249   5.043  13.055 -0.0207  0.0213 -0.1321
27751W        W41165   3.115   3.052  14.073  0.4843 -0.1716  0.0117
27752W        W41166  11.742   9.125   0.951 -0.1107 -0.0409 -0.0997
27753W        W41167   7.624   6.837   3.928  0.2233 -0.1366  0.0288
27754W        W41168   9.101   1.317   3.032 -0.0961  0.2237  0.0618
27755W        W41169   0.188  14.997   0.517  0.0847 -0.2865 -0.0826
27756W        W41170   8.466  10.700  14.586  0.2006 -0.2628 -0.0330
27757W        W41171  10.933  17.354  14.408  0.0487 -0.4873 -0.0911
27758W        W41172   5.219  18.337   1.646  0.0849 -0.3642 -0.0035
27759W        W41173   6.318  17.277   4.992 -0.1375  0.0417 -0.2522
27760W        W41174  16.895  14.785  12.239  0.3019 -0.2442  0.2347
27761W        W41175   1.122   4.858  15.496 -0.1791  0.0561 -0.1445
27762W        W41176  13.101  17.179  14.361  0.4114  0.0373 -0.0145
27763W        W41177  16.601   0.700  10.429 -0.0600 -0.2084 -0.0114
27764W        W41178   3.657   6.572  13.852 -0.0754 -0.0070 -0.2501
27765W        W41179   6.709   9.419  14.269  0.1060 -0.1052 -0.3295
27766W        W41180  12.748  16.686  15.672  0.0274 -0.1318 -0.0732
27767W        W41181   9.837   4.127   3.790  0.1209  0.1730 -0.0590
27768W        W41182   0.893  11.308   2.873  0.1111  0.0387 -0.0189
27769W        W41183  17.869   5.315  15.606 -0.2560  0.0877  0.3167
27770W        W41184   5.517  14.577  11.961 -0.0730  0.2464 -0.1117
27771W        W41185   5.055   5.068  14.057  0.0005  0.1818  0.0322
27772W        W41186   5.049   7.647  14.005  0.1435  0.2226  0.0493
27773W        W41187  10.883  14.157  10.579 -0.1758  0.1596  0.2237
27774W        W41188  11.758  10.997  11.495  0.3350 -0.0447 -0.1933
27775W        W41189   1.367  13.392   5.671  0.1264 -0.1530 -0.1219
27776W        W41190  14.677   5.446  13.795  0.1348 -0.2344  0.2267
27777W        W41191   3.698  14.746  14.896 -0.1707  0.2108  0.0909
27778W        W41192   0.949  13.704  13.717 -0.1549  0.1126 -0.1281
27779W        W41193  11.788   5.487   0.043 -0.2194 -0.0695 -0.0199
27780W        W41194   7.257   6.749  13.953 -0.1265 -0.3495  0.2973
27781W        W41195   8.319   6.127  13.071 -0.0826 -0.2416  0.2754
27782W        W41196  13.691   3.506  14.867 -0.3046 -0.0197  0.0513
27783W        W41197  10.602   1.704  15.601  0.2745 -0.2914  0.1017
27784W        W41198   4.355  11.136  12.108  0.3666 -0.0096 -0.0657
27785W        W41199  15.150   8.144  15.634 -0.0376 -0.1321  0.2777
27786W        W41200   7.366   0.108   9.589  0.0358 -0.2183  0.1440
27787W        W41201  12.587  16.235   1.135  0.1336  0.0846 -0.0465
27788W        W41202   3.606   4.622  15.127 -0.1602  0.3249 -0.2115
27789W        W41203  15.108  12.537   2.176  0.3592  0.0963 -0.0585
27790W        W41204   2.784   2.492   0.507 -0.2512 -0.2870 -0.3370
27791W        W41205   3.514   8.794   0.597  0.2498 -0.4267  0.1338
27792W        W41206   2.999   3.015  15.771 -0.2874 -0.3382 -0.0797
27793W        W41207  16.870   6.606   3.079  0.0922  0.1108  0.3340
27794W        W41208  18.324  18.077   6.085 -0.3083 -0.0110 -0.1075
27795W        W41209   0.891  12.193   4.647  0.2383  0.1218 -0.4575
27796W        W41210  12.733  13.325  12.700 -0.0368 -0.3349 -0.2691
27797W        W41211  14.508   1.572  11.727 -0.0885 -0.0239  0.0673
27798W        W41212   7.509  14.331  11.448  0.0834  0.2052  0.1060
27799W        W41213  12.884   3.592   3.583 -0.0745  0.2899  0.0952
27800W        W41214   6.665  12.664  12.273  0.1363  0.2865  0.4368
27801W        W41215   9.506   8.663  11.737  0.0436 -0.3509  0.0926
27802W        W41216  14.803  11.880  11.568  0.0667 -0.2678  0.3298
27803W        W41217   9.559  16.680  15.262  0.3689 -0.0342 -0.1956
27804W        W41218   7.239  12.788   3.697 -0.3055  0.0076  0.3266
27805W        W41219  10.968  10.018   3.077 -0.0016 -0.0167 -0.2842
27806W        W41220   7.244   0.909   4.007 -0.2273 -0.0346 -0.0950
27807W        W41221   0.681   7.878   5.667  0.1763  0.1508 -0.1645
27808W        W41222   2.233   2.841   2.479  0.0130 -0.0763  0.0306
27809W        W41223   0.524  10.216   2.799 -0.1369  0.2294  0.0197
27810W        W41224   1.560  10.117   4.128  0.1088  0.1406  0.0330
27811W        W41225  12.206  17.524   1.080 -0.1723 -0.2834 -0.3734
27812W        W41226  11.284  15.838   2.085  0.0118 -0.2398  0.2615
27813W        W41227  10.283   2.279  14.438  0.4686 -0.1012  0.4645
27814W        W41228   9.062   9.856   2.212  0.0735  0.1929  0.0344
27815W        W41229   0.600   5.811  14.229  0.2436  0.1328  0.0644
27816W        W41230   9.533  16.652  14.119 -0.2480 -0.1107  0.1181
27817W        W41231   2.177  15.262   4.129 -0.0478 -0.1720 -0.1175
27818W        W41232  13.616  10.820   0.350 -0.1250 -0.2077  0.0961
27819W        W41233   8.178   9.547   6.007 -0.1070  0.1654  0.0585
27820W        W41234  13.937   8.268  13.691  0.1336 -0.0073  0.1563
27821W        W41235  11.721   6.534  11.570 -0.0080 -0.1847 -0.0605
27822W        W41236   6.520  13.594  14.056  0.0433 -0.0990 -0.2114
27823W        W41237  16.693  15.123   4.646 -0.0872 -0.1860 -0.1720
27824W        W41238   8.501   9.731   3.897 -0.0691  0.1601 -0.0556
27825W        W41239  16.592  11.991  12.939 -0.1653  0.1426 -0.0785
27826W        W41240  16.941   5.618  10.238  0.4017 -0.0441 -0.2393
27827W        W41241   7.564   0.741  11.166 -0.2036  0.1537 -0.0174
27828W        W41242  15.662  15.811   4.384  0.2990  0.0759 -0.1067
27829W        W41243   7.255  18.089   0.428 -0.0845  0.2099 -0.2977
27830W        W41244  16.191  11.605  13.114  0.1322 -0.0238  0.0321
27831W        W41245   2.898   4.143  10.646 -0.1773  0.1605  0.2088
27832W        W41246   5.856   2.860  14.453 -0.0178  0.0404 -0.2267
27833W        W41247   9.479  16.108  14.250 -0.1939  0.1267 -0.1037
27834W        W41248   8.542  10.442  13.318 -0.4580 -0.0957 -0.1885
27835W        W41249   0.145   3.080   2.257  0.2534  0.1154  0.1093
27836W        W41250  17.110  14.795  11.316 -0.0640 -0.0139 -0.1364
27837W        W41251   1.621   1.423  12.127  0.2576 -0.0665  0.2756
27838W        W41252   1.224  13.112   1.725  0.2745  0.1203  0.0603
27839W        W41253  12.162   7.383   4.034  0.3566  0.0445 -0.0439
27840W        W41254   1.668   3.332   0.293  0.0545  0.1199 -0.0588
27841W        W41255   0.832   2.742   4.628  0.3622  0.0299  0.4004
27842W        W41256  10.250   5.279  13.666 -0.3325  0.2484  0.1401
27843W        W41257  16.786   2.399  13.641 -0.0472  0.1037 -0.3195
27844W        W41258  12.602  10.000   2.077 -0.0324  0.2443  0.1029
27845W        W41259   2.941  13.761   3.655 -0.3194 -0.1434  0.0238
27846W        W41260   6.474   4.834  12.669 -0.5258 -0.2796  0.0072
27847W        W41261  11.686   3.397  14.134 -0.0772  0.1008 -0.2138
27848W        W41262   4.436   3.053  10.298  0.1120  0.0334  0.0973
27849W        W41263  16.045  13.174  15.664  0.3690  0.1153 -0.2060
27850W        W41264  11.959   0.282  11.290 -0.3882  0.3126  0.2483
27851W        W41265   6.985   8.846  15.075 -0.3128 -0.1746 -0.0022
27852W        W41266   3.519   6.162  13.127  0.0801 -0.4724  0.0496
27853W        W41267   0.279  12.964   0.885  0.2596 -0.0046  0.1209
27854W        W41268   4.136  13.342  12.679 -0.0727  0.1560 -0.2610
27855W        W41269  17.576  14.450   2.294 -0.3906 -0.0136  0.0151
27856W        W41270  17.635  13.592  13.573  0.1162  0.0854 -0.1765
27857W        W41271   9.891   7.627  13.365  0.1414  0.1040 -0.0734
27858W        W41272  13.492   1.678  14.145  0.0366 -0.2106 -0.2657
27859W        W41273  12.989  14.649   2.107  0.0425 -0.1691  0.0974
27860W        W41274  13.782   9.131  15.751 -0.0990 -0.0398  0.0310
27861W        W41275   6.571  16.122   1.244  0.4689  0.2586  0.1695
27862W        W41276   1.150  18.077  14.290  0.0008  0.0339 -0.1941
27863W        W41277   1.929  17.373  14.611 -0.0524  0.1121 -0.1809
27864W        W41278  18.411   6.142   5.966 -0.3241 -0.2751 -0.0957
27865W        W41279  12.077  18.515  13.701 -0.2260  0.0810  0.0632
27866W        W41280   3.959  13.371   0.900  0.0810 -0.4829  0.1309
27867W        W41281  10.100   6.452  16.085 -0.3233  0.0023  0.0353
27868W        W41282   3.132   7.156  14.789 -0.2008 -0.2865 -0.0474
27869W        W41283  15.549   5.474  11.793 -0.2679 -0.1365  0.1364
27870W        W41284  14.925   8.616   0.002  0.1270 -0.2186 -0.0391
27871W        W41285  18.480  11.172  10.577  0.4081  0.1099 -0.3942
27872W        W41286   3.818   7.135   4.973  0.1325  0.1691  0.2051
27873W        W41287  17.866  13.818  13.115 -0.0918  0.1398 -0.0205
27874W        W41288   3.616   8.451   2.718  0.1655 -0.0843 -0.3459
27875W        W41289  16.122   5.459   6.508 -0.4448 -0.0684 -0.4933
27876W        W41290   6.144   0.024  12.685 -0.2344  0.2047 -0.1276
27877W        W41291  12.836  11.920   0.501 -0.2194 -0.0980  0.0352
27878W        W41292   8.173  17.671  15.801  0.2820  0.0945 -0.1913
27879W        W41293  18.351   3.682  12.653 -0.0425  0.1569  0.0763
27880W        W41294  13.422   9.033   6.268  0.0000  0.0808 -0.0141
27881W        W41295  12.652   7.363   5.293 -0.1510 -0.0956 -0.0715
27882W        W41296   4.118  12.003  13.376  0.2163 -0.0970  0.1550
27883W        W41297   7.832  13.474  15.272  0.0340  0.0623  0.1197
27884W        W41298  10.429  10.032  13.442  0.1176  0.1768 -0.1668
27885W        W41299   4.368   7.893  13.182  0.1712 -0.1218 -0.0669
27886W        W41300  10.028  18.407   0.585 -0.0214  0.0328  0.1287
27887W        W41301   8.695  13.865  13.434  0.2436  0.0048  0.3034
27888W        W41302  10.863  12.870  11.743  0.0754  0.1994 -0.0900
27889W        W41303  10.671  16.288   3.116 -0.3527 -0.0568 -0.0403
27890W        W41304   3.667   4.722  11.689 -0.0753  0.4090  0.0165
27891W        W41305  13.459   6.287  13.437 -0.0507 -0.3115 -0.2065
27892W        W41306  12.860  14.202  11.647  0.2261  0.1885  0.0869
27893W        W41307  11.267  10.329   2.043  0.0496  0.1618 -0.0295
27894W        W41308   3.589   7.534   1.441 -0.2259  0.1072 -0.2476
27895W        W41309   1.312  16.591  12.957 -0.3922  0.1579 -0.0848
27896W        W41310   5.259  17.836  14.586 -0.1527  0.3516 -0.0381
27897W        W41311   3.354   8.601  10.697  0.2741 -0.0364 -0.0272
27898W        W41312   3.356   6.894   4.340  0.0063  0.0802 -0.0632
27899W        W41313   1.115  18.014  15.397 -0.1315  0.1416  0.0016
27900W        W41314   3.743  11.311  15.691  0.0989 -0.2203  0.2060
27901W        W41315   2.668   7.469   3.099 -0.0136  0.1028  0.0846
27902W        W41316   1.913   8.129  11.466 -0.0116  0.0584  0.2369
27903W        W41317  15.147   5.873   4.228  0.1956 -0.0685  0.3764
27904W        W41318  14.809  12.631   3.244  0.1542 -0.2560  0.2679
27905W        W41319   0.795   0.221  12.453  0.0922  0.2083  0.1006
27906W        W41320   8.558  10.859  15.026  0.1577  0.1500  0.1980
27907W        W41321   3.817  12.180  11.407 -0.2240  0.0360  0.2446
27908W        W41322   4.218  17.059   6.201 -0.0571 -0.0584 -0.0062
27909W        W41323  10.396  12.707   2.749  0.1889 -0.3626  0.1060
27910W        W41324  17.096   4.612   3.321  0.2994 -0.0020  0.1709
27911W        W41325  16.394   2.102   3.038  0.2483 -0.0690 -0.1463
27912W        W41326   7.415  15.601  14.110 -0.3195 -0.2170  0.1547
27913W        W41327  14.143  17.467  12.000  0.1395 -0.1308  0.0411
27914W        W41328   0.254   3.421  12.307 -0.0493  0.0085 -0.0184
27915W        W41329  10.576   0.072  14.236  0.0493 -0.2009  0.1141
27916W        W41330  17.354  17.765   3.865 -0.2501  0.1816 -0.1737
27917W        W41331  17.655   8.559   1.178  0.2267  0.2516  0.0285
27918W        W41332   3.673   8.808  11.509 -0.0630 -0.0901  0.2845
27919W        W41333  11.264  12.291  13.712 -0.0939 -0.3579  0.1384
27920W        W41334  13.163   1.423  11.082  0.0265  0.3012  0.1430
27921W        W41335  15.240  16.762   5.556  0.3990  0.2206  0.1682
27922W        W41336   2.911   7.010  10.276  0.1533 -0.1275 -0.0501
27923W        W41337  10.034  13.943   1.704 -0.4171  0.1370 -0.0130
27924W        W41338  13.127  11.170   3.776  0.1061  0.1615 -0.4182
27925W        W41339  12.540   6.077  14.305 -0.1953 -0.1295 -0.0526
27926W        W41340   1.290   7.561   1.992  0.0002  0.2651 -0.1632
27927W        W41341  14.475   0.861   0.814 -0.1632 -0.1138  0.1162
27928W        W41342  11.703  10.326  15.809  0.0064 -0.1327 -0.1904
27929W        W41343  14.416   3.915  13.477 -0.0178 -0.0595 -0.0995
27930W        W41344   1.460   0.542  14.882  0.0397  0.0075 -0.0649
27931W        W41345   1.511  10.028  16.123  0.3306 -0.0714 -0.1305
27932W        W41346   9.691  10.206   1.105  0.2830 -0.0621 -0.1340
27933W        W41347   4.526  16.743  14.805 -0.2889  0.1499  0.2181
27934W        W41348   9.900  12.324   5.365 -0.2116  0.1816 -0.1288
27935W        W41349   8.818  17.352  14.435 -0.2972 -0.1139  0.0341
27936W        W41350   6.359  16.553  12.397  0.0429  0.2127 -0.2992
27937W        W41351   2.088   3.878  12.995  0.0623 -0.0115 -0.0929
27938W        W41352   9.877  14.738   0.028  0.3288  0.1777  0.0915
27939W        W41353   3.992  14.829   2.819  0.2420 -0.1319  0.1220
27940W        W41354  14.178   9.460  10.372 -0.1091 -0.1618  0.2284
27941W        W41355   9.183   9.139  15.048  0.1966 -0.2517 -0.0664
27942W        W41356  16.578  10.400  11.473  0.0247 -0.0999 -0.1639
27943W        W41357   4.138   5.182   2.922 -0.0244 -0.0427 -0.0108
27944W        W41358  18.508   2.531   4.184  0.0425 -0.2153  0.3000
27945W        W41359  13.214  16.025   2.590 -0.1542  0.3571  0.1738
27946W        W41360  18.238  15.161   4.519 -0.1372  0.0038 -0.0283
27947W        W41361  17.863  15.107   3.498 -0.0574 -0.1052  0.0340
27948W        W41362  14.061  15.620   6.205 -0.0903  0.0049  0.0644
27949W        W41363  16.414   6.198  10.778 -0.4022 -0.0552 -0.1042
27950W        W41364   6.269  15.913  10.000 -0.1369 -0.0404  0.2888
27951W        W41365   9.780  18.138  15.734 -0.2164 -0.0125  0.1063
27952W        W41366  16.808  10.812  14.632 -0.0714 -0.0765 -0.4002
27953W        W41367  13.234   1.694  12.457 -0.1024  0.3685  0.3268
27954W        W41368  11.349  14.668  13.760  0.1429  0.3546  0.0438
27955W        W41369  18.293  14.797   0.199 -0.0025 -0.0530  0.0834
27956W        W41370   6.809  16.432  15.906  0.3255 -0.2815 -0.0459
27957W        W41371  17.165   1.638   4.961  0.2915  0.1140  0.0541
27958W        W41372  16.846  16.368   1.880  0.0719 -0.3835 -0.2606
27959W        W41373  15.172  14.654   4.812 -0.0704  0.1954 -0.0151
27960W        W41374   1.378   5.607  14.086  0.1279 -0.1447  0.2003
27961W        W41375   3.602   0.209  11.203 -0.1289  0.1007 -0.1086
27962W        W41376  13.521   1.274   2.237  0.2417  0.0553  0.0297
27963W        W41377  17.020   4.170  13.695  0.4311  0.0053  0.0921
27964W        W41378  11.219  13.141   3.357 -0.0086  0.0269  0.2125
27965W        W41379   2.491  11.990  15.185  0.0442 -0.0202  0.2176
27966W        W41380   2.588   1.378  14.023 -0.2500 -0.0864 -0.0877
27967W        W41381   1.337   8.289  12.998  0.2265 -0.1815  0.1336
27968W        W41382  13.381  13.882   5.930  0.0221  0.2810 -0.2571
27969W        W41383   1.060   7.578   5.414  0.2497 -0.1032 -0.0352
27970W        W41384   6.163  17.748  12.426 -0.2927  0.1292  0.0252
27971W        W41385  10.964   2.162  10.907  0.1966 -0.1302 -0.2323
27972W        W41386   9.111  11.441   3.097 -0.2817 -0.0850  0.1206
27973W        W41387  12.191   3.397  13.990  0.1221 -0.3586 -0.0228
27974W        W41388  14.066   7.786  11.637  0.0342  0.1051  0.0383
27975W        W41389   1.434   1.410   0.767 -0.3622 -0.0385 -0.1782
27976W        W41390   1.424   9.038  11.876 -0.0036 -0.0878 -0.2508
27977W        W41391   8.328   1.756   0.952  0.1800 -0.0416 -0.2254
27978W        W41392   6.195  11.154  15.220 -0.2530 -0.0833 -0.2517
27979W        W41393  18.410  16.844  12.594 -0.1044 -0.0557 -0.0938
27980W        W41394  10.790  10.001   3.555 -0.0576 -0.0196 -0.1512
27981W        W41395   2.562  18.145   6.024 -0.0803  0.0652  0.0621
27982W        W41396  10.481  13.429  13.358 -0.0221 -0.0327  0.0283
27983W        W41397   3.557  15.802   3.052 -0.2109  0.1120  0.1610
27984W        W41398  17.837  17.304  12.495  0.1345 -0.1870  0.3723
27985W        W41399  14.749  16.127   1.064  0.1096  0.2607  0.1873
27986W        W41400  13.347   0.533   2.192 -0.0917 -0.0937 -0.0768
27987W        W41401   4.907  17.586  15.503 -0.2274  0.0517  0.1314
27988W        W41402   6.366  14.802   1.058  0.3506  0.1432 -0.0892
27989W        W41403  13.140  15.199  14.786  0.4057  0.3225  0.3453
27990W        W41404   2.382  16.509   5.548  0.1778 -0.2238 -0.1767
27991W        W41405  17.131   6.947   0.840 -0.0006 -0.0582  0.0280
27992W        W41406  17.325   8.061  11.750 -0.0159  0.2155  0.0690
27993W        W41407   2.598   8.986   3.240  0.2281 -0.0444 -0.3483
27994W        W41408   6.811  10.528  15.659  0.1316  0.2531 -0.2966
27995W        W41409  14.243   2.330  14.621 -0.0789  0.1733 -0.1366
27996W        W41410   6.450   4.787  11.542 -0.1333 -0.2910 -0.3774
27997W        W41411  11.761  15.337  12.132 -0.0975 -0.0647 -0.0025
27998W        W41412   6.335   4.957   1.493  0.2260  0.4102 -0.0096
27999W        W41413   6.737  14.866  13.405 -0.1643 -0.0063 -0.1646
28000W        W41414  14.326   6.703   6.566 -0.0876  0.0722  0.3368
28001W        W41415  15.079   3.026  12.559 -0.5425 -0.2362  0.0031
28002W        W41416  15.345  15.457   4.697 -0.1846 -0.2357 -0.3834
28003W        W41417   8.094   5.610   5.842  0.1272 -0.3039 -0.0199
28004W        W41418  14.984   7.716   2.034 -0.1734  0.3987 -0.1672
28005W        W41419   0.360   4.669  13.403 -0.2420  0.1339  0.0886
28006W        W41420  10.052  14.469  10.823  0.0109  0.1436  0.0757
28007W        W41421  17.612  12.445  15.928 -0.1841  0.2327  0.2637
28008W        W41422   2.654   5.530   3.864  0.1433  0.0168 -0.2000
28009W        W41423  13.778   4.954  11.494 -0.2083 -0.1707 -0.0431
28010W        W41424   4.402   6.837   3.657 -0.0273 -0.1292 -0.0012
28011W        W41425   4.725  13.734   2.127  0.2521  0.2360  0.0268
28012W        W41426   3.392   2.840   3.007  0.0463  0.2410 -0.0864
28013W        W41427   2.649  15.535  15.748 -0.2496  0.3138 -0.1218
28014W        W41428  11.643  12.633   4.740  0.1273 -0.2306 -0.3630
28015W        W41429  12.285  15.748   5.742  0.2684  0.1803  0.1913
28016W        W41430  15.223   2.614   0.928  0.2180  0.3133 -0.1315
28017W        W41431   3.828  14.646  15.499  0.0453  0.1250 -0.4376
28018W        W41432   3.137  15.892   3.692 -0.1257  0.1665  0.2856
28019W        W41433  10.393   7.826  14.206  0.0874  0.0177  0.0929
28020W        W41434  11.145   3.693   4.390 -0.2467  0.1200 -0.0088
28021W        W41435  14.204  14.477   1.212 -0.1455 -0.2120 -0.1418
28022W        W41436   0.716   4.459  13.107 -0.0118  0.3456  0.2521
28023W        W41437  11.003  10.299  14.496  0.0827 -0.1385 -0.0463
28024W        W41438  17.920   7.301   3.437 -0.0263 -0.0288 -0.2235
28025W        W41439  13.014   0.923   1.992 -0.1733 -0.1939  0.1699
28026W        W41440   5.907   0.745   3.778  0.1054 -0.0764 -0.2061
28027W        W41441  10.030   9.087   0.311 -0.1625 -0.3253  0.3024
28028W        W41442   4.202  11.623  13.687  0.1315 -0.2196  0.0688
28029W        W41443   3.345   8.048   5.699  0.2703  0.0291  0.0115
28030W        W41444   2.338   4.084   2.010  0.0417 -0.0466  0.2045
28031W        W41445   5.997   6.674   4.396 -0.0746  0.2615  0.0573
28032W        W41446   2.364  16.302   0.156  0.3731 -0.0898 -0.1953
28033W        W41447  16.397  15.952   2.984  0.2077 -0.1429 -0.1171
28034W        W41448   9.644  12.772   3.756  0.0181 -0.1604 -0.2775
28035W        W41449   4.002  10.319  14.286 -0.0210  0.0218  0.1103
28036W        W41450   4.083   2.981   3.806  0.3260  0.2016 -0.2238
28037W        W41451  11.153  17.515   0.410  0.0414 -0.0296  0.0749
28038W        W41452  12.811  17.894  10.085  0.1830  0.1406  0.2684
28039W        W41453  16.801   3.288  15.971 -0.0056  0.0910 -0.1290
28040W        W41454   5.503  14.192  16.113 -0.0540 -0.1251 -0.0038
28041W        W41455   2.088   8.615  15.198  0.1309 -0.2127 -0.0660
28042W        W41456   0.519   6.496  12.866 -0.0251  0.2063 -0.0006
28043W        W41457  15.097  15.892  13.972  0.1718 -0.2119 -0.2717
28044W        W41458  16.749   3.922  13.341  0.3164 -0.1799 -0.0525
28045W        W41459  16.068   4.566  14.765  0.2772 -0.0137 -0.1261
28046W        W41460   5.620   2.364  11.084 -0.1839 -0.3094  0.1200
28047W        W41461   1.708  16.690  12.132  0.0063  0.2991 -0.0621
28048W        W41462   5.276   4.497   3.177  0.1837 -0.1734  0.0188
28049W        W41463   6.231   9.620   4.073 -0.2802  0.1470  0.3096
28050W        W41464   3.644  12.379  15.358  0.0288  0.0682 -0.0422
28051W        W41465  13.724   8.040   4.918 -0.0629  0.2163  0.2247
28052W        W41466  14.816  14.398   5.074 -0.0686 -0.3417  0.2311
28053W        W41467  14.626   7.214  11.790 -0.0341  0.0925  0.0796
28054W        W41468   1.556   5.219   4.263 -0.2511 -0.1859 -0.0107
28055W        W41469  12.292   8.296  10.431 -0.2554  0.0317 -0.0512
28056W        W41470  18.508   0.972  14.636  0.2949 -0.1105  0.1931
28057W        W41471   3.116   0.251   1.480 -0.1073  0.2767 -0.0618
28058W        W41472   4.112  10.353   0.448  0.0597 -0.1052 -0.1529
28059W        W41473   8.453  16.389   1.232 -0.1204  0.1137 -0.0618
28060W        W41474   3.844  14.213  15.259  0.0198  0.1377 -0.0800
28061W        W41475   9.094  13.870   5.300 -0.4155  0.2258 -0.0580
28062W        W41476  14.719   7.349   2.480 -0.0594  0.1442 -0.0107
28063W        W41477  15.457   4.099   0.574 -0.3498 -0.2795 -0.0018
28064W        W41478  14.401  11.619  10.484  0.3602  0.4667  0.1393
28065W        W41479   3.338   8.613   4.859 -0.2666  0.0534 -0.0331
28066W        W41480  17.705   5.139   0.289  0.0206 -0.3125  0.1699
28067W        W41481   9.066   4.147  12.275  0.2993  0.2373  0.1640
28068W        W41482   0.359   6.068   5.866 -0.2370 -0.0368 -0.2647
28069W        W41483   6.131   1.608  15.195  0.2224 -0.0402 -0.2524
28070W        W41484   4.139   6.040   0.743  0.0542 -0.0436 -0.2387
28071W        W41485  11.100  17.355  13.971 -0.1010 -0.2121  0.1820
28072W        W41486  16.905   4.184  14.257  0.0958 -0.0395 -0.1762
28073W        W41487   0.568  18.116  16.141 -0.1331 -0.1913  0.1895
28074W        W41488   0.663   7.837   2.098  0.3126 -0.0736 -0.0367
28075W        W41489   8.520   0.364   0.047 -0.1487 -0.1314 -0.1274
28076W        W41490  16.849   6.088   5.397  0.1954 -0.1568 -0.0814
28077W        W41491   3.764  16.829  10.683  0.3471 -0.3940  0.3361
28078W        W41492  15.148   2.274   4.332 -0.0264 -0.1106  0.0776
28079W        W41493  13.014   2.941  14.277 -0.3364 -0.2018 -0.0637
28080W        W41494  16.178   3.929  12.526  0.0621  0.0243  0.0340
28081W        W41495   2.442  12.328  12.571  0.0343  0.4094 -0.2390
28082W        W41496   5.901   2.762  15.973 -0.1693 -0.0685  0.2847
28083W        W41497   5.726   9.415  11.812 -0.0058 -0.1471  0.2214
28084W        W41498  14.231   6.529   5.661  0.1542  0.0955 -0.2995
28085W        W41499   6.650  16.906   5.070 -0.2401 -0.2979  0.0320
28086W        W41500   4.012   8.880   3.148  0.0328 -0.2556 -0.2062
28087W        W41501  12.944  12.421   0.298 -0.2953 -0.0122  0.1688
28088W        W41502   7.154  18.355  12.221 -0.0545 -0.1615 -0.0758
28089W        W41503  12.018   6.821  10.123  0.1563  0.2282  0.0602
28090W        W41504   3.443   7.253   1.826  0.0440  0.1762 -0.0991
28091W        W41505  14.793  11.813   1.677 -0.0555  0.2363  0.1779
28092W        W41506  14.756  15.976  12.733  0.2684  0.1521 -0.0888
28093W        W41507  15.698  10.923   1.825  0.1957  0.3255  0.1486
28094W        W41508  16.343   6.475  11.191 -0.1619  0.1066 -0.0685
28095W        W41509  18.318   5.851   2.265  0.1005  0.0999  0.1007
28096W        W41510   3.824  11.553   0.789  0.1877 -0.1433  0.1081
28097W        W41511   4.705   1.516   6.027 -0.5938 -0.1987 -0.0578
28098W        W41512   3.715   8.083  14.670 -0.2047  0.0454 -0.2346
28099W        W41513  16.722   1.909   4.208 -0.2271  0.0714  0.1026
28100W        W41514   8.329   0.380  10.356  0.0227  0.1682  0.3856
28101W        W41515  16.355  12.345   4.709  0.0614 -0.0224 -0.0914
28102W        W41516  11.676   9.898  15.445  0.4089 -0.1089 -0.2114
28103W        W41517  14.574  16.038  14.155 -0.2595  0.3032 -0.1611
28104W        W41518  12.848  18.508  11.105 -0.0730  0.1257  0.0996
28105W        W41519   9.284   5.966  12.801  0.1475 -0.1251 -0.0673
28106W        W41520  13.299  17.378   5.267 -0.2885 -0.1732  0.0344
28107W        W41521  15.206  11.375  15.034  0.0866  0.0399  0.0099
28108W        W41522   1.436   3.316  14.776 -0.0828 -0.0362  0.1918
28109W        W41523  13.582   2.919  14.318 -0.0207  0.1858 -0.0461
28110W        W41524   1.361  18.222   4.665 -0.1685  0.0725  0.0915
28111W        W41525   2.463  17.590   5.801 -0.0398 -0.1207  0.0525
28112W        W41526   9.636  17.453   0.259  0.4443  0.0527 -0.1609
28113W        W41527  13.912   1.947  14.679  0.4498  0.0429 -0.0040
28114W        W41528   1.832   9.282   2.568 -0.1260 -0.1023  0.1242
28115W        W41529   8.349   9.790  13.916  0.0488  0.0304 -0.0957
28116W        W41530  14.050  13.547  10.484 -0.1437 -0.2381  0.2385
28117W        W41531   8.246  10.878   1.509 -0.0396 -0.1761 -0.0502
28118W        W41532   7.954   8.360  14.204  0.2641 -0.3755 -0.0584
28119W        W41533   2.219  15.656   1.763 -0.2687 -0.3440 -0.0761
28120W        W41534   0.505  12.106   5.587 -0.3569 -0.0535  0.2117
28121W        W41535   3.435   7.792   0.615  0.2336  0.0055  0.0200
28122W        W41536   9.433   3.548   1.311  0.2353  0.0377  0.3409
28123W        W41537   1.336   7.596  12.495 -0.0923 -0.3252  0.2639
28124W        W41538  16.552  16.045   1.291  0.1968 -0.1241 -0.0744
28125W        W41539  15.762  15.487  13.426 -0.0609 -0.0572  0.0265
28126W        W41540   0.923   1.368  10.888  0.1231 -0.2283 -0.0009
28127W        W41541  16.726   5.698   1.781 -0.1850 -0.1881  0.1537
28128W        W41542   6.091   9.640  10.598 -0.0797 -0.1957 -0.2417
28129W        W41543  18.179   8.837  12.626 -0.0008 -0.1228 -0.3193
28130W        W41544  15.650  16.165   2.444  0.0220 -0.1281  0.2953
28131W        W41545   9.784   3.551   4.071 -0.0884 -0.1787  0.0491
28132W        W41546  15.910   6.077   3.224  0.0760  0.0115 -0.1081
28133W        W41547   3.248  16.229  16.250  0.3191 -0.0533  0.1166
28134W        W41548   9.679   6.300   4.470 -0.1527  0.0194 -0.0408
28135W        W41549   7.479  14.120   0.055  0.3117  0.1430 -0.4204
28136W        W41550   2.056  14.381  12.605 -0.3142  0.0679 -0.1076
28137W        W41551  16.991   9.961   4.442 -0.0459  0.2119  0.0979
28138W        W41552   4.976  12.360   4.265 -0.1934 -0.1539  0.0945
28139W        W41553   3.236   8.317  13.954 -0.0132 -0.1992 -0.0080
28140W        W41554   6.788  13.291  15.486 -0.2997 -0.1048  0.1464
28141W        W41555  10.888   9.970   4.065  0.2083  0.2489 -0.0744
28142W        W41556  15.396  15.302  12.726 -0.0350 -0.2470  0.2680
28143W        W41557  14.856  14.319   0.495 -0.2100  0.2945 -0.1885
28144W        W41558  14.351   7.690   3.825 -0.2690  0.1518  0.0332
28145W        W41559  14.716  10.854  11.352  0.1538 -0.2220  0.2629
28146W        W41560  13.973  15.764   5.294 -0.3929 -0.0764 -0.0306
28147W        W41561   6.880   2.116   1.588  0.3839  0.0820  0.1372
28148W        W41562   5.726   2.482   0.140 -0.0744  0.3126  0.0754
28149W        W41563   1.719   4.645   1.823 -0.0703 -0.0169  0.1772
28150W        W41564   6.348  13.353   2.536 -0.0146 -0.0207 -0.0157
28151W        W41565  14.832   9.789  13.055  0.0551  0.0715  0.0020
28152W        W41566  17.931   6.974  10.820  0.2927 -0.3100 -0.0196
28153W        W41567  15.092  17.555   2.803 -0.0914  0.0580  0.0016
28154W        W41568   9.044   2.448   1.447  0.1871  0.3973 -0.2496
28155W        W41569   6.468   2.766   1.299  0.1710 -0.0040  0.1150
28156W        W41570  18.160  11.555  12.862  0.0233 -0.2057 -0.1022
28157W        W41571  13.370  12.767  13.113 -0.2775  0.0739 -0.2580
28158W        W41572  13.760  14.301   5.132  0.1678  0.4325 -0.2515
28159W        W41573   6.272  10.978   2.135 -0.3611  0.0374 -0.1145
28160W        W41574  11.903  13.147  10.640  0.1594 -0.0004  0.0291
28161W        W41575   0.059   1.246   4.353 -0.0721  0.0255  0.0363
28162W        W41576   4.798   2.282   5.791 -0.3005 -0.1659 -0.0099
28163W        W41577   3.336  16.101   9.995 -0.3628 -0.1948 -0.3208
28164W        W41578  13.107  10.838   6.013  0.1309  0.1079 -0.3249
28165W        W41579   9.618  14.001   2.526  0.2427  0.1025  0.1930
28166W        W41580  12.047  17.777   4.796 -0.1008 -0.1990  0.0170
28167W        W41581  13.997   0.637  11.778 -0.1762  0.2251 -0.1026
28168W        W41582  17.026  11.163  13.700  0.3104 -0.1384 -0.0866
28169W        W41583   5.347  17.880  11.837  0.1623 -0.1496 -0.2637
28170W        W41584  15.811  17.561   2.267  0.0247 -0.1275 -0.0576
28171W        W41585  13.490  11.583  13.402  0.0797 -0.0481  0.1249
28172W        W41586   5.275   5.129   4.871 -0.0233  0.0409  0.0175
28173W        W41587  18.017   3.684  13.023 -0.0475  0.1807 -0.0148
28174W        W41588   2.502  16.602  14.260 -0.4778 -0.0165 -0.2041
28175W        W41589  13.296  10.335   1.036 -0.4207  0.0505 -0.0366
28176W        W41590  13.844  11.091  14.601 -0.2278 -0.1420 -0.1446
28177W        W41591  12.556  15.177   0.478 -0.0855 -0.1309 -0.1256
28178W        W41592   8.671   2.758   5.776 -0.0120  0.0058  0.0033
28179W        W41593   0.522  16.761   5.847 -0.2218  0.2420  0.0684
28180W        W41594   1.894   3.756   4.798 -0.1319  0.1229 -0.0480
28181W        W41595   6.384  16.239  15.651 -0.1026 -0.0334  0.0466
28182W        W41596   0.760   1.914  10.602  0.0907  0.0819  0.0929
28183W        W41597   6.988  10.648   1.167 -0.1206  0.1560 -0.0530
28184W        W41598  11.099   5.053   0.789  0.0539 -0.2299 -0.0909
28185W        W41599  11.891   9.348   4.477  0.1131 -0.0535  0.1718
28186W        W41600   6.481  11.832   2.975 -0.1160 -0.1081 -0.0773
28187W        W41601   5.473   9.479   6.316 -0.3768 -0.1076 -0.1313
28188W        W41602   2.769  11.886   5.366 -0.0473  0.2546 -0.1453
28189W        W41603   8.575   9.231  14.896  0.1592  0.2722  0.1122
28190W        W41604   5.985   6.741   1.522  0.1079 -0.4383  0.0927
28191W        W41605  15.737  15.115  13.028  0.2391 -0.2006 -0.1869
28192W        W41606  14.423   8.042   5.597  0.2311 -0.0874  0.3813
28193W        W41607  16.973   7.148   5.780  0.1361  0.0092  0.2203
28194W        W41608  13.977  13.892   1.255  0.5634  0.3263 -0.0295
28195W        W41609   1.735   8.964  10.266  0.1057 -0.3758 -0.0453
28196W        W41610  14.785  12.699   1.306  0.0773  0.2541  0.0777
28197W        W41611   0.502   5.792  13.740 -0.3857 -0.0356  0.0744
28198W        W41612  12.901  13.494  15.285  0.0003 -0.2448 -0.0209
28199W        W41613   5.814   0.306  12.440 -0.1126 -0.2097 -0.1573
28200W        W41614  12.160   1.741  12.237  0.0290  0.1372  0.0638
28201W        W41615  16.072  12.798   1.323 -0.0090 -0.3430  0.1088
28202W        W41616  18.488   9.307   0.049  0.2321  0.0080  0.0707
28203W        W41617   9.827   3.091   4.332  0.3472 -0.0139 -0.1810
28204W        W41618  15.025   3.562   0.891 -0.2298  0.1990 -0.2024
28205W        W41619   4.069   7.099  14.681 -0.0405 -0.2937  0.1118
28206W        W41620   6.345   2.240   5.876 -0.1232  0.1158  0.1278
28207W        W41621   4.786   2.801   4.503  0.0171 -0.0178 -0.0778
28208W        W41622  17.289  16.259   1.678  0.2490 -0.1400  0.1011
28209W        W41623   4.573  11.729   1.967 -0.0304  0.1954  0.0977
28210W        W41624   7.705   2.212  11.896  0.0008 -0.2906  0.0360
28211W        W41625  12.646   1.775   1.513  0.0914 -0.0238 -0.3360
28212W        W41626  11.949  17.395  14.011 -0.0040 -0.0973  0.1457
28213W        W41627   6.098   1.478   5.657 -0.3000  0.0380  0.3166
28214W        W41628  13.168   3.911   3.331 -0.0553 -0.0419 -0.1128
28215W        W41629  17.888   4.502   1.699  0.3517 -0.1738 -0.0223
28216W        W41630   6.900   0.908   1.588  0.2868  0.1330 -0.2549
28217W        W41631  17.512   6.391   0.183 -0.0155 -0.0794  0.0833
28218W        W41632  17.601   1.371  15.027 -0.0409  0.1335  0.0560
28219W        W41633   1.026   1.563   1.050  0.1334  0.2485 -0.1397
28220W        W41634   6.190  12.073  11.857 -0.2682  0.0392 -0.2391
28221W        W41635   9.381  16.355  10.909 -0.0397  0.4470 -0.0600
28222W        W41636   4.703   1.595  13.404 -0.0602 -0.0037  0.0856
28223W        W41637   1.926   2.028  15.854  0.0676  0.0909  0.1351
28224W        W41638  14.570   4.051   4.300  0.0061  0.0580  0.1796
28225W        W41639  12.564   0.429   2.958 -0.0262 -0.1766 -0.0299
28226W        W41640   5.449  16.873  11.947  0.1681 -0.0437  0.0616
28227W        W41641  12.301   2.040  15.418 -0.1357 -0.1795 -0.2811
28228W        W41642   6.501   3.697   1.993  0.1835  0.3363 -0.0510
28229W        W41643   9.670   4.291   5.784 -0.4152 -0.1655  0.1230
28230W        W41644   2.360   2.953   6.641  0.1234 -0.0520  0.1922
28231W        W41645  16.858   3.036  15.086 -0.1462 -0.0052 -0.2766
28232W        W41646  12.710   9.428   1.156 -0.3052  0.0172 -0.0124
28233W        W41647   6.443   6.336  10.273  0.4144  0.1233 -0.1294
28234W        W41648  10.877  16.680   0.381 -0.1088 -0.2495  0.0493
28235W        W41649   2.718   9.914   0.875  0.0541 -0.0177 -0.1836
28236W        W41650  11.776   5.094   3.208  0.0623  0.0524  0.0675
28237W        W41651   0.411   6.119  12.457  0.1533 -0.0299 -0.2069
28238W        W41652   5.508   5.105  12.229  0.0242  0.0947 -0.0071
28239W        W41653  16.753  13.942  12.871  0.1697  0.2552  0.0321
28240W        W41654  12.809  10.220  14.929 -0.2796 -0.3028  0.1285
28241W        W41655   0.012  12.026  10.942 -0.1301 -0.0426 -0.0222
28242W        W41656   4.908  11.060  10.951 -0.3762 -0.1278 -0.0204
28243W        W41657   8.160   8.689   2.625 -0.0105  0.0025 -0.2127
28244W        W41658  17.450   4.858  12.516  0.0602  0.2881 -0.2783
28245W        W41659  14.078  17.768   1.905  0.1367 -0.3139 -0.3667
28246W        W41660  17.827   6.187  15.716  0.0559  0.2320  0.0514
28247W        W41661  11.279  13.472  11.205 -0.0628  0.4028 -0.1521
28248W        W41662  15.606   4.660  15.626  0.3934 -0.3292 -0.0840
28249W        W41663   6.104   7.647   2.503  0.0011 -0.2663 -0.0990
28250W        W41664  15.299  14.255  10.131 -0.3822  0.0550 -0.0034
28251W        W41665   4.520   5.609   4.219  0.2307  0.0060 -0.2194
28252W        W41666  10.225   4.032  16.132  0.1088  0.0817  0.0683
28253W        W41667  16.189   0.217   4.213 -0.4173  0.0683 -0.0295
28254W        W41668  18.081   2.449   1.657  0.2440  0.0041  0.0622
28255W        W41669   2.859  10.599   0.348 -0.3208 -0.5447  0.1051
28256W        W41670   0.883   7.122  13.830  0.0395  0.1837  0.2470
28257W        W41671   1.113  11.172   4.640  0.4506  0.0252 -0.1485
28258W        W41672   3.346  10.702   3.662  0.0060  0.0437 -0.1885
28259W        W41673   1.201  14.176  14.357 -0.1517 -0.3305  0.1774
28260W        W41674  10.040  10.887  10.950 -0.3274 -0.0205  0.1793
28261W        W41675   1.494  14.780   5.684  0.0459  0.3468  0.1595
28262W        W41676  12.685   9.604   2.825 -0.2472  0.0080 -0.2352
28263W        W41677   3.970  16.538   2.876 -0.1683  0.0170  0.2493
28264W        W41678  14.345   1.359   4.139 -0.0641  0.2017  0.0207
28265W        W41679   9.778  15.556  12.637  0.0807 -0.5047  0.1100
28266W        W41680  16.094   1.516  13.037 -0.0204  0.2541 -0.0775
28267W        W41681   6.491  14.067  13.757 -0.0784 -0.2350  0.1030
28268W        W41682  11.627  16.891   4.903  0.0570 -0.0752 -0.0362
28269W        W41683  14.117   7.861  14.434  0.0080  0.2005  0.2983
28270W        W41684  16.825  13.001  15.435  0.0827  0.0305 -0.1615
28271W        W41685   2.664   7.075  14.658 -0.0964 -0.2045 -0.0744
28272W        W41686  16.982   3.611  13.940  0.2374 -0.0351  0.1874
28273W        W41687   3.380   7.246   0.722 -0.2250  0.0986 -0.0632
28274W        W41688   5.698   9.592   1.851 -0.3872 -0.1619  0.2683
28275W        W41689   5.992  17.064  16.185  0.0527 -0.0118 -0.1916
28276W        W41690   6.267   2.731  14.731  0.1483  0.1240  0.0985
28277W        W41691   3.788  11.468   5.408 -0.2944  0.1068 -0.2953
28278W        W41692   3.147  10.664  13.819  0.2097 -0.0440  0.0574
28279W        W41693   0.220   9.292  15.883 -0.2536 -0.2165 -0.1166
28280W        W41694  12.208   8.076  12.505  0.0954 -0.0047 -0.4491
28281W        W41695  12.164   8.938  13.034  0.3567  0.3102  0.0499
28282W        W41696   4.167  15.001   1.332  0.1443  0.1888 -0.1417
28283W        W41697   4.189   2.318   1.116 -0.2561 -0.2704 -0.0195
28284W        W41698   8.407   3.931   4.343  0.1241 -0.1019  0.2836
28285W        W41699   3.625  18.388  10.795 -0.0621 -0.2379 -0.1075
28286W        W41700   0.092   3.496   4.621  0.0283  0.2423  0.0387
28287W        W41701   8.643   5.586   1.921  0.1369  0.0557 -0.1198
28288W        W41702   7.407  16.116   4.312  0.2472 -0.0225  0.1212
28289W        W41703   6.707   7.624  15.531 -0.1976  0.2923  0.0718
28290W        W41704   6.923   8.956   2.635 -0.2293 -0.1302  0.2681
28291W        W41705   0.189   1.897  14.840 -0.1066 -0.0041  0.0465
28292W        W41706  10.879  10.888   5.807  0.1406  0.1432 -0.1321
28293W        W41707  15.977   9.349  13.711 -0.1750  0.0161  0.4769
28294W        W41708  17.097   3.556   0.725 -0.1147  0.1588 -0.1112
28295W        W41709  14.335  16.374   2.500 -0.2463  0.0818  0.2146
28296W        W41710   0.548   2.746  11.731 -0.0260 -0.2212 -0.2321
28297W        W41711   0.225   5.458  13.129 -0.0318  0.0124 -0.1819
28298W        W41712  17.245   3.526   4.244 -0.2376  0.0798  0.0442
28299W        W41713   9.019   4.688  13.330  0.0508 -0.1425  0.1769
28300W        W41714   9.623   1.900  11.634  0.0366  0.0924 -0.1317
28301W        W41715  13.944   6.395  13.458 -0.0899 -0.1952 -0.0226
28302W        W41716  12.259  16.021  14.330 -0.1334  0.4859  0.3433
28303W        W41717   4.919  10.601   5.174 -0.1467  0.1705  0.0627
28304W        W41718   8.089   6.330   3.231  0.0503  0.0453 -0.2724
28305W        W41719  10.445   4.275  12.091  0.0947 -0.1124  0.2028
28306W        W41720  11.802  18.212   3.187  0.2373 -0.0264  0.0177
28307W        W41721   0.048   7.528  13.944 -0.0173 -0.1870 -0.0865
28308W        W41722  13.650  11.723  12.025 -0.0910 -0.4213 -0.1521
28309W        W41723   5.110   8.958   2.039  0.5165  0.2953  0.0635
28310W        W41724  12.567   0.386   4.357  0.0075 -0.0840 -0.0422
28311W        W41725   5.182  17.907   2.877  0.3344  0.3690  0.2722
28312W        W41726  17.922   5.272   3.270 -0.1980 -0.0776  0.1038
28313W        W41727  11.678  16.468  13.860  0.0591  0.0333  0.2146
28314W        W41728   9.855   2.399   0.638 -0.0897  0.2405  0.0940
28315W        W41729  11.167   9.982  15.590  0.1958 -0.2335 -0.0110
28316W        W41730   0.047  18.247  12.236  0.4775  0.1598  0.0713
28317W        W41731  18.056  14.176  15.753 -0.2886 -0.0063  0.0349
28318W        W41732  18.231  14.958  14.114  0.1578  0.1553 -0.2333
28319W        W41733   4.732   2.454   0.346  0.0672  0.3758  0.1957
28320W        W41734  16.625   1.023   4.388 -0.1542  0.0729  0.3044
28321W        W41735   9.232   5.021   0.846 -0.0856  0.0069  0.0311
28322W        W41736   3.177   4.862   3.160 -0.0549  0.1832 -0.1908
28323W        W41737   1.684  17.813   6.161 -0.0051 -0.4628 -0.2003
28324W        W41738   0.421  15.633  12.655 -0.1774 -0.0928 -0.1044
28325W        W41739   6.236  13.824   3.833 -0.1042  0.1937 -0.1923
28326W        W41740  13.889  10.208   1.664 -0.1855 -0.2686 -0.1639
28327W        W41741   9.815   5.734  10.695  0.2150 -0.2147 -0.0372
28328W        W41742  11.723  18.508  13.371 -0.2942  0.1452  0.0532
28329W        W41743  15.710  17.952  14.026  0.2115  0.1814 -0.0858
28330W        W41744  18.043   4.981   4.680  0.1459 -0.2190 -0.2144
28331W        W41745   2.389   0.989   0.912 -0.1814  0.0559  0.0717
28332W        W41746  17.429  12.173  12.887  0.1733 -0.1101  0.3474
28333W        W41747  15.403   9.857  13.409  0.0167 -0.1354 -0.1171
28334W        W41748   9.123  11.481  16.219 -0.2227 -0.0273 -0.1460
28335W        W41749   5.681   8.102   0.501  0.1505 -0.1250  0.1126
28336W        W41750   0.213  16.571   0.410  0.3248 -0.0781 -0.0335
28337W        W41751   6.377   4.842  15.584 -0.0300 -0.0124  0.0817
28338W        W41752  16.954   7.208  11.262 -0.1427  0.5146 -0.0757
28339W        W41753  15.681   2.348  11.087 -0.0238  0.0100 -0.0394
28340W        W41754   6.687   8.150  13.942 -0.3013  0.0927  0.1677
28341W        W41755  15.061   0.602   0.226  0.0518 -0.3101  0.1006
28342W        W41756   3.978   0.672  10.978  0.0916  0.1005  0.1024
28343W        W41757  17.483   0.635   1.819 -0.0175 -0.1923  0.2535
28344W        W41758  17.823   8.290  11.926  0.0562  0.1051  0.3012
28345W        W41759   8.599   2.613  13.633  0.2204 -0.2433  0.0132
28346W        W41760   6.708   5.892   4.137 -0.0917  0.0263 -0.1277
28347W        W41761   7.656   9.177  11.456  0.1431  0.0263 -0.1998
28348W        W41762  14.853  14.487  15.129 -0.1698 -0.1273  0.0404
28349W        W41763   7.770  11.766  10.799 -0.2541 -0.2877  0.0381
28350W        W41764  10.675  12.625   6.432  0.1969 -0.1080  0.2840
28351W        W41765  16.902   8.913  15.445  0.0797  0.0948  0.2364
28352W        W41766   7.265  11.473  12.457  0.2098  0.1057  0.0263
28353W        W41767  15.998  12.733  11.403  0.4000  0.0774 -0.1803
28354W        W41768   0.425  13.678  10.998 -0.0579 -0.0174  0.0299
28355W        W41769  15.771  17.736  11.288 -0.2686 -0.4203 -0.3125
28356W        W41770   0.159   9.866  10.479  0.0631 -0.0263  0.2198
28357W        W41771  16.671  17.100   2.618 -0.1623 -0.1451 -0.3726
28358W        W41772  13.293  10.777  15.766  0.3361 -0.0656 -0.1261
28359W        W41773   3.197  16.273  13.582  0.2851  0.0316  0.0918
28360W        W41774  14.653  10.674  13.663  0.0283  0.3660  0.3563
28361W        W41775   8.198   3.689  16.222 -0.1949  0.0757 -0.3544
28362W        W41776  11.746  10.960   4.434  0.1341  0.0523  0.0168
28363W        W41777  12.411   4.782   4.914  0.1214 -0.2478  0.0724
28364W        W41778   8.882   0.579   5.037 -0.1985  0.0849  0.1434
28365W        W41779   8.584  11.573   5.346  0.1338  0.0873 -0.1788
28366W        W41780  16.066  12.647  14.822  0.3396 -0.0518  0.2252
28367W        W41781   1.513  12.135   5.462 -0.0824  0.2145 -0.2097
28368W        W41782  10.954  14.820  11.318  0.1204 -0.1707 -0.1984
28369W        W41783   1.824  10.793  15.269 -0.1458 -0.2403  0.0885
28370W        W41784  17.333   1.015  14.868 -0.1646  0.0420  0.0101
28371W        W41785   5.691   6.803  13.472 -0.2031 -0.0632  0.0828
28372W        W41786  12.013  17.658  12.902  0.1381 -0.0229 -0.0309
28373W        W41787   6.934  16.474  12.311  0.0702  0.0201 -0.1077
28374W        W41788  14.939  17.253   3.549  0.0028  0.1599  0.0881
28375W        W41789   1.958   9.976  10.362  0.1329 -0.1708  0.0892
28376W        W41790   1.710  10.412   4.988  0.3492 -0.0967 -0.0252
28377W        W41791  16.701   6.361   4.985  0.1229 -0.1349 -0.1624
28378W        W41792  13.180  14.129   1.954 -0.2620 -0.2940  0.2197
28379W        W41793   3.905  17.625   3.064 -0.0737 -0.0365  0.4502
28380W        W41794   2.706  13.152  12.259  0.2205  0.1205  0.1556
28381W        W41795   9.576   7.314   2.792  0.1809  0.1796  0.0540
28382W        W41796  10.634  13.947  12.370 -0.1506  0.0832  0.1514
28383W        W41797  10.927   0.021   2.905 -0.1972 -0.1124 -0.4469
28384W        W41798   6.271  13.413  15.366  0.2138 -0.1241 -0.0409
28385W        W41799  10.814   0.720   0.365 -0.3362 -0.0487  0.0068
28386W        W41800   2.959  10.072   0.338 -0.0198  0.0206 -0.1923
28387W        W41801  10.501   6.716  15.984 -0.0731  0.2471 -0.1918
28388W        W41802  11.002   7.478  12.676  0.2099 -0.1018 -0.0200
28389W        W41803  15.450  15.255   2.167 -0.1066  0.4554 -0.3825
28390W        W41804  15.865   2.380   0.212  0.0417  0.1212  0.2733
28391W        W41805   2.377   9.684   3.946 -0.1903 -0.1509  0.0324
28392W        W41806   0.985   8.569  12.696  0.0769 -0.0936  0.0825
28393W        W41807   1.328   1.950   4.099 -0.0970 -0.2454  0.1107
28394W        W41808   7.972   0.643  14.790 -0.1398 -0.1383  0.2490
28395W        W41809   4.642  13.121  14.555 -0.1417  0.1845 -0.0068
28396W        W41810   4.956  16.092  12.268 -0.0440  0.1594 -0.2919
28397W        W41811  12.817   7.097  11.307  0.0233 -0.2324  0.2425
28398W        W41812  17.813  15.992   4.022 -0.1626  0.0167 -0.1619
28399W        W41813   0.129  12.897   5.670 -0.0334  0.2912 -0.0090
28400W        W41814  18.257  15.067   5.292  0.1229 -0.1464  0.0256
28401W        W41815   1.313   8.110   4.187  0.3684  0.0789 -0.2195
28402W        W41816  15.416  12.892  12.183  0.0242  0.0755  0.1993
28403W        W41817   8.670  16.232  14.407  0.0731  0.1029 -0.4007
28404W        W41818   3.282  18.292   2.578  0.2224  0.2269 -0.2687
28405W        W41819  15.341  17.174  10.650 -0.1386  0.2421  0.0289
28406W        W41820   4.291  12.163  10.486 -0.0992 -0.1134  0.2010
28407W        W41821  11.459   6.667   4.863 -0.0784 -0.0534  0.2113
28408W        W41822  17.558  14.130   4.100 -0.0387  0.0005  0.0710
28409W        W41823   2.163   8.296   3.683  0.1860  0.2528 -0.0747
28410W        W41824   0.181   4.939   0.396 -0.1257  0.3578 -0.1561
28411W        W41825  12.661   6.448   6.570 -0.1921 -0.0048  0.2077
28412W        W41826   3.405   0.895   4.438  0.2330  0.0438  0.2486
28413W        W41827  11.041   5.212  11.948  0.2881  0.1393  0.4476
28414W        W41828   7.409   7.186  12.590  0.1516 -0.1298  0.0397
28415W        W41829   3.731  12.953  13.576  0.2569 -0.1290  0.1936
28416W        W41830   1.990  16.379  13.398  0.0982  0.1100  0.0123
28417W        W41831   8.301  12.034   3.374 -0.2442  0.1139  0.1229
28418W        W41832   1.814   7.541  13.223 -0.3175  0.1382  0.3412
28419W        W41833   5.922  18.124   0.795  0.0292 -0.1854  0.3462
28420W        W41834   1.093   6.660   1.711  0.0987 -0.2603 -0.0002
28421W        W41835  16.909  14.374  16.234  0.1503  0.1399  0.0806
28422W        W41836   9.357  18.092  10.006 -0.1136  0.3797  0.1842
28423W        W41837  17.270   8.790   2.043 -0.1153 -0.2405  0.3000
28424W        W41838  13.461  16.010  10.521 -0.1882  0.0976  0.0627
28425W        W41839  16.491  15.282  10.556 -0.1027  0.0199  0.0375
28426W        W41840   4.705   0.562   0.660  0.0591  0.0554  0.0333
28427W        W41841   5.923   0.142  14.238  0.1337 -0.1095 -0.1378
28428W        W41842  16.335  11.682  12.105 -0.0418 -0.2949 -0.1797
28429W        W41843   8.934  11.202   5.823 -0.4098  0.0589 -0.3269
28430W        W41844  15.978  18.267   4.054 -0.1059 -0.1022  0.1041
28431W        W41845   2.254  13.696   0.038 -0.1186  0.3526 -0.0960
28432W        W41846   9.758   6.608  13.354  0.2301  0.0389 -0.3233
28433W        W41847   4.857   1.756  11.676  0.2069  0.2735 -0.1846
28434W        W41848   0.032  14.428   1.864  0.2220 -0.2633  0.1571
28435W        W41849  12.411   3.538   5.035 -0.0419  0.1055 -0.1308
28436W        W41850   0.519   5.588   1.425  0.0251 -0.1317  0.0497
28437W        W41851   7.321   4.698  11.758 -0.1739  0.4290  0.0936
28438W        W41852   1.622   0.912   3.107  0.3281 -0.1853  0.2373
28439W        W41853   6.858  16.628   3.859 -0.1140  0.1382  0.1936
28440W        W41854   0.771   3.433   3.083  0.1947  0.2126 -0.0112
28441W        W41855  15.458   4.899   4.653  0.0447 -0.0928 -0.3787
28442W        W41856   4.168  18.521   1.501 -0.2972 -0.3629  0.2104
28443W        W41857  16.663   6.178  14.823 -0.0212 -0.3099 -0.2082
28444W        W41858   0.694  17.933  14.087  0.0424  0.3227 -0.2527
28445W        W41859   7.023   5.924  14.803 -0.1793 -0.1084  0.1123
28446W        W41860   3.563   8.453   3.584  0.0042 -0.1588 -0.1430
28447W        W41861  11.143   3.926  13.075  0.0631 -0.0669 -0.0881
28448W        W41862   8.806   1.363  14.671 -0.0175  0.0882  0.0679
28449W        W41863  14.459  10.645   0.971 -0.0382 -0.1499 -0.0847
28450W        W41864  16.190  16.859   4.217  0.1179  0.1094 -0.1400
28451W        W41865   4.008   6.331  12.995 -0.0787  0.3369  0.2148
28452W        W41866  18.031   9.407  15.516  0.0859  0.1919  0.0748
28453W        W41867   9.694  18.476   2.911 -0.0284  0.0671  0.1670
28454W        W41868  16.282  11.746   0.426  0.2302 -0.0141 -0.0572
28455W        W41869  18.282   1.640   2.818 -0.1881 -0.1006  0.0430
28456W        W41870   2.812   8.232   5.089  0.1696  0.1116 -0.1621
28457W        W41871   9.192   4.706   3.157 -0.0299 -0.1619  0.0750
28458W        W41872  15.445   5.354   0.421  0.1495  0.0833  0.0162
28459W        W41873   1.073   9.643   0.523 -0.1128  0.1285  0.1507
28460W        W41874   5.030   1.208   5.689 -0.0037  0.2084 -0.0400
28461W        W41875   3.689  15.062  14.003 -0.1956  0.2738 -0.0254
28462W        W41876   5.253   8.054  10.270 -0.0544 -0.0966 -0.4865
28463W        W41877   6.092  18.382  14.628  0.0463  0.1030  0.0903
28464W        W41878   8.803  15.159  12.940  0.1775  0.1943 -0.2744
28465W        W41879   0.218   9.571   1.819 -0.0663 -0.1473  0.0857
28466W        W41880  16.870  10.084   0.039  0.1179  0.0491 -0.0988
28467W        W41881  14.210  12.240   1.087  0.0705 -0.0717 -0.0475
28468W        W41882  10.335  12.965  15.982  0.0800  0.1611 -0.3340
28469W        W41883   5.588  15.234  13.451  0.1557  0.1000  0.3000
28470W        W41884   7.958   0.625   1.868  0.3631  0.4879 -0.1058
28471W        W41885   5.091  10.272   5.575  0.1352  0.1259 -0.2169
28472W        W41886   4.103   9.944  12.377 -0.2549  0.0202  0.1101
28473W        W41887   3.006  15.151  12.544  0.3089  0.0587  0.2362
28474W        W41888  10.358  10.520   2.424 -0.2362 -0.1283  0.2062
28475W        W41889   0.261  12.450  13.326 -0.1949  0.3825 -0.0070
28476W        W41890   4.753  13.674  16.271  0.4165  0.0521  0.1833
28477W        W41891   0.243  17.420  14.483  0.2104  0.1620  0.1310
28478W        W41892  11.743  17.978  15.390  0.2182  0.2541  0.3070
28479W        W41893   4.753  12.406  14.197 -0.2146  0.0104 -0.0271
28480W        W41894   7.419   2.935  16.245 -0.1961 -0.0916  0.0166
28481W        W41895  13.895   1.215  13.079  0.0583  0.1441  0.0343
28482W        W41896   7.968   4.225  15.040  0.0460  0.3008 -0.2085
28483W        W41897   8.860  16.330   2.624  0.2062 -0.0586  0.1981
28484W        W41898   5.362   7.300  14.637  0.0460  0.0298 -0.2759
28485W        W41899  11.739   7.149  14.379  0.2880  0.4408 -0.1984
28486W        W41900   9.287   2.627   0.558  0.0827  0.0765 -0.0743
28487W        W41901  17.454  17.446   0.751  0.1544 -0.0172  0.1042
28488W        W41902  16.218  18.207  10.550  0.0419  0.1780  0.0270
28489W        W41903   0.169   5.133  14.627  0.1537 -0.1104  0.2117
28490W        W41904   0.498  10.263  11.978 -0.0993 -0.3701 -0.0507
28491W        W41905  13.749   2.633   0.815 -0.1087 -0.3851  0.0439
28492W        W41906   2.508   5.487  13.141  0.0923 -0.1472 -0.1208
28493W        W41907   3.820   3.250  15.183  0.0804 -0.0936 -0.1532
28494W        W41908  15.691  17.565   0.327  0.1084 -0.3831  0.0574
28495W        W41909   4.716  17.630   2.735  0.1480 -0.4133 -0.0429
28496W        W41910  17.202   5.121   6.382  0.1202 -0.2862 -0.0294
28497W        W41911   5.722  16.578   3.938  0.1098 -0.1594  0.2246
28498W        W41912  11.696  12.706  10.765 -0.1134 -0.1499  0.0208
28499W        W41913   1.790  15.193  16.266  0.3922 -0.0467  0.0619
28500W        W41914   3.017   3.394   0.946  0.0148 -0.1973 -0.0192
28501W        W41915   4.521   9.327  11.248 -0.1187  0.1333 -0.1517
28502W        W41916  11.739  18.071  10.455 -0.1709  0.1917 -0.1162
28503W        W41917  11.743   2.112   0.115 -0.2275 -0.0995  0.2490
28504W        W41918   0.906  13.546  10.184  0.1209  0.0502 -0.0583
28505W        W41919  14.783   1.490   0.347 -0.3698 -0.1455 -0.2423
28506W        W41920   5.676   4.720   5.440 -0.0954  0.1514  0.1038
28507W        W41921   5.407   5.503  10.673  0.0353 -0.4284 -0.2610
28508W        W41922  17.424  17.480  15.102 -0.2508  0.0541  0.2154
28509W        W41923   5.521  17.168  14.055 -0.0331  0.2064  0.0958
28510W        W41924  10.439  12.778   1.903 -0.1195  0.3800  0.2393
28511W        W41925   0.959   8.132  11.294 -0.2457  0.0221  0.1793
28512W        W41926   0.340   1.787   3.851 -0.1895 -0.2943 -0.1750
28513W        W41927   5.776   1.085  11.954  0.0507 -0.3344  0.0470
28514W        W41928   3.203  16.654   3.670 -0.2086 -0.0738 -0.4674
28515W        W41929  13.180   4.661   2.204  0.3490  0.2363  0.1206
28516W        W41930   6.020  15.525  14.332  0.2264 -0.0581 -0.5829
28517W        W41931  11.491  17.696   5.604 -0.4825  0.1752 -0.1583
28518W        W41932   1.018   9.766   1.505 -0.0152  0.0872  0.0745
28519W        W41933   0.044  15.813   3.517  0.0604  0.1261  0.0910
28520W        W41934   1.668  14.737   2.972  0.1277  0.0038  0.1052
28521W        W41935  13.331  11.004  11.720  0.0307  0.2013  0.2050
28522W        W41936  17.332   8.562   0.752 -0.1645  0.0688 -0.1007
28523W        W41937  13.157   8.246   4.311 -0.1799  0.1687 -0.0589
28524W        W41938  16.470  18.324  14.364  0.0307  0.0278 -0.0672
28525W        W41939  18.086   1.304   4.266  0.1380 -0.2071  0.2427
28526W        W41940   9.013   9.898   1.686 -0.1994  0.0026 -0.0074
28527W        W41941   0.516   1.223  15.761  0.2772  0.3580 -0.1567
28528W        W41942  12.875   4.995  11.486  0.0561 -0.1085 -0.3249
28529W        W41943  17.554   8.755   3.358  0.1677  0.1355 -0.1609
28530W        W41944   0.136  16.221   1.628 -0.1842  0.2356 -0.1236
28531W        W41945   7.608   5.018   1.746  0.0660 -0.3236 -0.1084
28532W        W41946  15.657   7.452   1.399  0.2635  0.2989  0.2579
28533W        W41947  11.406   7.161  12.847  0.0570 -0.1073  0.0703
28534W        W41948   6.620  12.828  15.760 -0.1230  0.1272 -0.0590
28535W        W41949   2.946  11.771   4.925 -0.0239 -0.1392 -0.2191
28536W        W41950   2.580  15.290  12.787 -0.1518  0.2854  0.1029
28537W        W41951   7.926   0.076  10.370  0.1847 -0.1178  0.1151
28538W        W41952   9.767   4.308   4.224  0.1720  0.0364 -0.2784
28539W        W41953  15.832   2.192  13.882  0.0795 -0.0159  0.2230
28540W        W41954   3.232  17.131  15.101 -0.0636 -0.0123  0.1035
28541W        W41955  12.884  15.512   4.763  0.0054 -0.2472  0.0395
28542W        W41956  17.488  15.272   1.127 -0.3075 -0.1372  0.2090
28543W        W41957   3.097   2.589  11.790  0.2482  0.1014  0.0992
28544W        W41958   1.712   7.861   2.412 -0.1334 -0.0646 -0.0107
28545W        W41959   6.086   6.044  14.725 -0.1300  0.2502 -0.1242
28546W        W41960  14.140  16.381  14.037 -0.0416  0.0188  0.2472
28547W        W41961   1.133  10.081   0.221  0.3675  0.1437  0.3079
28548W        W41962   0.111   5.581   1.188 -0.0881  0.1969 -0.0918
28549W        W41963   9.359   4.122   0.648 -0.1374 -0.2939  0.1640
28550W        W41964   7.727  14.370   2.800 -0.1215  0.1535 -0.0484
28551W        W41965   8.904  15.016  15.132 -0.1909  0.1843  0.1508
28552W        W41966  10.099  16.557   9.796 -0.0835 -0.2456  0.1641
28553W        W41967   4.547   4.242   6.329 -0.1736  0.0919 -0.0098
28554W        W41968  13.055   5.691  12.711 -0.1676 -0.3351  0.0414
28555W        W41969   3.497  15.860  13.605 -0.0609  0.4558  0.2125
28556W        W41970   2.041  16.833  10.212  0.0255  0.4565 -0.0459
28557W        W41971  10.528   8.984   0.452 -0.0880 -0.2294  0.1653
28558W        W41972   8.983   0.654   4.178  0.1192  0.1296  0.2820
28559W        W41973   8.520  15.851  11.146 -0.1831  0.0209  0.0355
28560W        W41974  16.875   0.137   2.979 -0.2765 -0.1626 -0.1334
28561W        W41975  16.095   4.763   2.187 -0.0609  0.0472 -0.1450
28562W        W41976   5.279   7.634   3.495 -0.0946 -0.1293  0.2177
28563W        W41977  11.291  14.666   1.054  0.1256  0.2835 -0.0253
28564W        W41978   5.660  12.172  12.043  0.4311  0.0517  0.0873
28565W        W41979  10.145  12.590   4.044 -0.1822  0.0162  0.0853
28566W        W41980  10.587  16.331   5.812  0.0103 -0.0633  0.1620
28567W        W41981   0.173   8.821  12.570 -0.0367  0.1007  0.3373
28568W        W41982   3.457  12.526  12.725 -0.1670 -0.0680  0.2283
28569W        W41983   3.056   8.269   3.563  0.0687  0.0328  0.0672
28570W        W41984  16.127   9.903   2.162 -0.2578  0.3952 -0.1260
28571W        W41985   4.003   8.775   1.763  0.2053 -0.0506  0.0916
28572W        W41986   8.679   1.475  10.828 -0.1761 -0.0664  0.0345
28573W        W41987  10.544  16.716  15.683  0.2052  0.0947  0.3072
28574W        W41988   9.011   2.164  15.834  0.3100  0.0026 -0.2663
28575W        W41989  17.731  11.472  12.567 -0.0636  0.0631 -0.0337
28576W        W41990  12.994  17.483  10.563 -0.0658 -0.1129 -0.0939
28577W        W41991  12.516   0.803   2.470  0.1613  0.1784  0.4298
28578W        W41992  10.232  16.581   4.919  0.0764  0.0677  0.1274
28579W        W41993   5.173  17.077   3.284  0.1859 -0.2034 -0.1833
28580W        W41994  11.229   7.975  14.940  0.1048  0.1301 -0.0928
28581W        W41995   4.310   5.831   5.266  0.0175 -0.3451  0.3387
28582W        W41996  11.663   2.195   0.619 -0.1071  0.0936  0.0794
28583W        W41997  12.140   2.959  12.356  0.0410  0.1069 -0.0117
28584W        W41998   0.138  10.015   2.135 -0.0890  0.0870  0.1941
28585W        W41999   2.231  11.097  10.342  0.0533  0.1787 -0.0691
28586W        W42000  11.626   4.563  13.780 -0.0171  0.0116  0.3816
28587W        W42001   3.766  10.365   1.765 -0.1136 -0.2495 -0.0201
28588W        W42002  15.861   4.546  15.211  0.0854 -0.0048  0.2780
28589W        W42003  17.600   1.821   5.082 -0.0312 -0.0851  0.0178
28590W        W42004   3.317  11.821   0.636  0.1246  0.1962  0.2528
28591W        W42005   2.854  13.444   3.253  0.0291 -0.3065  0.0591
28592W        W42006   8.187  10.189   3.738 -0.4652  0.2735  0.2920
28593W        W42007  15.694  10.589  10.386  0.1566  0.0162  0.1472
28594W        W42008   5.352  14.013  12.045  0.3189  0.1764 -0.0931
28595W        W42009  10.769  12.506   1.597 -0.1209  0.2312  0.2245
28596W        W42010   6.751   1.547   2.218 -0.1352  0.2182 -0.0062
28597W        W42011  12.301   7.925  15.153  0.0051  0.1876  0.1788
28598W        W42012   2.836   0.333  16.198 -0.1726 -0.2831 -0.2926
28599W        W42013  10.362  17.234   2.091 -0.2217 -0.1934 -0.2891
28600W        W42014  16.798   0.991  13.824  0.1666  0.0807 -0.0196
28601W        W42015  14.863  18.193  15.547  0.1086  0.0466 -0.2920
28602W        W42016  17.131   6.711   5.957  0.1035  0.0358  0.1289
28603W        W42017   4.070  15.558   3.177 -0.0479  0.2709  0.0507
28604W        W42018   5.329   9.896  10.284  0.3630  0.1036  0.0350
28605W        W42019   1.989  10.358   3.933  0.0398 -0.0706 -0.1045
28606W        W42020  16.697  13.712  11.103  0.2433 -0.0161  0.3416
28607W        W42021  17.028   7.788   2.431 -0.1119  0.0235  0.0298
28608W        W42022   6.749  11.432   3.970 -0.1437 -0.2022  0.0728
28609W        W42023   1.204   8.882   5.701 -0.0470 -0.2091  0.0470
28610W        W42024   7.083   3.722  10.566  0.3264  0.1661 -0.1156
28611W        W42025   7.406  14.222  10.546 -0.3462  0.0913 -0.0390
28612W        W42026  16.504   9.418   1.496  0.1184  0.0272 -0.1862
28613W        W42027   2.375   1.235  12.647  0.0579  0.0362  0.1149
28614W        W42028   7.535  12.831  10.366  0.1638  0.0099  0.0738
28615W        W42029  13.072   2.430  11.851 -0.1125  0.0282  0.1550
28616W        W42030  17.653   9.635   4.906  0.2942  0.0764  0.3662
28617W        W42031   2.960  12.701  13.510 -0.0372  0.0584 -0.3163
28618W        W42032  13.476   7.464   2.406  0.0362  0.0965  0.1526
28619W        W42033  14.173  15.808  14.075  0.4757  0.5369 -0.3187
28620W        W42034   1.196  16.172  14.265  0.4606  0.0779 -0.2054
28621W        W42035  17.126  16.836   4.263 -0.1079 -0.1904 -0.2393
28622W        W42036  15.255  13.678   5.243  0.1817  0.1177 -0.2984
28623W        W42037  14.210   3.254  10.686  0.2086 -0.3087 -0.0441
28624W        W42038  16.463   4.223   0.644  0.4211 -0.0255 -0.0557
28625W        W42039  12.942  11.538  15.533 -0.1403 -0.3293  0.1387
28626W        W42040  12.682   4.211  11.788  0.1456  0.1178 -0.2097
28627W        W42041   1.339  10.344  12.881  0.2364  0.2811 -0.1068
28628W        W42042   9.734  14.228  12.151  0.0678  0.0114 -0.0294
28629W        W42043   0.580   1.005   6.490  0.0682 -0.0713 -0.0516
28630W        W42044   5.405  10.907   2.621  0.1626 -0.0814 -0.1304
28631W        W42045   4.819   9.566   5.079 -0.1956 -0.0346 -0.0807
28632W        W42046   3.718   1.642   2.263 -0.1085  0.1448 -0.1380
28633W        W42047  18.342  11.947   3.907  0.1581 -0.0251  0.0482
28634W        W42048   4.374   4.257  11.329  0.1664 -0.0536  0.1086
28635W        W42049   6.519  17.431  12.399 -0.1557  0.2400 -0.1867
28636W        W42050  18.174   0.973   0.281  0.2092 -0.1255 -0.2637
28637W        W42051   0.470  12.871   2.312 -0.1161 -0.5251 -0.0576
28638W        W42052  14.664  11.423   4.598 -0.2032  0.1480 -0.0702
28639W        W42053  17.802   5.942   0.313  0.1477  0.0268  0.1711
28640W        W42054   1.460  11.971   2.484  0.0369 -0.0663 -0.0135
28641W        W42055   1.339   9.405   3.792  0.0105 -0.2164 -0.0733
28642W        W42056  13.687   3.601   1.528 -0.0763 -0.0840 -0.2630
28643W        W42057  13.783  13.820  14.421 -0.2657  0.2110  0.2319
28644W        W42058   8.962   0.755  15.475 -0.0209  0.1700  0.0501
28645W        W42059   3.309  12.691   1.943  0.0289  0.2739 -0.2168
28646W        W42060   2.130  14.996   0.270 -0.0165 -0.1330 -0.2989
28647W        W42061  17.462   9.678  12.780  0.3371  0.1593 -0.0897
28648W        W42062   4.471  15.383   2.225 -0.0532  0.2035 -0.1542
28649W        W42063  17.772  11.171   6.127 -0.1749  0.0986 -0.0027
28650W        W42064   5.193   0.405   1.417  0.3405  0.3188 -0.0727
28651W        W42065   3.632  17.398  15.180 -0.2136 -0.4269  0.0010
28652W        W42066   7.323   1.972  15.298 -0.0039  0.3347  0.2235
28653W        W42067  10.965  18.178   2.076 -0.1650  0.0764 -0.1185
28654W        W42068   6.007  10.008   0.962  0.1968 -0.0638  0.0244
28655W        W42069   8.743   7.438   0.475 -0.2591  0.2981 -0.3442
28656W        W42070  18.100  14.741   1.645  0.2997 -0.0894  0.0569
28657W        W42071  16.644   7.929  11.162 -0.1578 -0.0712 -0.2127
28658W        W42072  10.221  14.668  15.027  0.1493 -0.0718  0.2341
28659W        W42073  17.176   9.765  13.259  0.4788  0.2240  0.0866
28660W        W42074   5.454  17.866   4.812  0.3266 -0.3160 -0.3556
28661W        W42075  10.526  15.759  15.702  0.1507 -0.3554  0.5164
28662W        W42076  16.866  11.297   3.857  0.2036  0.0709 -0.4319
28663W        W42077   1.338  13.039  14.374  0.1483 -0.0970  0.2629
28664W        W42078   4.331  16.966   4.374 -0.2399  0.1059 -0.0311
28665W        W42079  11.347  18.470   4.810  0.1669  0.1391  0.1771
28666W        W42080   8.281  11.738  10.786  0.0830  0.2376 -0.0871
28667W        W42081   7.554  16.596   4.356 -0.1029  0.0760 -0.0545
28668W        W42082   7.017  12.597  13.837 -0.2905  0.1895 -0.2003
28669W        W42083   3.425  10.046  13.852  0.1832  0.2347 -0.2508
28670W        W42084  14.174  18.126  15.496  0.2545  0.0673  0.0519
28671W        W42085   1.373  17.405   3.976 -0.1291 -0.0725 -0.1096
28672W        W42086   4.939  11.401   0.175  0.0788 -0.2326 -0.0627
28673W        W42087   3.940   2.519  15.013  0.0826  0.0189  0.2566
28674W        W42088   0.688   6.902   1.593 -0.0385  0.1115  0.0629
28675W        W42089   0.997  14.113   1.762  0.0839 -0.1069 -0.1755
28676W        W42090   9.673  11.495  10.519 -0.2414 -0.4102 -0.1866
28677W        W42091   1.030  13.804   4.797 -0.0225 -0.3305  0.3364
28678W        W42092   3.272   4.565  12.535  0.0248  0.1281  0.0976
28679W        W42093   6.457   5.018  13.733  0.3595  0.1289  0.0368
28680W        W42094   8.629  13.748  11.220 -0.1508 -0.4802  0.2033
28681W        W42095   0.066   0.801   4.578  0.2184 -0.2095 -0.1249
28682W        W42096   1.341  17.827   0.256 -0.1453  0.0918  0.0492
28683W        W42097  14.720   9.774   1.907  0.0075 -0.0548 -0.1116
28684W        W42098  17.997  12.434   6.143 -0.1221  0.1098 -0.0411
28685W        W42099   3.057   4.913  13.621 -0.3031  0.3156 -0.0255
28686W        W42100   5.047   0.773   4.090 -0.1494  0.1435  0.2352
28687W        W42101   0.988   5.754  13.746 -0.3254  0.2940  0.0667
28688W        W42102  16.297   3.989   3.026  0.2212  0.3464  0.0692
28689W        W42103   6.499  14.351   9.802  0.0052 -0.1925  0.3743
28690W        W42104   4.151  12.405   1.443  0.0657 -0.0564 -0.1781
28691W        W42105  14.116  12.010  15.297  0.0009  0.0100  0.3278
28692W        W42106  14.170   3.687  12.260  0.1136  0.2562 -0.2375
28693W        W42107   5.515  12.384   0.284 -0.1480  0.0032  0.0060
28694W        W42108  18.170   8.093  14.966  0.1570  0.1465  0.0648
28695W        W42109  13.541   3.496   0.611 -0.1735 -0.1026 -0.2400
28696W        W42110   4.657  17.449  14.237 -0.0627  0.0438  0.2294
28697W        W42111   1.632   9.926  14.168  0.0720 -0.0359 -0.0298
28698W        W42112   9.126   7.302   3.370  0.1226  0.0491  0.1607
28699W        W42113  11.883  14.159  15.790 -0.1151 -0.2747 -0.1658
28700W        W42114   3.600  13.928   1.500  0.3247  0.0237 -0.1199
28701W        W42115  13.995   9.490  12.866 -0.0555  0.2543 -0.1187
28702W        W42116   2.066  16.593   1.403  0.1797 -0.0477  0.1199
28703W        W42117  14.785   7.163   5.613  0.0980  0.3822  0.0512
28704W        W42118   1.355   3.598  16.233  0.1437  0.0777  0.1352
28705W        W42119   5.448  16.139   2.874 -0.0707 -0.0795 -0.0162
28706W        W42120   9.337   3.449  11.873  0.3745  0.0762 -0.2584
28707W        W42121   3.624   1.297  13.055 -0.1126 -0.2849 -0.0076
28708W        W42122   1.492  15.784  12.239 -0.1034 -0.4162  0.0733
28709W        W42123  11.982   3.943   5.049 -0.0382 -0.3429  0.2790
28710W        W42124   4.522   9.821  15.038 -0.1281  0.2321 -0.3375
28711W        W42125  11.749   1.996  12.300 -0.2306  0.2348  0.2497
28712W        W42126   9.009  16.851   1.299 -0.1457 -0.0725  0.0158
28713W        W42127  14.076   5.454  15.459 -0.2993  0.0287 -0.0298
28714W        W42128   5.548  11.887   2.346  0.4394  0.1758 -0.0529
28715W        W42129  14.555  14.222  14.884 -0.3663 -0.1402 -0.1845
28716W        W42130  11.680   8.902  13.854  0.0686 -0.1343 -0.0124
28717W        W42131   7.681   6.886  12.294 -0.0736  0.1453  0.3387
28718W        W42132  12.228  12.529  13.320 -0.1163  0.2609 -0.1069
28719W        W42133   5.956   8.993   0.884 -0.0697 -0.2584  0.0416
28720W        W42134   6.678   8.258  14.496 -0.0223 -0.2293  0.1112
28721W        W42135   5.882   2.094   1.417 -0.2799  0.0169 -0.0852
28722W        W42136   0.651   3.322   1.767 -0.1262 -0.2252 -0.2229
28723W        W42137   4.718   9.201   0.741  0.1039  0.1336 -0.0244
28724W        W42138  12.684  16.714  11.143 -0.2088  0.2945  0.1063
28725W        W42139   6.301  17.426  10.849  0.1966  0.0167 -0.0132
28726W        W42140   1.966   5.124   4.469  0.1613  0.0195  0.1673
28727W        W42141   2.328   6.952   4.208 -0.4407  0.2486 -0.1050
28728W        W42142   4.096  11.743   3.886 -0.2800  0.0960 -0.2880
28729W        W42143   7.451  11.629   4.694 -0.1340 -0.4383 -0.0709
28730W        W42144   0.003  17.127   1.919 -0.0155 -0.0093 -0.1471
28731W        W42145  13.892  16.942  11.233 -0.0133 -0.0142  0.0946
28732W        W42146   7.522   1.835  12.649  0.2126  0.3543 -0.1453
28733W        W42147  17.785   1.789  13.991  0.1362  0.3435  0.3796
28734W        W42148   8.227   7.579   3.705 -0.1235 -0.1618  0.1116
28735W        W42149  18.416   7.500   1.936  0.1919  0.0327  0.1757
28736W        W42150   3.815  17.022   2.972  0.2753 -0.0923  0.0103
28737W        W42151  11.265   9.288   1.159 -0.0609  0.1201  0.0816
28738W        W42152   9.096   3.310   2.250 -0.0279 -0.3795  0.0258
28739W        W42153   0.447  17.586   9.930 -0.1260 -0.0890 -0.4304
28740W        W42154   9.084   5.705   5.466  0.2097  0.1043  0.0793
28741W        W42155  16.839  10.189   5.701 -0.1068 -0.0291  0.2602
28742W        W42156   5.882  15.468   5.563 -0.1911  0.2389  0.4877
28743W        W42157  14.098   1.263  15.840 -0.1414 -0.1606  0.1156
28744W        W42158   3.824   8.578  14.754 -0.1964  0.0462 -0.0265
28745W        W42159  18.492   4.184   2.912 -0.0034  0.0601  0.4835
28746W        W42160  13.015   9.987   0.564  0.6023 -0.2554 -0.1273
28747W        W42161   8.351  16.447  13.871 -0.2205 -0.0845 -0.2938
28748W        W42162  14.783   3.237  13.396 -0.2649  0.4001  0.3244
28749W        W42163   8.299   3.306   0.326 -0.1462 -0.1325  0.2073
28750W        W42164   8.097  13.964  13.990  0.3363 -0.1046 -0.3579
28751W        W42165   7.387  16.274   5.320  0.0897 -0.1277 -0.1294
28752W        W42166  16.768   1.475  13.524 -0.1792 -0.1528 -0.1353
28753W        W42167   1.177   6.134   2.549  0.0515 -0.1283 -0.0949
28754W        W42168  13.745   9.449   4.413  0.0889  0.1663 -0.1274
28755W        W42169   1.126   4.184   1.443 -0.0742 -0.1703  0.0409
28756W        W42170  11.938   3.963   2.320  0.0663  0.0852 -0.1853
28757W        W42171   9.395  16.154   3.306 -0.1977  0.2802 -0.0439
28758W        W42172  14.816   9.502   9.647  0.2752 -0.0302 -0.1250
28759W        W42173   1.032   1.335   2.808 -0.1606 -0.5400  0.0563
28760W        W42174   9.632  12.198   3.200 -0.0526  0.1442  0.0494
28761W        W42175  13.157   2.108   1.826 -0.3022  0.0924  0.0381
28762W        W42176  10.171  11.155   4.893  0.0037  0.0400 -0.1772
28763W        W42177   0.984   0.478   5.876  0.1093 -0.4068  0.4607
28764W        W42178  17.675   2.985   0.179  0.0646  0.0147  0.3346
28765W        W42179  17.085   8.860  13.699 -0.0306  0.0406 -0.0932
28766W        W42180   5.973   8.683  14.151 -0.0287  0.2681 -0.0884
28767W        W42181   4.233   7.120  16.252 -0.1430  0.0132 -0.1993
28768W        W42182  12.372   3.608  10.224 -0.0436 -0.0881 -0.0724
28769W        W42183  17.299  12.228  16.245 -0.3675 -0.4622 -0.0470
28770W        W42184   2.055  16.644   0.456  0.2869 -0.4528 -0.1624
28771W        W42185  13.933   9.101   4.848 -0.4072  0.0316  0.0866
28772W        W42186   7.660   5.821  15.443  0.1063 -0.1058  0.2795
28773W        W42187   0.067   1.439   5.681 -0.2542  0.0857  0.0959
28774W        W42188   7.804   9.392   2.864 -0.0022 -0.1530  0.1739
28775W        W42189  12.160  14.277  16.224  0.2006 -0.1925  0.0972
28776W        W42190  14.808  14.118  10.274  0.0964  0.0524  0.3062
28777W        W42191   4.599   2.677   4.923  0.2997 -0.3095 -0.1553
28778W        W42192   4.975   2.689  15.752 -0.0601 -0.1530 -0.0572
28779W        W42193   0.015   7.215  15.492  0.0517  0.4501  0.1497
28780W        W42194  10.107   3.091   6.102 -0.1016 -0.0032  0.0970
28781W        W42195  11.204   2.782   0.471 -0.4307 -0.0935  0.1238
28782W        W42196  17.289  18.171  12.087 -0.1222  0.2846  0.0254
28783W        W42197  11.494  13.087   4.371  0.0503  0.0576  0.1635
28784W        W42198  17.207   1.797   4.285 -0.4024 -0.0145  0.1265
28785W        W42199   6.719  14.243   2.336  0.0292 -0.0018  0.2477
28786W        W42200   1.322   0.255  15.809  0.4650  0.1525 -0.1630
28787W        W42201  16.574   7.783   3.998  0.0590  0.1047  0.0628
28788W        W42202  14.512  17.850   5.276 -0.3777 -0.0730 -0.1354
28789W        W42203  13.525   2.622   3.300 -0.0929  0.0908 -0.1165
28790W        W42204  18.259   0.420   4.620 -0.0072  0.0749 -0.4244
28791W        W42205   7.692  13.341   0.545  0.0030 -0.0541 -0.1325
28792W        W42206  16.524  17.224   5.070  0.3302  0.1971 -0.0901
28793W        W42207   7.303  15.410   0.564 -0.3451  0.1590  0.4040
28794W        W42208  11.500  13.142   4.866  0.1067  0.0417  0.1824
28795W        W42209   2.152  12.569  15.810  0.1774  0.1822  0.2111
28796W        W42210   6.867   5.184  13.325 -0.2058  0.2513 -0.1130
28797W        W42211   1.905  14.063  10.498  0.2488 -0.3158  0.0272
28798W        W42212   3.293  11.606   0.167 -0.0031 -0.0604 -0.1486
28799W        W42213  11.853  16.427   2.135  0.2178 -0.1862  0.2240
28800W        W42214  16.782  11.560  12.392  0.1374  0.2024 -0.1502
28801W        W42215   5.078  10.224  15.036 -0.0533 -0.1103  0.0314
28802W        W42216  10.597   1.657   0.941 -0.0083  0.0336 -0.2129
28803W        W42217   3.418  16.925  12.301 -0.0524  0.1581  0.1699
28804W        W42218  14.254  11.768   4.357 -0.0733 -0.1619 -0.2371
28805W        W42219   8.336   8.806  11.387  0.0579 -0.1696 -0.1423
28806W        W42220   4.127  14.055  12.467  0.2625 -0.1591 -0.0233
28807W        W42221   2.678  16.137   5.409  0.1740 -0.0290  0.2500
28808W        W42222   8.651  10.479   1.613  0.2360 -0.1831  0.1532
28809W        W42223  15.637   4.522   1.348 -0.2049 -0.1662  0.0470
28810W        W42224   1.210   4.077  15.505  0.2270  0.0126  0.0217
28811W        W42225   8.734   9.458  10.898 -0.2190  0.1675  0.3726
28812W        W42226   5.643  11.852   4.173 -0.0313 -0.3003 -0.1723
28813W        W42227  12.895   5.039   4.823  0.2468 -0.2779  0.0418
28814W        W42228   6.013   4.238   9.760 -0.1306 -0.1741 -0.0569
28815W        W42229  18.271   8.757  16.212 -0.1036 -0.1618  0.1612
28816W        W42230   6.070   7.754   3.033  0.1168 -0.1942  0.1351
28817W        W42231   2.191   0.715   4.234  0.0192  0.0356 -0.0025
28818W        W42232   0.844   8.525  13.777  0.1677 -0.1228 -0.1827
28819W        W42233   1.414  17.283  14.568  0.0506 -0.1113  0.1370
28820W        W42234  13.157  14.829  12.395  0.1713  0.3179 -0.0165
28821W        W42235   2.324  18.480  11.196  0.1400  0.0394  0.0578
28822W        W42236   4.065   7.095  11.822 -0.0774  0.0369 -0.1379
28823W        W42237  11.182  16.921  11.195 -0.2256  0.0905  0.1438
28824W        W42238   1.275   4.801  14.031  0.0794  0.1802  0.2297
28825W        W42239   6.190   0.074  11.185  0.1830  0.0014 -0.1069
28826W        W42240  16.036  13.774  13.405  0.0769 -0.2151  0.0463
28827W        W42241   8.110   7.646   4.772 -0.1891  0.2287  0.0461
28828W        W42242   2.857   6.897   6.416 -0.1050 -0.0118  0.1011
28829W        W42243  12.733   2.151   0.049  0.1685  0.0453 -0.0234
28830W        W42244   1.664   1.831   3.398  0.1591 -0.0779 -0.1775
28831W        W42245   5.101  16.388  11.612 -0.2618  0.2621 -0.2928
28832W        W42246  12.060  14.910   0.547  0.3821  0.2345  0.0696
28833W        W42247   3.840   7.473  12.195 -0.0921  0.0570 -0.0063
28834W        W42248  12.123  16.192   6.148  0.3282  0.0997  0.1779
28835W        W42249   3.969  12.391  14.870 -0.1021  0.0641 -0.0353
28836W        W42250  11.634  13.574  11.531 -0.1937 -0.2310 -0.2510
28837W        W42251   9.924  14.850   1.362 -0.1838 -0.1712  0.0127
28838W        W42252   1.535  10.147  11.596  0.3645  0.0500 -0.1906
28839W        W42253   1.265  12.745   0.008  0.1727  0.0937  0.3671
28840W        W42254   6.469  16.557  13.644  0.2340  0.2266 -0.2040
28841W        W42255   1.401   7.241   9.981  0.1972  0.0131  0.2622
28842W        W42256  14.790  16.818   0.541 -0.1392 -0.1406  0.3989
28843W        W42257   5.273  10.518   1.590  0.2345  0.1516 -0.0405
28844W        W42258   8.760   8.791  14.643  0.1821  0.0391  0.0574
28845W        W42259  13.797   9.576   2.391  0.2842 -0.0966 -0.1296
28846W        W42260  14.743   9.277   5.994 -0.0228  0.1404  0.1215
28847W        W42261  17.938  10.817  13.449 -0.0142  0.0944  0.2097
28848W        W42262  16.810   7.631   4.853 -0.1376  0.2590  0.0397
28849W        W42263   6.220   8.705   2.160  0.1706  0.3564 -0.0267
28850W        W42264  12.736  17.847   2.090 -0.0808  0.2912  0.0105
28851W        W42265   0.831   5.666  15.170  0.0868 -0.0035  0.0254
28852W        W42266  12.988   5.520  13.185 -0.0341  0.0934 -0.0752
28853W        W42267  10.337  13.114  15.126 -0.1377 -0.0100 -0.1247
28854W        W42268   3.584   8.246  15.536 -0.0909  0.0038  0.1166
28855W        W42269  17.649   7.368  15.030  0.0413 -0.2473  0.0285
28856W        W42270  16.351   6.093  14.346  0.1117  0.3111  0.1704
28857W        W42271   6.291  15.740  12.910 -0.1694  0.0120 -0.1447
28858W        W42272  14.673   7.010   4.209 -0.2998 -0.0964 -0.1423
28859W        W42273  17.841   7.776   3.273  0.0422 -0.3802 -0.2353
28860W        W42274  10.710   3.073   2.178  0.0615  0.0774 -0.0719
28861W        W42275   8.861  15.066  11.059  0.1817  0.1206  0.0292
28862W        W42276  16.754  15.814   3.864  0.0457  0.1515 -0.0182
28863W        W42277   9.816   6.402   1.511 -0.2137  0.1066  0.2254
28864W        W42278  10.736  15.281  11.291  0.1130 -0.1076  0.0225
28865W        W42279  17.915   5.888  13.000 -0.0561  0.0916 -0.0090
28866W        W42280  17.133  12.221  11.266  0.0373  0.1235  0.2016
28867W        W42281   9.626  13.654   1.045 -0.1364  0.2947  0.1115
28868W        W42282   4.717   9.773   2.669  0.0804  0.0983 -0.4727
28869W        W42283  13.779  16.489   3.724  0.0998  0.0462 -0.0952
28870W        W42284  12.048  16.219   5.048  0.1033 -0.3036  0.3214
28871W        W42285   0.758  17.989   0.324 -0.2090 -0.0060 -0.1469
28872W        W42286  11.867   2.036  13.778  0.1107 -0.0444 -0.0551
28873W        W42287  12.083  11.979   5.900  0.0632  0.1790 -0.2856
28874W        W42288   4.813  15.052  15.881 -0.0104  0.0541 -0.2403
28875W        W42289   5.067   7.268   0.758  0.0499 -0.0553  0.0096
28876W        W42290  13.075   3.308  15.553 -0.0776 -0.2526 -0.1306
28877W        W42291  15.307  17.059  14.586  0.2931 -0.0088  0.0540
28878W        W42292   1.416  18.242  13.010 -0.1913 -0.2137 -0.0381
28879W        W42293   3.040   8.278  13.407  0.1249  0.1099 -0.0044
28880W        W42294  16.069  10.532  13.891 -0.0140 -0.1689 -0.2697
28881W        W42295   3.432   8.076  15.075 -0.2531  0.0061 -0.2291
28882W        W42296   5.715  12.887  13.982  0.2196 -0.0904  0.0311
28883W        W42297   6.246   0.542   2.613  0.0763 -0.4650 -0.0065
28884W        W42298   5.790   9.137   1.698 -0.2866 -0.0467 -0.0787
28885W        W42299   2.728   7.931  12.982 -0.0216  0.1560  0.0185
28886W        W42300  18.434   8.221   5.417 -0.0381  0.1451 -0.2913
28887W        W42301   2.032  18.336  13.051  0.0984  0.0860  0.0420
28888W        W42302   3.555   4.709  13.614  0.0041  0.0765 -0.0152
28889W        W42303   1.091  11.212  13.229 -0.3797  0.0269  0.0434
28890W        W42304   3.537   2.356  11.154  0.1471  0.2387 -0.0878
28891W        W42305  11.429   0.961   4.807 -0.1316 -0.0961 -0.2519
28892W        W42306  10.656  10.553  16.099 -0.1266 -0.0424 -0.1332
28893W        W42307  16.545   1.844  13.243 -0.0370 -0.1888  0.0389
28894W        W42308  17.119  18.337   5.704 -0.0874  0.2982 -0.1353
28895W        W42309  18.512  18.051   3.970  0.2976 -0.1186  0.0415
28896W        W42310   8.402  17.471   1.929 -0.2340 -0.0032  0.0220
28897W        W42311   4.007   0.542  11.509  0.0808  0.2345  0.2036
28898W        W42312   5.773   4.259   1.052 -0.0591  0.0264 -0.0945
28899W        W42313  13.572  11.950  15.157 -0.1978 -0.1419 -0.0096
28900W        W42314  15.690   8.563  14.205  0.3359  0.1258 -0.3159
28901W        W42315   5.419  13.760  14.779  0.2499 -0.0494 -0.0258
28902W        W42316   3.223  14.479  16.048  0.1636 -0.0871  0.0169
28903W        W42317   1.092   1.897   0.164  0.1511 -0.1578  0.1849
28904W        W42318   8.513   2.484  14.994 -0.0594  0.0606  0.1203
28905W        W42319  15.439  16.524  15.425  0.0961 -0.0676  0.2253
28906W        W42320  16.973   5.809   5.979  0.4076 -0.3868  0.0341
28907W        W42321  18.132   6.565  13.612 -0.1881  0.4391 -0.0304
28908W        W42322   7.190  14.649  12.749 -0.0995 -0.2215  0.0328
28909W        W42323  10.707   5.704   2.132 -0.1044  0.0875 -0.0879
28910W        W42324   5.379  18.203  10.384 -0.1684 -0.0833 -0.1482
28911W        W42325   1.579  15.288   5.679  0.0572 -0.4580 -0.1240
28912W        W42326  18.502   5.259   4.237 -0.0440  0.0366  0.0369
28913W        W42327  14.895  13.355  12.860  0.0996  0.3853  0.0247
28914W        W42328   0.779   3.021  14.401 -0.2057 -0.0617 -0.1345
28915W        W42329   8.944  17.529   3.377  0.1444  0.1836 -0.0217
28916W        W42330  15.953   2.846  15.332 -0.0048  0.1088  0.1009
28917W        W42331  18.398   5.027  14.176  0.1438 -0.1826  0.3326
28918W        W42332   4.967  12.925  11.699  0.0802 -0.2133 -0.1381
28919W        W42333  12.164  16.810  13.150 -0.0940 -0.0336  0.1806
28920W        W42334   0.569   7.732   4.331  0.0769  0.1564 -0.3207
28921W        W42335  17.216  14.193  11.884 -0.0026 -0.2081 -0.0400
28922W        W42336   2.276   7.084   1.448 -0.0605  0.0746  0.0007
28923W        W42337  12.231   8.298   6.228  0.2296  0.0293 -0.3160
28924W        W42338   8.871  14.391   3.835 -0.0580 -0.0302 -0.1099
28925W        W42339   9.954   0.829   0.487 -0.0279  0.1451 -0.1093
28926W        W42340   9.503  17.184  11.530  0.1376 -0.3213 -0.0682
28927W        W42341   2.457   3.554  15.082 -0.0562  0.1397  0.2064
28928W        W42342  18.090   6.817  14.115  0.0666  0.1492 -0.2886
28929W        W42343  11.146   7.739  13.870 -0.3193 -0.3116  0.3252
28930W        W42344  10.814  15.364   3.854 -0.0706  0.0641  0.3433
28931W        W42345  10.764   1.867   2.925  0.0722  0.0214  0.1697
28932W        W42346  11.442  18.327  14.424  0.2996  0.3960  0.1588
28933W        W42347   2.714  10.969  14.033 -0.2875  0.1354  0.1033
28934W        W42348   9.417   8.490   0.191  0.3135  0.4668  0.2131
28935W        W42349  14.884   5.954   0.002 -0.0429 -0.2175 -0.3464
28936W        W42350  12.073   0.362  14.156  0.5423  0.1249  0.0802
28937W        W42351   3.290  13.918   0.715  0.0255 -0.1669  0.2643
28938W        W42352   8.391   5.271  11.722  0.0524  0.1371 -0.0808
28939W        W42353   3.886  14.936  12.846  0.3541 -0.1876  0.1818
28940W        W42354  12.864   1.943   2.715  0.0585 -0.0665  0.2016
28941W        W42355   1.823   8.337   5.549  0.1690 -0.0582  0.0952
28942W        W42356  12.923   8.672  15.702  0.0075 -0.1677  0.2974
28943W        W42357  10.391  14.809  10.997 -0.0939  0.4071  0.0857
28944W        W42358   8.623  14.881   2.515  0.0651 -0.1111 -0.0901
28945W        W42359   8.822   7.215  13.934  0.1145 -0.3084  0.0238
28946W        W42360   4.804   6.167   1.320  0.0502  0.1332  0.0542
28947W        W42361  10.032  10.960   3.809  0.0948  0.5112  0.2246
28948W        W42362   7.281   3.660   5.140  0.0604  0.0488 -0.1047
28949W        W42363  18.094  15.868   3.290  0.0206 -0.2912  0.3338
28950W        W42364  11.370  16.429  12.960  0.1020  0.1120 -0.0367
28951W        W42365  16.180  15.491   1.569 -0.2751  0.0104  0.1197
28952W        W42366   2.094   0.727  11.064  0.3595  0.2101  0.0597
28953W        W42367   1.988  18.520   1.523 -0.2006  0.2723  0.1424
28954W        W42368  14.447   1.739  11.183 -0.1061  0.1257 -0.3652
28955W        W42369   1.416  13.447   1.332 -0.1065 -0.1421 -0.1096
28956W        W42370  17.085   2.117   0.315 -0.0449  0.1173  0.0164
28957W        W42371  12.752   4.094  11.228 -0.0007  0.1775  0.1042
28958W        W42372  10.119  17.569   5.034  0.0155  0.0459  0.1657
28959W        W42373  12.036   1.884  14.982 -0.3711  0.3308  0.0259
28960W        W42374  16.493   1.438   5.384 -0.2763  0.2419 -0.3583
28961W        W42375  18.322   4.726   1.484 -0.0197  0.0334 -0.0115
28962W        W42376   4.543   0.950  15.806  0.3887 -0.3098 -0.2301
28963W        W42377  12.624  11.010   1.907  0.0491 -0.1175 -0.1468
28964W        W42378   9.812   7.302   6.036  0.0185  0.0817  0.0069
28965W        W42379  14.446  11.215  10.944  0.1550  0.1437  0.0779
28966W        W42380   9.803   8.650   4.418  0.0602  0.1485  0.0351
28967W        W42381  14.251   1.354  12.706  0.2130  0.1323  0.3418
28968W        W42382  17.467   6.276  12.848 -0.2240 -0.2972  0.2113
28969W        W42383  17.683  12.675  10.591  0.1725 -0.0091  0.1604
28970W        W42384  11.191  10.042  12.447  0.0085  0.2145 -0.0086
28971W        W42385  13.820  14.955  14.812  0.2110 -0.0308 -0.0832
28972W        W42386  12.027  10.864   2.202  0.0125  0.4446 -0.3329
28973W        W42387   9.058   5.866   4.991 -0.1476  0.3345 -0.0338
28974W        W42388   7.882   6.166  16.198  0.0797  0.1882  0.1978
28975W        W42389   2.790   4.486  11.471 -0.2253 -0.1232  0.2102
28976W        W42390  10.889  16.877  14.427  0.0484  0.0122  0.0818
28977W        W42391   8.901   6.471   2.949  0.1049  0.0858 -0.0961
28978W        W42392   5.609   6.764  12.530 -0.0317  0.0146  0.3162
28979W        W42393   8.975   2.523   2.100  0.1635 -0.0084  0.0548
28980W        W42394  15.163   4.597   5.746  0.1462 -0.1991  0.0559
28981W        W42395  14.607  15.247   0.403  0.2052 -0.1544 -0.0484
28982W        W42396  17.169  12.586   4.910 -0.3483  0.0029  0.2532
28983W        W42397   2.243   1.310   1.251  0.0574 -0.0333 -0.2169
28984W        W42398  18.166   1.002  10.236 -0.0706 -0.0723 -0.2297
28985W        W42399   9.586   7.558   6.787  0.0429 -0.0649 -0.2675
28986W        W42400  13.276   2.200   5.264 -0.0553  0.1109  0.2051
28987W        W42401   6.706  10.016  11.250 -0.0878 -0.2462 -0.0816
28988W        W42402   6.415   4.334  15.845 -0.0423 -0.0310  0.0523
28989W        W42403  14.097   1.972  11.915  0.0853  0.1466  0.0079
28990W        W42404   1.401  12.673   1.684  0.0162 -0.0780  0.1366
28991W        W42405  13.184   7.353  10.121 -0.0914 -0.2346 -0.2007
28992W        W42406  18.504   9.093  15.355 -0.2148  0.0432 -0.0138
28993W        W42407   3.070  17.826  10.901  0.2168  0.1757 -0.1429
28994W        W42408   6.410   8.326  11.099 -0.1941  0.0778 -0.2772
28995W        W42409   1.610   1.201  13.359 -0.0240 -0.2760 -0.0344
28996W        W42410  14.113   5.469   4.550  0.0909  0.1222  0.0005
28997W        W42411  12.950   3.113  10.305  0.2540  0.0468  0.3079
28998W        W42412   6.062   6.595  12.570 -0.1165  0.1278 -0.2454
28999W        W42413  11.407   3.788   1.523 -0.0916  0.3541 -0.1262
29000W        W42414   5.546  14.277  15.043  0.4340 -0.1893 -0.3798
29001W        W42415  15.437   1.707   0.380 -0.1592  0.1440  0.1263
29002W        W42416  11.295   6.558   0.228 -0.0483 -0.1111  0.4156
29003W        W42417   2.518  12.023   1.194 -0.5134 -0.1313  0.1779
29004W        W42418   1.100   7.602   0.062  0.1282  0.1056  0.0634
29005W        W42419   4.665   6.903   3.181  0.1812 -0.0928  0.1365
29006W        W42420  10.892   7.440   2.749 -0.0662 -0.3630  0.1037
29007W        W42421   1.350   2.678   4.669 -0.2356  0.1711  0.0002
29008W        W42422  15.961   7.299  15.809  0.2682 -0.4173  0.4896
29009W        W42423   3.286   9.734   0.587  0.4046  0.0477 -0.2562
29010W        W42424   6.638  15.558  11.534 -0.1058 -0.2372  0.0092
29011W        W42425  16.493   9.927   6.004  0.1930  0.1402 -0.4638
29012W        W42426  16.691  13.695  12.445 -0.0569  0.2387  0.2939
29013W        W42427  14.639  10.073   3.482  0.2487 -0.1688  0.1048
29014W        W42428   8.811  16.537  10.026 -0.2535  0.0826 -0.0330
29015W        W42429  13.201  10.434   1.688  0.1116  0.0744  0.1675
29016W        W42430   8.177   5.075  15.373  0.5147 -0.1187 -0.2406
29017W        W42431  16.822  15.255   1.029 -0.2078 -0.0718 -0.1284
29018W        W42432   1.711  13.241   0.924 -0.3812  0.2080  0.0062
29019W        W42433   8.233  16.268  15.315  0.1268  0.1614 -0.1455
29020W        W42434   5.463  11.935  11.458  0.0344  0.3417 -0.0758
29021W        W42435  17.369   1.459   3.619 -0.1650  0.2226 -0.3443
29022W        W42436  14.202   6.761   0.908  0.0810  0.0379  0.1579
29023W        W42437   5.009   9.468   9.957  0.3008 -0.1450  0.2322
29024W        W42438   7.580  13.832  13.942 -0.1110 -0.2366 -0.1416
29025W        W42439  10.997   5.761  14.362 -0.1275 -0.2101  0.2736
29026W        W42440  11.496   7.535   6.593 -0.2507  0.1428 -0.3171
29027W        W42441   9.639   3.153  12.997 -0.0176  0.0518  0.1888
29028W        W42442   4.589  18.472   3.293 -0.3173  0.0953  0.0648
29029W        W42443   3.991  13.891   0.740  0.0050 -0.1012  0.4254
29030W        W42444   6.793   4.665  13.965 -0.2642  0.1337 -0.0806
29031W        W42445   2.291  10.516  15.340  0.0575  0.0077  0.2758
29032W        W42446   1.683  18.002  13.934  0.0107 -0.0997 -0.1605
29033W        W42447  10.230   8.039  12.532 -0.1766 -0.0556 -0.1301
29034W        W42448   9.054  10.127   3.234 -0.1149 -0.2888 -0.2153
29035W        W42449  11.287   2.929   2.094  0.1071 -0.1230  0.0528
29036W        W42450   2.940  11.282  11.631  0.2735  0.0346 -0.0256
29037W        W42451   0.841  17.634  13.645  0.0761  0.2255  0.3749
29038W        W42452   5.038   6.418  15.325  0.0150 -0.0060  0.1081
29039W        W42453   4.903  16.229  15.406 -0.1755 -0.0704  0.0682
29040W        W42454  14.321   7.434  10.793 -0.0953  0.2010  0.2515
29041W        W42455   5.499   9.333   0.070 -0.0858 -0.1924  0.1830
29042W        W42456  13.096  17.472   1.218  0.1178 -0.0794  0.1423
29043W        W42457   1.622  16.243  14.064 -0.0697 -0.1204  0.1081
29044W        W42458   7.580   3.531  14.667 -0.2326 -0.0022 -0.2467
29045W        W42459   2.171  10.435   2.649 -0.2989 -0.2662 -0.3811
29046W        W42460  16.929  17.643  15.288 -0.1749  0.3513  0.0205
29047W        W42461   1.203  16.024   9.705 -0.3552  0.0015 -0.0331
29048W        W42462   3.876   2.830  11.812  0.4046 -0.2987 -0.2236
29049W        W42463  17.173   3.812   2.274 -0.0018  0.0266 -0.0288
29050W        W42464   4.504   9.951   2.164 -0.1156  0.1951 -0.0404
29051W        W42465  15.411   3.898  11.219 -0.0591 -0.0460  0.0364
29052W        W42466   4.324  11.935   1.537  0.3338  0.2364 -0.0403
29053W        W42467  17.619   0.040  11.954  0.0457  0.0013  0.0882
29054W        W42468  16.314  11.488   2.956  0.0454  0.2772  0.0649
29055W        W42469  17.023  18.113  11.158  0.0783 -0.0301 -0.1470
29056W        W42470  10.511   4.216  13.668 -0.0151 -0.0346 -0.0701
29057W        W42471  17.400  16.450  14.375 -0.0517 -0.4348 -0.1832
29058W        W42472  13.538  16.908   3.483 -0.2179 -0.4632 -0.0856
29059W        W42473  13.007   9.984   4.077 -0.1124  0.2159  0.0410
29060W        W42474   4.259   7.310  14.175  0.0232  0.3290  0.2156
29061W        W42475  16.715   1.751  15.087  0.0106 -0.1520 -0.0709
29062W        W42476   6.388   5.129  12.026  0.2317 -0.2436  0.0833
29063W        W42477  17.238   3.877   3.873 -0.0170 -0.0499  0.3196
29064W        W42478   0.046  12.706  15.979  0.1251  0.0474  0.0243
29065W        W42479   2.038   2.869  11.967 -0.2356  0.1376  0.2930
29066W        W42480   6.805  15.720   4.366 -0.0172 -0.0120 -0.1186
29067W        W42481  14.465  18.459   0.046  0.0371 -0.1227 -0.0910
29068W        W42482  14.855  14.871  10.589  0.2006 -0.0931 -0.0766
29069W        W42483   2.867  10.765   3.459 -0.0894  0.1547  0.0619
29070W        W42484   5.085   3.125  15.428  0.0090  0.0118  0.0497
29071W        W42485   5.175  12.292  11.648 -0.0336  0.0488 -0.1270
29072W        W42486  11.609  16.171  14.769  0.2701 -0.0137  0.0325
29073W        W42487   1.611  15.304   3.963  0.3341 -0.0096  0.1148
29074W        W42488   7.359  13.762   9.502  0.1532  0.2547 -0.2200
29075W        W42489  16.209  10.791  11.058 -0.0007 -0.1566 -0.1467
29076W        W42490   0.136   8.470   1.284 -0.1246 -0.0860 -0.3462
29077W        W42491  17.163   0.655   0.495 -0.0628 -0.0688  0.2271
29078W        W42492   1.488   0.293  11.446 -0.2528  0.1250 -0.1505
29079W        W42493  10.683  13.755  12.908  0.0129 -0.1354 -0.0580
29080W        W42494   4.935   6.879   2.730  0.1459  0.5502 -0.2269
29081W        W42495   5.990   9.838  12.866 -0.1311 -0.5426 -0.0720
29082W        W42496  10.812  12.732   3.278 -0.0993 -0.1459 -0.1230
29083W        W42497  17.905  17.554  12.056  0.3391 -0.1157 -0.0751
29084W        W42498  12.052   5.592  12.812  0.0146  0.3631 -0.2208
29085W        W42499  13.802   0.781  14.309 -0.1416  0.0677  0.2284
29086W        W42500   9.806  14.994  13.684 -0.0270  0.2250 -0.1709
29087W        W42501   5.063  16.573   4.693 -0.1278 -0.1200 -0.0207
29088W        W42502   7.869  17.259  14.052 -0.1635  0.0649  0.1725
29089W        W42503  14.232   8.850  14.858  0.0573 -0.1959  0.1419
29090W        W42504   5.471   0.760   1.547  0.0405 -0.3519  0.1332
29091W        W42505   7.670   2.180   0.881  0.0754  0.2547 -0.1982
29092W        W42506   2.859   6.440   3.037 -0.0009 -0.1185 -0.0326
29093W        W42507  11.224   4.996  13.824  0.4005  0.0256 -0.2330
29094W        W42508   4.544  14.777   0.612  0.2808 -0.1358  0.1294
29095W        W42509  10.145  18.180  13.290  0.3557 -0.0111 -0.3545
29096W        W42510   5.325  12.217   9.843 -0.0645 -0.3202 -0.0045
29097W        W42511   8.763  13.937  14.179  0.1997 -0.1352 -0.0942
29098W        W42512   5.507  13.240  10.052  0.0243  0.0972  0.0464
29099W        W42513   7.899  10.648  12.741 -0.1947 -0.1618  0.2074
29100W        W42514  17.310   7.528   3.044  0.1991  0.0857  0.0313
29101W        W42515   7.728  10.332  11.032 -0.1159  0.1832 -0.2149
29102W        W42516  12.627  18.007   4.231 -0.1025  0.2685  0.1342
29103W        W42517   3.890   6.907   3.728  0.0895  0.2481 -0.2518
29104W        W42518  15.573   6.642   3.896  0.2326 -0.0680  0.0489
29105W        W42519   6.598   2.234   3.688 -0.1324 -0.2193 -0.2836
29106W        W42520   2.974   5.496  12.536  0.3715  0.2808 -0.2470
29107W        W42521   6.529  15.257   3.156  0.0506 -0.0452 -0.0241
29108W        W42522   6.741  18.369   2.414 -0.2944 -0.2809 -0.0325
29109W        W42523  14.739   0.313   0.633  0.1464  0.0278  0.1359
29110W        W42524   1.063   5.537   5.748  0.2089 -0.3007 -0.0508
29111W        W42525  15.206  16.351   1.197  0.2241 -0.0516  0.0244
29112W        W42526   8.985   1.317   1.152 -0.1342  0.1598  0.1212
29113W        W42527   3.981   4.238  11.693  0.2324  0.0011  0.0401
29114W        W42528   2.737  11.373  14.254 -0.2164 -0.4066 -0.0859
29115W        W42529   3.964  13.431  14.111 -0.0044 -0.0134 -0.0535
29116W        W42530   3.730   5.077   3.267 -0.3764 -0.0470  0.1564
29117W        W42531  16.663   5.620   0.840  0.0683 -0.0393 -0.0887
29118W        W42532   2.043   4.826   0.282 -0.1711 -0.0285 -0.1346
29119W        W42533   2.035   0.562  14.035 -0.0025 -0.2723 -0.3532
29120W        W42534   3.393  16.907   0.841  0.0774 -0.1594 -0.0297
29121W        W42535  12.586   1.284  13.849  0.1245  0.0444 -0.1736
29122W        W42536  16.325  12.813   3.767  0.1911 -0.1741  0.1666
29123W        W42537  16.881   7.472   3.537 -0.0404 -0.0611 -0.0077
29124W        W42538  14.371  14.877   3.169  0.2204 -0.1265  0.0321
29125W        W42539   4.005  13.636  14.931  0.3836  0.4139  0.1187
29126W        W42540   5.826  12.295  15.864  0.0794  0.0296 -0.0593
29127W        W42541  11.883   3.698  12.173 -0.3709  0.1510  0.2800
29128W        W42542  14.235  18.377   1.029 -0.3189  0.0366  0.0153
29129W        W42543   1.238  14.431   1.248 -0.1134  0.1559 -0.0464
29130W        W42544  12.502   9.941   4.262 -0.0285  0.0995 -0.0332
29131W        W42545   1.114   7.811  11.667  0.1136 -0.1162  0.1770
29132W        W42546  18.356  14.003  14.631 -0.1185 -0.3054 -0.0963
29133W        W42547   0.245  10.050   4.976  0.0114 -0.0162  0.0769
29134W        W42548  16.212  14.522  14.320  0.0887 -0.3263 -0.2644
29135W        W42549  12.607   1.179  15.652  0.2650  0.1473  0.1844
29136W        W42550   0.247   0.511   1.058 -0.2240  0.1571  0.1715
29137W        W42551   5.041   8.017   1.260  0.0787 -0.0919  0.2575
29138W        W42552  16.743   0.254  14.626  0.1009 -0.2886 -0.2707
29139W        W42553   3.308  10.373   4.720  0.1282 -0.2489  0.1882
29140W        W42554   1.115   1.489   5.814 -0.2286 -0.5222 -0.0663
29141W        W42555   0.232  12.149   4.361  0.1446  0.2200 -0.2233
29142W        W42556   2.055  13.251  11.021 -0.1342  0.2865 -0.1442
29143W        W42557  17.991   0.286  14.130  0.0092  0.0560 -0.1757
29144W        W42558   5.427   4.175  12.020  0.0395 -0.0991 -0.5691
29145W        W42559  16.072   1.875   3.449  0.0868  0.2053 -0.1348
29146W        W42560  14.608   1.699   3.350  0.1638 -0.1715  0.2076
29147W        W42561   5.487  15.178   2.386 -0.1230 -0.1258  0.0617
29148W        W42562  10.102  10.870  13.461  0.0493  0.1690 -0.4571
29149W        W42563   3.953  18.114  13.155  0.0715  0.0634 -0.2663
29150W        W42564  11.861   5.919   4.504  0.3190 -0.0175  0.0418
29151W        W42565  14.629  12.452   4.740 -0.0199 -0.1090  0.0171
29152W        W42566  10.339  17.165  15.726  0.1092 -0.2654 -0.0827
29153W        W42567   7.810   3.771   2.094 -0.0066 -0.0576  0.2322
29154W        W42568  13.543   9.970   2.492 -0.0033 -0.1363  0.1672
29155W        W42569   0.709  16.408   3.746  0.1094 -0.0507 -0.0462
29156W        W42570   9.145  11.222   0.406 -0.0562  0.0369  0.0978
29157W        W42571  14.884   6.371   6.323  0.2873  0.3006 -0.0855
29158W        W42572   5.738   3.785  16.195  0.0347  0.1982 -0.0692
29159W        W42573   1.756   9.406  10.586  0.0420  0.2404  0.2580
29160W        W42574   3.212   6.826  13.463  0.2378 -0.0523 -0.4583
29161W        W42575   3.626   3.794   2.528 -0.0999 -0.1258 -0.1464
29162W        W42576   5.965  16.886   2.182 -0.1947  0.0780  0.0457
29163W        W42577  10.734   2.266  11.400 -0.3334 -0.1675 -0.2097
29164W        W42578   2.571   9.845   1.329 -0.3451  0.2400  0.2883
29165W        W42579  10.746   4.147   0.267 -0.1190 -0.2203  0.1105
29166W        W42580   4.982   2.989   4.934 -0.3273  0.1204 -0.0403
29167W        W42581  11.555   9.016  15.419 -0.0006  0.0307  0.2714
29168W        W42582   0.310   0.172  11.184  0.0336  0.0691  0.1659
29169W        W42583   6.510   6.662   0.526  0.0848  0.1411  0.1805
29170W        W42584   0.240   8.750   5.235 -0.2682 -0.3860 -0.0345
29171W        W42585  13.348  15.903   5.658 -0.3545  0.0559 -0.0690
29172W        W42586   2.562   3.131  14.196 -0.0991  0.2762  0.0585
29173W        W42587  11.221  13.328  11.828 -0.0801 -0.0227  0.1587
29174W        W42588   5.656  13.973  13.527 -0.2465 -0.2199 -0.0502
29175W        W42589  12.831   1.799   1.986 -0.0944 -0.1055 -0.0030
29176W        W42590  10.169   6.515  11.761 -0.0563  0.0567  0.1139
29177W        W42591   4.960   0.530   0.252  0.0446 -0.0456  0.0510
29178W        W42592   1.768   2.164  13.174  0.0957 -0.2837  0.0685
29179W        W42593   9.639  14.189  11.032 -0.0401 -0.0868 -0.1443
29180W        W42594   6.909  10.137  12.696  0.2483  0.0127 -0.1720
29181W        W42595  18.487  11.157  14.551  0.0080  0.0134 -0.0394
29182W        W42596   5.356  17.871   5.378  0.0872  0.0222  0.1428
29183W        W42597  14.510   4.098  14.255 -0.3619 -0.3066 -0.0401
29184W        W42598  10.287   6.803   3.993 -0.0680 -0.1210 -0.1225
29185W        W42599   5.593  14.067   0.349  0.0564  0.1959  0.1649
29186W        W42600  14.207  15.144  11.138  0.2694 -0.0124  0.0412
29187W        W42601   0.072   1.030  13.951  0.0754 -0.1376  0.0641
29188W        W42602  15.792   6.237  11.997 -0.1935  0.1237 -0.2538
29189W        W42603  14.646  13.517  11.927  0.0857 -0.2165  0.0868
29190W        W42604  11.369   4.194  11.715  0.4334 -0.2000  0.2844
29191W        W42605   8.394  10.619   0.262 -0.1399 -0.1475  0.0205
29192W        W42606   4.835  14.909  10.521  0.0143  0.0516  0.0439
29193W        W42607   7.929   4.652  12.881 -0.0231 -0.0046  0.3566
29194W        W42608   5.787   9.940  11.212  0.0815 -0.2366  0.1720
29195W        W42609   1.665  12.654   0.867  0.1561  0.0641 -0.1671
29196W        W42610   9.025   2.937   3.051 -0.1405  0.2013 -0.0353
29197W        W42611   3.098   6.527   0.250  0.0878 -0.0610 -0.1593
29198W        W42612   6.777   5.594  14.052 -0.3129 -0.0132 -0.2091
29199W        W42613   8.955   5.306  14.546 -0.1525 -0.0324  0.1279
29200W        W42614   8.166  10.435  15.391  0.0194 -0.3471 -0.0058
29201W        W42615   1.737   4.012   6.130  0.1634 -0.0988 -0.0192
29202W        W42616   3.993  10.974  15.975  0.0719 -0.1127 -0.2217
29203W        W42617  11.126  11.720  12.873 -0.2409  0.0282 -0.0223
29204W        W42618  10.079   8.247   4.182  0.2741  0.1152 -0.1891
29205W        W42619  13.807  10.086  15.517 -0.4777  0.2076 -0.0755
29206W        W42620   5.960   1.421  15.941  0.1136 -0.0560 -0.0423
29207W        W42621  11.541   6.584   1.945  0.0066  0.0945 -0.1203
29208W        W42622  14.648   8.900   1.995  0.1060 -0.0224 -0.2108
29209W        W42623  16.892   5.966   6.816  0.2220  0.0649  0.2921
29210W        W42624   9.224  17.868   5.344  0.0637  0.0621 -0.0649
29211W        W42625   5.981   7.007   5.989 -0.1189  0.0315  0.1613
29212W        W42626   4.643   9.961   3.986 -0.1086 -0.0191  0.1516
29213W        W42627   4.106   2.701  14.591 -0.0930  0.1989  0.1789
29214W        W42628   1.723  14.501  13.358 -0.0108  0.1175  0.0834
29215W        W42629   0.790   7.276   3.443 -0.1413  0.0655  0.2691
29216W        W42630   8.923  17.554   1.943  0.0620 -0.1411 -0.2154
29217W        W42631   6.809   0.133  11.897  0.2358 -0.1994  0.0449
29218W        W42632   2.279  12.776  10.931 -0.1276 -0.2103 -0.2149
29219W        W42633   4.940  17.030  15.714 -0.3725  0.0934 -0.0115
29220W        W42634  12.685  15.696   3.477  0.0406  0.1781  0.3379
29221W        W42635  12.593   9.187   0.605  0.0107 -0.1376  0.0276
29222W        W42636   5.593   0.926  15.009 -0.1447  0.3215 -0.0706
29223W        W42637   7.845  14.484   9.686  0.0735 -0.1032 -0.3423
29224W        W42638  13.701   0.388  12.664  0.1445  0.0746 -0.2273
29225W        W42639  12.057  15.969   1.942  0.1529 -0.0714 -0.3218
29226W        W42640  14.468  10.888   0.324  0.3358 -0.2677  0.1794
29227W        W42641  10.796  16.337   4.014  0.3846  0.2475  0.4322
29228W        W42642   0.430   4.662   5.763  0.0347 -0.1804  0.0127
29229W        W42643   4.827   1.175  11.295  0.0655 -0.2142 -0.0829
29230W        W42644  16.502  13.877   2.165 -0.1003  0.1905  0.0631
29231W        W42645   0.242   1.990  10.778 -0.0261 -0.1246  0.1621
29232W        W42646   5.801  18.037   9.592 -0.2665  0.1165  0.4190
29233W        W42647   3.005  12.624   3.658 -0.3289  0.1277 -0.1425
29234W        W42648   4.391  10.416  14.008 -0.3029  0.1486  0.3429
29235W        W42649  10.441   0.384   3.931  0.1607  0.0404 -0.1670
29236W        W42650  14.767   7.449   3.995 -0.0574 -0.0397 -0.0246
29237W        W42651  10.400   8.350   6.628  0.2864  0.1682 -0.2870
29238W        W42652   5.440  16.887  10.927  0.2113 -0.3139  0.0465
29239W        W42653  14.904   7.937   5.946  0.0348 -0.0024  0.1935
29240W        W42654  16.373  18.424   2.354  0.2853 -0.1032 -0.3054
29241W        W42655  11.094  14.400  10.998  0.1365  0.2211 -0.0646
29242W        W42656   8.057  17.154  15.794  0.0482  0.2200  0.3048
29243W        W42657   8.462  15.948  10.651  0.0044  0.1357  0.1525
29244W        W42658   8.770   5.335   4.560 -0.5449  0.1933 -0.0773
29245W        W42659   5.859  13.840   4.252 -0.3056 -0.1213  0.2633
29246W        W42660   2.736  13.772   1.281  0.1289 -0.0869 -0.3033
29247W        W42661   9.958   1.498  10.717  0.1329 -0.0946 -0.1287
29248W        W42662   2.273   6.108  11.572 -0.1689 -0.0439 -0.0016
29249W        W42663  10.291  16.604  15.219  0.1477 -0.0320 -0.3018
29250W        W42664  16.185   6.352  14.729 -0.1519 -0.1693  0.3443
29251W        W42665   1.632   5.446  13.638 -0.0259 -0.1438 -0.0042
29252W        W42666  13.783   8.572   1.518 -0.0615 -0.1856 -0.2769
29253W        W42667  14.831   6.998   4.777 -0.3282 -0.1746 -0.0350
29254W        W42668  17.587   4.849   4.461 -0.0244  0.1323 -0.1286
29255W        W42669   8.964  11.573  15.751 -0.1309  0.2263  0.1551
29256W        W42670   1.910   9.722  16.176  0.1074 -0.1879  0.0694
29257W        W42671  14.462   8.292  10.255  0.0575 -0.1499  0.3075
29258W        W42672  14.295   1.367  10.162 -0.1619  0.3271  0.0955
29259W        W42673   3.845   0.254   1.753  0.3951  0.1172  0.1308
29260W        W42674  11.705  12.096  13.906 -0.0017  0.2607 -0.1470
29261W        W42675   3.527   2.313   4.299 -0.0639 -0.1776  0.2583
29262W        W42676   9.236  14.362  10.707  0.1145  0.1469 -0.1919
29263W        W42677   1.510   9.657   0.183 -0.0908  0.2308  0.2523
29264W        W42678  16.638   6.321   5.865  0.2067  0.0187  0.2826
29265W        W42679   9.151   9.617   3.037 -0.2444  0.0889 -0.1582
29266W        W42680   7.265   0.769   0.764  0.2770  0.0585 -0.0992
29267W        W42681   2.610   8.757   5.733  0.2450 -0.0696  0.0529
29268W        W42682  14.339  15.708  15.537  0.2150 -0.0592  0.0456
29269W        W42683   1.262  17.242  15.359 -0.1936  0.0666  0.0236
29270W        W42684  13.162   0.345  11.364  0.0983  0.0627 -0.1178
29271W        W42685   0.627   6.720   4.609 -0.0453 -0.2021 -0.2807
29272W        W42686   9.227   4.203  15.972 -0.1710  0.2161  0.1250
29273W        W42687  10.110  10.164  11.870 -0.1942  0.1131 -0.0937
29274W        W42688  13.767   6.090   2.487  0.2264  0.2712  0.1794
29275W        W42689  12.347  11.212  14.460 -0.0139  0.1448  0.0919
29276W        W42690  12.098  16.631  12.479 -0.0542 -0.3165  0.0723
29277W        W42691   2.687  14.496  12.073 -0.2963 -0.2115 -0.0897
29278W        W42692   2.953   9.282  16.187 -0.1265 -0.2469 -0.1893
29279W        W42693  18.213   0.305   2.287 -0.0346  0.3404  0.3017
29280W        W42694   1.500   6.070  14.368  0.1945 -0.1760 -0.0778
29281W        W42695   5.238   0.677   5.220 -0.1880  0.2831  0.1788
29282W        W42696   9.639  15.780   5.892  0.0618  0.2488  0.1302
29283W        W42697  16.751   7.488   5.347 -0.0568 -0.0868 -0.0404
29284W        W42698   5.272  11.217  13.427  0.1878  0.0603  0.0712
29285W        W42699   8.662  16.831   3.555  0.3457 -0.0834  0.1595
29286W        W42700  14.771  10.649   4.425  0.2317  0.4022 -0.1169
29287W        W42701   9.290   4.318  11.678 -0.0849 -0.0479 -0.3842
29288W        W42702  15.103   5.401  14.555  0.2727  0.1180 -0.1455
29289W        W42703   0.246   6.513  10.802 -0.2575 -0.0417  0.3925
29290W        W42704   5.915  11.903  13.178  0.0703 -0.0676 -0.1654
29291W        W42705   8.295   4.795   6.042 -0.0806 -0.0403  0.2231
29292W        W42706   9.657   6.175  14.075 -0.1286  0.0119 -0.4859
29293W        W42707  14.589   0.729   2.683  0.3556  0.0143 -0.0706
29294W        W42708   3.794   4.464  14.323  0.1524 -0.1017  0.0679
29295W        W42709  17.150   0.680   1.353 -0.1843  0.2649 -0.1601
29296W        W42710  16.021   3.245   3.744  0.1544 -0.0602  0.1042
29297W        W42711  15.375   6.190   2.870  0.2698  0.2677  0.1022
29298W        W42712   1.999   2.337  14.066 -0.0323 -0.0963  0.1680
29299W        W42713  15.140  16.312  10.456  0.0466 -0.0822 -0.2019
29300W        W42714   5.247   1.611   2.387  0.1911  0.1082  0.0241
29301W        W42715   5.767   1.285   4.573  0.0438 -0.1667  0.2048
29302W        W42716  13.818  11.609  15.506  0.0170 -0.1192  0.0894
29303W        W42717   2.390   3.813   4.769 -0.0767  0.2473  0.1027
29304W        W42718   7.655   8.453   0.704  0.0972  0.0881 -0.2879
29305W        W42719  13.508   8.559   0.088  0.1487  0.0057  0.1319
29306W        W42720   1.554  16.855   0.584 -0.4157 -0.0226  0.0978
29307W        W42721  13.972   9.219   0.749 -0.0782  0.0302  0.1627
29308W        W42722  15.130   5.129   2.438  0.1355 -0.3761  0.1603
29309W        W42723  15.222   8.231  12.114 -0.1358  0.0924  0.5709
29310W        W42724  16.889   7.804   5.789 -0.0810  0.0631  0.0482
29311W        W42725   9.743   4.836  13.725 -0.4679  0.1117 -0.4265
29312W        W42726   1.209  14.146  12.186 -0.0627 -0.5950  0.0374
29313W        W42727  15.158  14.443  12.346 -0.1352 -0.0168  0.2219
29314W        W42728   3.268   1.439   2.170 -0.0746 -0.0899  0.0983
29315W        W42729   2.237   0.845   2.971 -0.2521  0.1688 -0.1999
29316W        W42730   6.918   0.255  12.421 -0.0131  0.1065 -0.0927
29317W        W42731   2.031   7.731   4.544 -0.4261  0.2948 -0.1370
29318W        W42732  10.134   1.350   4.532  0.4238 -0.3610  0.0232
29319W        W42733   2.097   0.242  11.759 -0.3309  0.1155 -0.4714
29320W        W42734  11.225   3.417   4.787 -0.1231 -0.2010 -0.0995
29321W        W42735  14.293  10.283  12.916 -0.1398 -0.0641  0.0785
29322W        W42736  12.249   9.839   5.101  0.2700  0.2531  0.3638
29323W        W42737   8.854   8.601  10.336  0.0294 -0.0263  0.0943
29324W        W42738  15.842  11.131   1.306 -0.0120  0.2563  0.0588
29325W        W42739   0.986   5.463   1.664  0.2283 -0.0260  0.2743
29326W        W42740   7.318  16.401   5.889 -0.0181  0.1007 -0.1793
29327W        W42741   7.307   0.115  11.833 -0.2745 -0.1018 -0.1620
29328W        W42742   2.591   8.911   0.763  0.0527 -0.3043 -0.1269
29329W        W42743   5.082   3.483   3.390  0.0325 -0.4666 -0.1472
29330W        W42744  12.648  18.391   4.567  0.0333  0.2402  0.4107
29331W        W42745  18.449   6.851   3.611  0.2417  0.3588 -0.1825
29332W        W42746   5.304   1.201  12.765 -0.1734  0.0722 -0.3177
29333W        W42747  13.215   4.366  14.206 -0.1515  0.1060  0.0863
29334W        W42748   9.621   1.010   5.109  0.0520 -0.1896 -0.0027
29335W        W42749   8.499  16.357   2.216  0.1443 -0.0171 -0.0897
29336W        W42750  13.945  18.475   2.922 -0.1836  0.1189 -0.1598
29337W        W42751  16.660  13.464   2.381  0.1403 -0.0211 -0.0461
29338W        W42752  12.196   4.723   3.690  0.1093 -0.1597 -0.0997
29339W        W42753  14.632   5.156   5.348  0.3192  0.0740  0.1065
29340W        W42754   8.453   3.780  13.175 -0.3696 -0.0884 -0.0089
29341W        W42755   8.305  13.888   3.864  0.2574 -0.0221 -0.0925
29342W        W42756  15.309  17.613  14.325  0.3697 -0.1699 -0.0137
29343W        W42757  18.266  13.392  13.173 -0.2193 -0.0196 -0.0602
29344W        W42758   0.581  16.656   4.775  0.1112 -0.1249 -0.2707
29345W        W42759   9.776   8.095  11.017 -0.2503 -0.0500 -0.1010
29346W        W42760   8.762   1.471   5.351  0.1540  0.1004 -0.0350
29347W        W42761  11.732   0.941  15.993 -0.1768  0.0546  0.1222
29348W        W42762   3.990   5.497  12.242  0.0825  0.1565 -0.0061
29349W        W42763   7.822  17.576  14.413  0.2925  0.2484 -0.3484
29350W        W42764  11.933   3.116  13.682  0.1197 -0.1870  0.1465
29351W        W42765   3.377   1.232  11.208 -0.0338 -0.0654 -0.2131
29352W        W42766   7.923  15.527  11.798 -0.1102 -0.0022 -0.2996
29353W        W42767  10.849   2.206  14.440  0.0964 -0.1708 -0.1688
29354W        W42768  14.206   7.894  11.174  0.1403 -0.0778  0.5215
29355W        W42769  14.074   0.148   3.880  0.0593 -0.3723  0.1783
29356W        W42770   6.102   0.988   4.814 -0.0124  0.0265 -0.0018
29357W        W42771   0.124  17.663   4.694 -0.0102  0.0979 -0.1248
29358W        W42772  15.350  11.366  14.539 -0.0469  0.0833  0.0394
29359W        W42773   2.305   9.764  15.855  0.0680 -0.1672 -0.0233
29360W        W42774   8.988   6.005   1.322 -0.0739  0.0430 -0.1183
29361W        W42775   4.216  17.044   3.247 -0.0753 -0.0179 -0.0930
29362W        W42776  14.840   8.357  12.462 -0.2252 -0.1768  0.0163
29363W        W42777  10.383  13.578  12.076  0.1546  0.1831  0.0491
29364W        W42778   9.391  10.265   4.067 -0.2527  0.2114  0.0016
29365W        W42779  15.366  14.943  14.157  0.3457 -0.1769  0.0316
29366W        W42780   7.592   2.677   4.608  0.1099 -0.2161 -0.0154
29367W        W42781  12.362   8.541  13.361 -0.0713  0.1617 -0.1956
29368W        W42782   7.261   9.444  14.332 -0.0483 -0.1306  0.3604
29369W        W42783   4.805   3.517  10.828 -0.1097 -0.0412 -0.2016
29370W        W42784  12.846   6.046  13.879 -0.2142 -0.1303 -0.0240
29371W        W42785   3.322  14.466  14.315  0.0478  0.1043 -0.2016
29372W        W42786   5.360  16.831  11.449 -0.1812  0.2568 -0.1196
29373W        W42787   7.920   3.478  15.798  0.0042  0.0551  0.1022
29374W        W42788   2.769   0.586  11.942  0.1207 -0.1494  0.0890
29375W        W42789  13.035   3.740   0.834 -0.0676 -0.2346 -0.0762
29376W        W42790   4.827   9.739  13.372 -0.0468 -0.0354  0.1691
29377W        W42791   1.423   5.583  14.596 -0.2896  0.0604 -0.0910
29378W        W42792  13.087  14.314   1.154 -0.0536 -0.0495  0.3976
29379W        W42793   4.541   3.435  13.490  0.3119  0.1641  0.0810
29380W        W42794  15.826   6.188  14.358 -0.1277 -0.0101  0.1761
29381W        W42795  16.266  11.807   3.421 -0.0272  0.1810 -0.0031
29382W        W42796  16.702   5.275  13.119  0.0436  0.0162  0.1334
29383W        W42797   4.741   7.282   0.389  0.2156 -0.1552  0.1379
29384W        W42798   5.387   3.973  14.876 -0.2827  0.0946  0.2578
29385W        W42799   2.853   8.506  10.573 -0.1927  0.2382 -0.0386
29386W        W42800   3.954   8.413  14.279 -0.2024  0.0955  0.0117
29387W        W42801   6.820  13.971   4.490 -0.1212 -0.1852 -0.0803
29388W        W42802   2.046   3.405   3.570  0.0907 -0.0396 -0.1702
29389W        W42803   7.306   3.282   4.787 -0.4429  0.2055 -0.2438
29390W        W42804   5.111  16.268   5.448 -0.3587 -0.1008  0.0976
29391W        W42805   1.839   1.403  14.481 -0.3111  0.0853 -0.0792
29392W        W42806   7.136   5.586  11.219  0.1335  0.0158 -0.3291
29393W        W42807   2.224  14.562   1.445 -0.1840 -0.0520  0.4216
29394W        W42808  14.879   2.329  13.220  0.1398  0.2783 -0.2063
29395W        W42809  13.605   1.945  16.036  0.0031 -0.0260  0.0564
29396W        W42810   1.754   0.962   3.982  0.1529 -0.0026  0.0986
29397W        W42811  11.668   8.480  10.655  0.0400  0.1639  0.2533
29398W        W42812   8.762  10.527   1.002 -0.2608  0.0392  0.0326
29399W        W42813   7.197   8.421  11.529  0.2116 -0.2306 -0.0754
29400W        W42814  16.506  17.583  11.905 -0.1279 -0.2719 -0.2713
29401W        W42815   2.947   5.909   0.422 -0.0235  0.0089  0.0570
29402W        W42816   5.989   4.675  10.656 -0.0390 -0.0910 -0.1177
29403W        W42817   4.178   4.285  12.952  0.0805 -0.2162  0.0711
29404W        W42818  16.572  11.803  10.427  0.0298  0.0043  0.1010
29405W        W42819  17.424  14.231   0.951  0.1048 -0.1735  0.0674
29406W        W42820   4.079   5.339  13.927  0.1968 -0.1387  0.0446
29407W        W42821   4.270   5.264  16.033 -0.0997 -0.0959  0.0067
29408W        W42822   2.600   2.747  15.079 -0.0320  0.0331 -0.0703
29409W        W42823   1.372   0.386   0.831  0.0547  0.1327 -0.0883
29410W        W42824  15.940  10.520   6.409 -0.0179 -0.2959 -0.0163
29411W        W42825   1.019   4.501   4.545 -0.2389 -0.2989 -0.3333
29412W        W42826  12.624  17.200   2.304 -0.2951  0.1599 -0.1898
29413W        W42827  16.778   0.831  14.510  0.0296  0.0380 -0.3656
29414W        W42828   2.598   1.205   1.967 -0.0813 -0.1304 -0.0792
29415W        W42829  13.947  10.086   2.194  0.0857 -0.0181  0.0487
29416W        W42830   4.312   8.649  11.227 -0.0467  0.0378 -0.1616
29417W        W42831   1.791  11.932   2.053  0.1005  0.2455  0.1924
29418W        W42832  16.831   0.654   2.069 -0.0135 -0.1294  0.1928
29419W        W42833   2.962   4.221   5.408 -0.2652 -0.3841 -0.1092
29420W        W42834  18.393  17.849  14.761  0.3562  0.1911 -0.1048
29421W        W42835  17.935  16.158   0.657  0.2649 -0.1586  0.0585
29422W        W42836  17.040  16.511  11.972 -0.2963 -0.2023  0.0455
29423W        W42837  16.082  17.205   5.738 -0.0591  0.0041 -0.0930
29424W        W42838   0.507   8.386   5.379  0.0738 -0.1537 -0.2091
29425W        W42839   0.415   8.855   2.941 -0.1581 -0.0671  0.1233
29426W        W42840   3.871  13.638  12.275  0.4683 -0.2095  0.0127
29427W        W42841   0.911   9.451  10.528  0.0309  0.1040 -0.0313
29428W        W42842   9.917   7.686   0.081 -0.2424  0.1864  0.4246
29429W        W42843   6.670  14.967  12.853 -0.3501  0.3480 -0.0700
29430W        W42844   5.575   4.512   1.709  0.0681  0.1509  0.1030
29431W        W42845   9.667   6.275  12.971 -0.1357  0.0057 -0.0140
29432W        W42846  15.857  12.727   4.916  0.1153 -0.0194 -0.0168
29433W        W42847   5.463  10.874   1.906 -0.2122 -0.2016 -0.3314
29434W        W42848   0.676   9.415  13.423 -0.2255  0.0538 -0.2059
29435W        W42849  13.747  16.499   1.812 -0.0749  0.1575 -0.0709
29436W        W42850  15.134  18.138   3.121 -0.1142  0.0278 -0.1087
29437W        W42851   8.354  10.684   3.687  0.0762 -0.1306 -0.0507
29438W        W42852  11.535   5.479  12.619  0.2150 -0.0493  0.1131
29439W        W42853   3.183   9.285   2.313  0.0008 -0.0078 -0.2446
29440W        W42854  17.423   1.237   4.877 -0.0324  0.0951  0.0431
29441W        W42855  15.984  17.355  11.439  0.0355  0.0347 -0.1384
29442W        W42856  17.526  15.123  15.918 -0.4125 -0.0374  0.2338
29443W        W42857   6.742   4.092  13.747  0.0975 -0.3867 -0.2869
29444W        W42858  12.954   0.252   0.288  0.2323 -0.0828 -0.2062
29445W        W42859   4.397   7.862   0.637 -0.1004  0.0524 -0.1132
29446W        W42860  11.657   7.791   5.538  0.0118  0.4155  0.4607
29447W        W42861   0.923  10.570  12.765  0.4022  0.2634 -0.0815
29448W        W42862   9.747   1.075   3.786  0.0375 -0.0622  0.3468
29449W        W42863   8.920   2.461   5.012 -0.0226 -0.0612  0.1222
29450W        W42864   0.989   6.099  11.517  0.1552  0.4532  0.0135
29451W        W42865  11.294  11.043  11.273  0.1492  0.0482 -0.1157
29452W        W42866  17.558  13.987   5.942 -0.2470 -0.1390 -0.0367
29453W        W42867   9.776  16.606   1.578  0.0771  0.1207  0.0775
29454W        W42868   8.961   3.069   0.795  0.1403  0.2488 -0.2282
29455W        W42869   1.805   0.847  16.230 -0.0892  0.0703 -0.0501
29456W        W42870   7.745   0.172  14.005  0.0794  0.1700 -0.2134
29457W        W42871  12.989   1.195  13.545  0.0054 -0.0830  0.0374
29458W        W42872   0.262  16.790  15.280  0.0052 -0.1283 -0.0821
29459W        W42873  11.749   2.678  15.302 -0.0679 -0.0807 -0.1312
29460W        W42874  11.914   3.975  13.856  0.2964  0.2196  0.0654
29461W        W42875   1.653   9.094  11.262 -0.1295  0.2244 -0.0012
29462W        W42876  17.617   3.057   1.489  0.1077 -0.0420  0.0054
29463W        W42877   1.236  12.437  12.692 -0.3131 -0.1868 -0.1562
29464W        W42878  11.384   6.124  11.537  0.0935 -0.0174 -0.3282
29465W        W42879   8.589   0.728   2.628  0.0797  0.0462  0.0656
29466W        W42880  17.973   4.396   3.205  0.0580  0.2359 -0.3394
29467W        W42881   2.931   2.971  10.924 -0.0162 -0.0800  0.3454
29468W        W42882   3.933   4.794  13.950  0.2018  0.2359 -0.0784
29469W        W42883   5.929   8.627  16.110 -0.1859 -0.3719  0.0196
29470W        W42884  11.617  11.808  16.227  0.0010  0.2715  0.1194
29471W        W42885  17.034  10.334  11.644 -0.0735  0.2245  0.0146
29472W        W42886   3.011   4.617   0.254  0.0048  0.2465  0.3204
29473W        W42887   2.180  16.739  12.460  0.0361 -0.1994  0.2044
29474W        W42888   5.401  12.182   5.111  0.1232 -0.0308  0.0131
29475W        W42889   8.766  10.358  10.795 -0.1329 -0.1034 -0.4519
29476W        W42890   2.335   6.293  11.081 -0.0374 -0.2280 -0.1931
29477W        W42891   1.253   8.186   3.079  0.1104 -0.1066  0.0411
29478W        W42892  15.024  15.513   0.374 -0.0908  0.0155 -0.0054
29479W        W42893   8.956  16.549   1.679 -0.0686 -0.2718 -0.1512
29480W        W42894   6.598   3.296  12.601 -0.5313 -0.0549 -0.1266
29481W        W42895  12.010   4.914  13.834  0.2694  0.2402  0.2073
29482W        W42896   7.893   0.084  14.880 -0.2161  0.1575 -0.0397
29483W        W42897   2.771  17.876   2.531  0.0423 -0.2981  0.3170
29484W        W42898  16.581   4.597   0.317 -0.1886  0.0497 -0.0068
29485W        W42899   6.981  17.570  13.922 -0.2149  0.1160  0.3041
29486W        W42900   7.142   5.496   5.113  0.0649  0.1239  0.0974
29487W        W42901  18.004  14.035  14.290  0.2422 -0.1204  0.2421
29488W        W42902   7.310  18.311   3.024  0.0717  0.0939  0.0862
29489W        W42903   7.232   0.528  14.722  0.0867  0.1171  0.1389
29490W        W42904   6.135  15.194  11.670 -0.0237  0.1998  0.1814
29491W        W42905   7.139   3.928  12.081 -0.1585  0.0417 -0.3431
29492W        W42906  13.433  17.360   3.358 -0.2621  0.0906  0.2781
29493W        W42907   8.915   5.389   0.731  0.2595  0.0962  0.1421
29494W        W42908  16.783   5.070   0.606  0.1889 -0.0405 -0.0571
29495W        W42909  11.762   3.905  14.843  0.1893  0.3627 -0.0651
29496W        W42910   5.436  17.028   3.875 -0.1975 -0.1874  0.1456
29497W        W42911   8.121  18.516  16.196 -0.0439 -0.2130 -0.1313
29498W        W42912  12.991  13.873  14.998  0.1729  0.1629 -0.2116
29499W        W42913   9.694   3.629  11.111 -0.1567  0.1733 -0.2194
29500W        W42914   1.577  10.294   2.532 -0.1584 -0.2787 -0.3219
29501W        W42915  18.356   4.197  14.241  0.0958 -0.3143 -0.0292
29502W        W42916  16.896  18.241  15.265  0.1265  0.0747 -0.3044
29503W        W42917   3.396  18.072   5.109  0.2148 -0.2325 -0.1498
29504W        W42918   3.765  13.373  14.568  0.1164  0.2014 -0.0502
29505W        W42919   3.670  11.495  14.625  0.0574 -0.1427 -0.2227
29506W        W42920  14.149   1.817  10.283  0.1356  0.4237  0.1359
29507W        W42921   0.380   4.757   1.270 -0.1159  0.2461  0.0208
29508W        W42922  10.099   5.219  15.093 -0.1398 -0.0098  0.0397
29509W        W42923  12.273  15.163  13.765  0.0179  0.0024 -0.2356
29510W        W42924  15.431  10.257  14.827 -0.1761 -0.2027 -0.1111
29511W        W42925   0.633  14.532  10.540 -0.0093  0.1350  0.2084
29512W        W42926   3.745  10.193   3.013 -0.0866  0.1418  0.0905
29513W        W42927   1.969   6.098  10.687  0.0215  0.0364  0.0417
29514W        W42928   2.528   7.724   4.390 -0.1145  0.0986  0.0490
29515W        W42929  12.383   5.201   2.111  0.2991  0.1690  0.4052
29516W        W42930  17.164   4.961  15.374  0.3840 -0.0523 -0.0612
29517W        W42931   4.291   3.918   0.248  0.1625  0.0506 -0.1072
29518W        W42932  11.915  11.584  14.352 -0.0423  0.1290 -0.1872
29519W        W42933  12.367   6.348  15.750  0.1188 -0.1271  0.0312
29520W        W42934   0.157   8.053  10.759  0.3532  0.0626  0.4997
29521W        W42935  17.730   6.977   4.464 -0.2074 -0.0130 -0.3877
29522W        W42936   3.485   1.250  12.001  0.1208  0.2209  0.0137
29523W        W42937   7.416  17.901  14.466 -0.2318 -0.4587 -0.1696
29524W        W42938  11.238   5.827   6.081 -0.0599 -0.2190  0.1488
29525W        W42939  11.994   8.069   5.875  0.1908  0.1788 -0.2923
29526W        W42940   9.237   2.290  10.824  0.2679 -0.0235 -0.1563
29527W        W42941   3.968  13.701   4.432 -0.0891 -0.5090  0.1558
29528W        W42942   0.101  15.507   2.604  0.0451  0.2765 -0.2099
29529W        W42943  12.596  18.289  11.993  0.3541  0.1189 -0.5498
29530W        W42944  16.822   6.718  11.128 -0.0762  0.2232  0.0742
29531W        W42945   3.799  13.005  15.446 -0.0819 -0.1171  0.0123
29532W        W42946   2.392   1.581   2.284 -0.0485  0.1213 -0.1903
29533W        W42947   0.635   6.807   3.247  0.1014 -0.0021 -0.0628
29534W        W42948   0.825  11.707   1.981  0.2241  0.0944 -0.0190
29535W        W42949   4.382   2.028  15.845 -0.2368 -0.0721  0.1914
29536W        W42950   6.820   7.165  11.292 -0.3542  0.1010 -0.0829
29537W        W42951  10.426   7.382   0.542 -0.0947  0.0286  0.0413
29538W        W42952  11.300  16.704   3.613  0.3359 -0.2031 -0.2192
29539W        W42953   5.510   0.289   4.551  0.2637 -0.0490 -0.4126
29540W        W42954   8.424  14.862  11.669 -0.2885  0.1752  0.1247
29541W        W42955  12.038  10.879  15.161  0.2000  0.4091 -0.2706
29542W        W42956  16.881  11.115  15.481 -0.0526 -0.4875  0.0241
29543W        W42957   8.967   8.601  12.896  0.3551 -0.0192 -0.0995
29544W        W42958   0.677  11.386  12.942  0.0200 -0.0969  0.1182
29545W        W42959   3.979   7.190  15.186  0.2618 -0.2500  0.4435
29546W        W42960  16.977   4.012   4.510  0.2469  0.1226  0.0722
29547W        W42961  12.731   6.908  13.506 -0.1055 -0.2613  0.0468
29548W        W42962   1.462  13.801  12.717 -0.1533 -0.1838 -0.0996
29549W        W42963   9.434  13.493   2.341 -0.1174  0.1507  0.0889
29550W        W42964   7.394  14.487   0.962  0.0689 -0.2517  0.0295
29551W        W42965  16.719   0.274   0.425 -0.1412  0.0358  0.1964
29552W        W42966  17.711   9.428   4.363  0.0164 -0.2989  0.3753
29553W        W42967   8.497  15.057   5.489 -0.1185  0.2426  0.0198
29554W        W42968   7.198  18.437   0.786  0.1220  0.0304 -0.0032
29555W        W42969  14.786   4.625  12.912 -0.2325 -0.2678 -0.0224
29556W        W42970  13.525  12.526  11.455  0.0078  0.3157 -0.1226
29557W        W42971   1.519   7.561   4.630 -0.2438  0.0828 -0.1216
29558W        W42972   2.716   9.506   4.728  0.1689 -0.1696 -0.1463
29559W        W42973  16.394  14.326  16.010 -0.2490  0.2269 -0.0168
29560W        W42974   4.675  13.171  15.549 -0.1869  0.1185  0.0042
29561W        W42975   6.788  13.356  13.196 -0.1672 -0.1339  0.3291
29562W        W42976   8.946   7.972  11.010  0.0263  0.2873  0.2085
29563W        W42977  10.113  11.618  15.401  0.0129 -0.2829 -0.1006
29564W        W42978   5.266   6.573  13.744  0.0286 -0.1725 -0.2175
29565W        W42979   7.760   6.379   1.238 -0.0421 -0.1320 -0.2049
29566W        W42980  11.385  18.349   1.686  0.1071 -0.1391  0.2102
29567W        W42981   8.669  16.100  12.744 -0.1375 -0.0111 -0.1158
29568W        W42982  11.722  17.536  10.593  0.2763  0.0447 -0.2902
29569W        W42983   8.855   1.786   0.778 -0.0032  0.0605  0.0151
29570W        W42984   3.586   9.032   2.137 -0.0543  0.1266  0.0376
29571W        W42985  13.333  15.517   1.127  0.2675  0.0563  0.3195
29572W        W42986  17.024  11.992  13.173  0.0200  0.1372 -0.0101
29573W        W42987   3.143  18.122  13.407  0.1221 -0.3912 -0.2590
29574W        W42988  17.518  17.367  11.574  0.1312  0.0184 -0.0148
29575W        W42989  18.324   9.197  11.309 -0.0783 -0.1252  0.0359
29576W        W42990   4.923  12.376   2.354  0.1347  0.1406 -0.2701
29577W        W42991  14.456   9.631   2.724  0.0721  0.1422  0.1478
29578W        W42992   3.803   2.791   3.338  0.2169  0.1835  0.0668
29579W        W42993  13.458   9.133   1.740  0.0772 -0.2643  0.2035
29580W        W42994   2.570  13.335  11.766 -0.2435  0.0707 -0.2147
29581W        W42995   7.613   2.561  10.977  0.1435  0.0667  0.0702
29582W        W42996  14.496  13.794  11.298 -0.3326 -0.0577 -0.3009
29583W        W42997  11.093  15.543   1.738  0.0752  0.0520  0.3195
29584W        W42998   7.259   4.674   1.873  0.1308  0.1209 -0.1489
29585W        W42999  14.013   3.687   3.710 -0.0473 -0.3378  0.5251
29586W        W43000   3.157  12.842   5.748  0.3246 -0.1321  0.1867
29587W        W43001   3.044  11.397   5.232 -0.1351 -0.0514  0.0798
29588W        W43002   0.909  17.740   5.514 -0.3298  0.1177  0.2761
29589W        W43003   3.625  12.131   2.407  0.0230  0.0110  0.0091
29590W        W43004  11.211  10.227   4.911  0.0452 -0.3169 -0.1128
29591W        W43005  12.695   7.790   1.855  0.1644 -0.2160 -0.0496
29592W        W43006   2.238  15.481   0.100 -0.1116  0.2989  0.0597
29593W        W43007  12.535   0.276  12.023  0.1309 -0.0629 -0.2019
29594W        W43008   0.424   2.950  14.716 -0.0103  0.2434  0.0150
29595W        W43009   3.334  14.011  12.521  0.0307  0.0821  0.0480
29596W        W43010   9.722  17.318  11.053 -0.0400 -0.1287 -0.1438
29597W        W43011   5.505   2.270   3.662 -0.0269 -0.1980 -0.3276
29598W        W43012  12.462   2.829  13.083  0.0725 -0.0936 -0.0198
29599W        W43013   4.583   0.729  14.809 -0.2122 -0.2003 -0.0477
29600W        W43014  15.409   5.920   5.628  0.0248  0.0529  0.0183
29601W        W43015   3.434   6.623   5.431  0.4204 -0.1396 -0.1798
29602W        W43016  17.518  17.313   6.367 -0.0943 -0.2188 -0.0275
29603W        W43017   9.358  10.366  15.541  0.0083 -0.0563 -0.1872
29604W        W43018   5.935   7.784  14.154 -0.0640  0.2530 -0.0193
29605W        W43019  10.907  16.605  12.033  0.1141 -0.2364  0.1470
29606W        W43020  17.647   1.339  13.133  0.1434  0.1865  0.1275
29607W        W43021   7.970   7.253  13.797 -0.2365 -0.1306 -0.1394
29608W        W43022  13.326  12.522   6.096  0.1519  0.1420 -0.0596
29609W        W43023  11.338   5.792   3.445 -0.2916 -0.0488 -0.3371
29610W        W43024  10.459   3.806  14.058  0.2267 -0.2462 -0.4073
29611W        W43025   9.751  11.055  11.902 -0.1230 -0.2440 -0.0586
29612W        W43026  14.037  13.100  12.169 -0.1113  0.0470  0.2147
29613W        W43027   9.593   2.894   5.500  0.1049  0.3565  0.1441
29614W        W43028   0.153  11.536  12.192  0.1262 -0.0483 -0.0970
29615W        W43029   2.374   4.046  10.649  0.5552 -0.3358  0.2656
29616W        W43030   9.279   8.789   1.047 -0.1764  0.1548 -0.1840
29617W        W43031   0.581   9.245   1.992 -0.1022 -0.1250 -0.2007
29618W        W43032  14.893  17.464   5.251 -0.0413  0.0138  0.0508
29619W        W43033  16.944  15.253  15.110 -0.3885 -0.1335  0.0757
29620W        W43034  18.293  16.116   0.161 -0.0621  0.5525  0.1739
29621W        W43035  13.403   2.146   0.647  0.5509  0.0495  0.0134
29622W        W43036  14.898  12.799  15.926  0.1775  0.0554  0.1888
29623W        W43037   0.642   7.507  16.229  0.3200 -0.3270 -0.1344
29624W        W43038  14.970   8.357  13.440 -0.1400  0.2142 -0.0725
29625W        W43039  11.122   0.858   0.761  0.1487 -0.2304 -0.0763
29626W        W43040  14.724  10.613   2.298  0.1354  0.1785 -0.1287
29627W        W43041   3.796   9.107  15.692 -0.2938  0.2077 -0.2560
29628W        W43042  17.615   9.428   5.364  0.1465  0.2286 -0.3138
29629W        W43043  14.993   8.860  13.350 -0.2282  0.2401 -0.0313
29630W        W43044  15.225   0.802   4.477  0.1127  0.0950 -0.1105
29631W        W43045   1.559   5.595  11.120 -0.1115  0.2586  0.0031
29632W        W43046   1.087   0.664  12.847 -0.0659 -0.2218 -0.1713
29633W        W43047   4.307  14.407  15.392 -0.1182  0.0533 -0.0170
29634W        W43048   3.274  18.043  11.311  0.2507 -0.2575  0.1440
29635W        W43049  10.435   8.221   2.345 -0.0177 -0.0932  0.0531
29636W        W43050  17.910   4.877   1.278 -0.3634  0.1639 -0.1725
29637W        W43051   8.284   2.255   2.110  0.0464 -0.2382  0.2118
29638W        W43052   6.820   6.252  15.117 -0.4414 -0.2299 -0.3322
29639W        W43053  10.480  16.337  10.277  0.1314 -0.1134  0.0684
29640W        W43054   0.122   0.004  13.387 -0.0781  0.3011  0.0080
29641W        W43055  17.104  12.263  13.706  0.2907  0.0058 -0.1548
29642W        W43056   4.112   5.739  14.766  0.1995 -0.1134 -0.2471
29643W        W43057   0.229   5.701  14.552 -0.0877  0.0924  0.1759
29644W        W43058   0.910   0.044   0.450 -0.1442 -0.1186  0.1559
29645W        W43059  10.016   8.841  11.810  0.0107  0.1120 -0.2480
29646W        W43060   5.889   4.614   4.611  0.2875 -0.2231  0.1177
29647W        W43061   3.330   9.263   0.272  0.1652  0.2719  0.2169
29648W        W43062  17.544   8.225   5.828  0.2349 -0.0346 -0.2793
29649W        W43063   7.353  12.850   1.237 -0.1582  0.1035  0.0849
29650W        W43064  11.756  14.802  14.475  0.0066  0.2886 -0.0924
29651W        W43065   2.151  16.574  11.137  0.2239  0.1183 -0.1966
29652W        W43066  14.872  16.569  10.132 -0.0598  0.4400  0.4566
29653W        W43067  12.030   9.131  12.569  0.1599 -0.1564  0.2939
29654W        W43068   9.778  15.317  10.658  0.1179  0.2043 -0.0196
29655W        W43069  13.014   3.927   1.355 -0.2398 -0.0925  0.1187
29656W        W43070   6.934  14.646   3.861  0.1939 -0.3750 -0.0774
29657W        W43071   7.219  11.172   6.317 -0.2576 -0.2165  0.0479
29658W        W43072   8.150  11.006   0.456  0.1240 -0.1604 -0.3486
29659W        W43073  17.816   0.663   3.449 -0.1396 -0.3135 -0.0233
29660W        W43074   7.853  10.189   1.100 -0.0600 -0.1646 -0.2891
29661W        W43075   4.866  15.198   4.409 -0.1744  0.0908 -0.1843
29662W        W43076   2.464  11.507  15.589  0.3162  0.1309  0.1318
29663W        W43077  16.613  17.947  10.876 -0.1383 -0.2136  0.0504
29664W        W43078   3.503  10.092  10.557  0.0118  0.3234  0.0193
29665W        W43079   4.807   6.669   1.221  0.1350  0.1940  0.1793
29666W        W43080   9.552  10.168   5.136  0.2160  0.1009  0.0064
29667W        W43081   6.674   7.368  13.569 -0.1764  0.0014  0.2527
29668W        W43082   7.253   7.774   0.189 -0.4688  0.2134  0.0919
29669W        W43083  17.191  11.363   3.564 -0.0911  0.3176 -0.2739
29670W        W43084   9.431  12.428   2.115 -0.0307 -0.0132  0.0391
29671W        W43085   7.612   0.866  14.559 -0.1882  0.1922  0.1671
29672W        W43086   6.176  16.812   5.076 -0.0867 -0.2982 -0.2594
29673W        W43087  17.196   6.483  12.004 -0.0694  0.1347 -0.0893
29674W        W43088  13.243   3.991   4.880 -0.1042 -0.2044 -0.2532
29675W        W43089  12.923   1.869   3.485 -0.1108 -0.0670  0.1987
29676W        W43090   7.084   5.026   2.436 -0.0092  0.1310  0.1472
29677W        W43091  17.458   7.641   1.067 -0.1227  0.1639 -0.2757
29678W        W43092  15.572  13.041  11.339 -0.2047 -0.0648 -0.3629
29679W        W43093  15.162   6.184  14.948  0.1958  0.5225  0.5026
29680W        W43094  12.319   5.330  11.690 -0.0827  0.2208 -0.2400
29681W        W43095   2.187  18.487   4.876 -0.1804 -0.0771 -0.1168
29682W        W43096   8.469  13.335  12.118  0.1167 -0.0039  0.0460
29683W        W43097  17.671   0.621   5.695 -0.0171  0.3081  0.3742
29684W        W43098   9.881   6.337  15.158 -0.0501  0.0983 -0.2400
29685W        W43099   3.864   3.769   2.067 -0.3260  0.0025  0.1128
29686W        W43100  14.588   2.817  10.558 -0.1994  0.1599 -0.0680
29687W        W43101  10.972   1.832   2.025 -0.1714  0.1777 -0.1711
29688W        W43102   1.091  10.892  10.543  0.0391 -0.1077  0.0065
29689W        W43103   2.958   4.096   2.015  0.1391  0.3582 -0.0653
29690W        W43104  15.219  13.299   1.145 -0.1590  0.0194  0.1154
29691W        W43105   0.663  16.582   1.424 -0.0096 -0.1971  0.1016
29692W        W43106   6.628   9.040   2.209  0.0880 -0.0732  0.0446
29693W        W43107  17.907   8.336  12.428  0.1330 -0.0623  0.3028
29694W        W43108   7.327  13.598   1.268  0.0125  0.0578  0.0451
29695W        W43109   9.734   2.851  11.540 -0.2066 -0.1840  0.3042
29696W        W43110   3.285  10.978  11.927 -0.0115 -0.0934 -0.0629
29697W        W43111   4.632   9.393  10.485 -0.3376 -0.0222 -0.5191
29698W        W43112   3.359  14.375  15.052 -0.2246 -0.1912  0.1959
29699W        W43113  17.390  14.657  16.209  0.1566  0.1507  0.0214
29700W        W43114   6.425   3.664  12.290  0.0142  0.0694 -0.4424
29701W        W43115   9.165  17.671  12.520  0.0831 -0.0296  0.0916
29702W        W43116  15.197  14.648  13.249  0.1021  0.2865 -0.1569
29703W        W43117   7.637  17.967   1.585  0.2477  0.2579 -0.1813
29704W        W43118   5.506  17.390  12.116 -0.0622  0.0090  0.2038
29705W        W43119  12.386   4.935   4.458 -0.1177 -0.1781  0.3248
29706W        W43120  11.009  17.565   3.510 -0.1387  0.0223 -0.0575
29707W        W43121   9.813   9.049  10.963  0.3039 -0.2668 -0.2057
29708W        W43122   5.826   2.982   1.070 -0.1798  0.1947  0.1326
29709W        W43123   6.620  12.266   2.479  0.1395  0.0480 -0.1313
29710W        W43124   2.503  11.328   2.399 -0.4422 -0.3462  0.0883
29711W        W43125  17.002   3.021  11.560 -0.0470  0.1437 -0.1632
29712W        W43126  12.087  10.321   4.993  0.1180  0.1680  0.2851
29713W        W43127  11.151  14.902   0.241  0.2961 -0.1377 -0.0712
29714W        W43128  16.701   6.345   2.276  0.1951 -0.0175 -0.0093
29715W        W43129   1.320   7.807  13.276  0.2557 -0.0807  0.0971
29716W        W43130  10.065  16.991  14.928  0.2251  0.0446  0.0587
29717W        W43131   7.178  12.743  12.298 -0.1303 -0.1730  0.0128
29718W        W43132   9.971   0.318  11.391 -0.0359  0.0391 -0.0967
29719W        W43133   6.585   4.364   6.312  0.0363  0.0283  0.3394
29720W        W43134   9.565  18.366   0.216 -0.1589  0.4374 -0.2169
29721W        W43135  17.770  12.704  15.168 -0.1877 -0.2873  0.3736
29722W        W43136  10.361  17.578  14.392 -0.0039 -0.1745  0.0629
29723W        W43137  10.264   7.132   2.017  0.3808  0.0595 -0.4744
29724W        W43138  12.779   4.032   4.556  0.1504 -0.0150  0.2866
29725W        W43139   6.339  15.920   0.386  0.0931 -0.1178  0.1202
29726W        W43140  12.992   8.990   1.530 -0.0253  0.0571  0.1763
29727W        W43141  17.497  13.375   2.840  0.0969 -0.0582  0.2996
29728W        W43142   2.621   8.956   1.332 -0.1857  0.0063 -0.0184
29729W        W43143   2.012  13.582   0.634  0.1734 -0.1800  0.3622
29730W        W43144   6.616   5.550   5.099  0.0989 -0.1090 -0.1950
29731W        W43145   0.982  17.548   3.081  0.0754  0.1549 -0.3038
29732W        W43146  14.828  15.602   4.782  0.0283  0.1566 -0.1424
29733W        W43147   3.794  17.996   5.811 -0.2745  0.1565 -0.0100
29734W        W43148   3.224   2.103   3.249  0.3110 -0.0717  0.0845
29735W        W43149  12.212  13.535  10.642 -0.0824 -0.2324 -0.2024
29736W        W43150   4.593  14.668  11.876  0.0038  0.0335 -0.1813
29737W        W43151   3.859  11.428  16.175 -0.2726  0.2303 -0.1121
29738W        W43152   0.169  12.045   5.195 -0.1871  0.0255 -0.0078
29739W        W43153   7.545   0.717   3.602 -0.4170 -0.2681  0.0041
29740W        W43154  11.849   9.719  10.647  0.2066 -0.1704 -0.1985
29741W        W43155   5.027   8.016  14.813  0.2264 -0.0341 -0.0113
29742W        W43156  14.364  16.355   6.160  0.2432  0.2224 -0.1273
29743W        W43157  14.995  11.246   2.801 -0.0438 -0.1403 -0.1509
29744W        W43158  10.021   5.322  10.356 -0.0473  0.1434  0.0682
29745W        W43159   0.458   2.660   2.332  0.1448  0.0177  0.2169
29746W        W43160   2.272   9.197   1.067 -0.0253 -0.0796 -0.1966
29747W        W43161   1.852   5.744  14.386  0.1630  0.1341 -0.0312
29748W        W43162   8.941  15.998   0.096  0.2257  0.0380  0.1215
29749W        W43163   7.331   7.209   1.536  0.0570  0.1663 -0.1742
29750W        W43164  13.667  18.264  12.465  0.0409  0.2090  0.1241
29751W        W43165  13.545  11.750   0.858  0.1977 -0.2286  0.0294
29752W        W43166  18.122  11.817   2.708 -0.1468 -0.1753 -0.0024
29753W        W43167   1.501  11.012   2.275 -0.3994 -0.1002 -0.0429
29754W        W43168   5.554   2.491  15.555  0.3915  0.1489  0.1925
29755W        W43169   0.523   1.599   1.445 -0.0394 -0.2538  0.3685
29756W        W43170  12.548  12.351   0.577 -0.0132  0.2190 -0.0958
29757W        W43171  12.788  13.514  12.263  0.0310 -0.1986  0.0529
29758W        W43172   7.530  10.828  14.314 -0.0341  0.0332  0.2922
29759W        W43173  14.135   6.772  13.790  0.1050  0.0209 -0.1396
29760W        W43174  12.148   5.110   6.166  0.1996  0.0077  0.0765
29761W        W43175   9.410  15.682  10.194 -0.0559 -0.0096 -0.2325
29762W        W43176  16.867  13.110   4.153  0.1975 -0.1684  0.0054
29763W        W43177  11.739   1.486   1.057  0.2849 -0.0051  0.1005
29764W        W43178   2.703   2.174   3.642  0.0765  0.1018 -0.0494
29765W        W43179  11.465   6.055  12.552  0.0134 -0.0187  0.0113
29766W        W43180  13.107   9.228   4.452 -0.3300  0.0349  0.0782
29767W        W43181  15.490   8.415  11.647  0.4068 -0.1317 -0.0904
29768W        W43182  15.355  13.975   4.404 -0.1578 -0.0906 -0.0916
29769W        W43183  13.849  16.744   4.866  0.3096  0.1161 -0.0039
29770W        W43184  12.320  12.080  14.797  0.3104 -0.0267  0.1283
29771W        W43185   5.926   6.734  10.818  0.1267  0.0045  0.1562
29772W        W43186   3.252   7.941  11.023 -0.0658  0.3538  0.1970
29773W        W43187   8.912  16.560  10.884 -0.0086  0.0147 -0.1516
29774W        W43188   7.089   1.046   3.502  0.0545 -0.2297  0.2701
29775W        W43189  13.672  14.489  10.537  0.0609  0.3815 -0.0532
29776W        W43190   0.859  10.502  10.352 -0.0479 -0.1649  0.1723
29777W        W43191   1.607   0.710  11.200 -0.0545 -0.1959  0.1599
29778W        W43192   3.468  16.701  14.255 -0.2125 -0.0858  0.3665
29779W        W43193  10.237  18.283   1.427  0.3581 -0.2547 -0.1500
29780W        W43194  14.007   2.954   5.856 -0.1858  0.1019 -0.1888
29781W        W43195   4.833  10.136  13.697  0.1092  0.3289  0.0957
29782W        W43196  15.608   0.560  11.429  0.1890  0.1413  0.4200
29783W        W43197  18.424  12.655  13.045  0.2672 -0.4021 -0.2828
29784W        W43198  10.955  14.177  12.665 -0.1481  0.0574  0.1142
29785W        W43199  14.909   5.166   3.566 -0.2325 -0.0860  0.2390
29786W        W43200  14.486  10.394  15.309  0.4676  0.0218  0.0975
29787W        W43201   8.024  10.722  12.248 -0.1656  0.0343 -0.2092
29788W        W43202   6.376  12.352   5.450  0.0405 -0.1367  0.1946
29789W        W43203  17.622  16.300   2.573 -0.2262 -0.0368  0.2593
29790W        W43204   7.281   1.718  16.199  0.2274  0.0355 -0.0032
29791W        W43205  13.003   1.555   0.947 -0.0696 -0.0209 -0.4669
29792W        W43206   1.445   6.519   3.359 -0.0703 -0.1517  0.1224
29793W        W43207  18.467   4.424  13.463  0.2160  0.0128  0.1742
29794W        W43208  12.221   2.245  14.592  0.0295 -0.2927  0.0999
29795W        W43209  13.481   7.484   3.397  0.2666  0.0503  0.0927
29796W        W43210  18.441   7.294  13.010  0.0663 -0.0654  0.0375
29797W        W43211   6.181   2.207  12.841  0.0016  0.1175 -0.0193
29798W        W43212  11.542  12.438   1.587 -0.0207 -0.0547 -0.1688
29799W        W43213  17.779   0.814  15.107  0.1799  0.2601 -0.1709
29800W        W43214  11.941  12.439  12.145  0.3176  0.0662  0.2402
29801W        W43215   5.110  18.115   4.128 -0.1846 -0.4135 -0.1859
29802W        W43216  14.796  15.378   4.344  0.0809 -0.0519  0.2708
29803W        W43217  17.392   4.176   2.011 -0.1471 -0.2202  0.1810
29804W        W43218   1.819   7.691  10.673  0.1309  0.0883  0.0341
29805W        W43219   7.756   2.128  13.439 -0.3727  0.3501  0.1732
29806W        W43220   8.091  12.565  15.823 -0.1546 -0.1964 -0.0250
29807W        W43221   3.718  12.396   2.019 -0.2198 -0.0418 -0.2090
29808W        W43222   9.855  12.966  13.713  0.1316 -0.0865 -0.3889
29809W        W43223   2.916   5.521  14.634 -0.1068 -0.2787 -0.0833
29810W        W43224   5.743   6.131   4.222  0.2250 -0.0521  0.3533
29811W        W43225   7.789   5.385   3.607  0.0262 -0.3078 -0.1507
29812W        W43226  13.345  12.794   5.017  0.0570 -0.1122  0.1839
29813W        W43227   0.047  11.660   4.229 -0.1175 -0.3283  0.1262
29814W        W43228  14.947   0.177   5.645 -0.1461  0.0955 -0.1086
29815W        W43229   5.642  16.661   1.635 -0.2059  0.0133 -0.0039
29816W        W43230   0.879   1.944  15.608 -0.1208  0.0993 -0.2422
29817W        W43231   2.842   4.371   0.740 -0.2122  0.0671  0.0093
29818W        W43232  11.506   7.785   6.136  0.4294  0.0604 -0.0901
29819W        W43233  12.428  11.827  12.783  0.1053  0.1390 -0.0353
29820W        W43234  18.212  14.035  12.797 -0.0848  0.1217 -0.4663
29821W        W43235  11.735  13.167  16.136  0.1510 -0.3679  0.0323
29822W        W43236  11.422   1.747  15.030  0.0861  0.0597 -0.0335
29823W        W43237   5.033  10.049   9.859 -0.2742  0.1192  0.0575
29824W        W43238  14.972   0.568  13.292 -0.0039 -0.0669  0.1501
29825W        W43239  15.248  10.905   3.597 -0.2251 -0.1928 -0.0403
29826W        W43240   1.361   6.090   0.290 -0.1057  0.1193 -0.2016
29827W        W43241  12.663   7.477  10.132  0.0419 -0.0294  0.2005
29828W        W43242   1.387   1.478  12.577 -0.2944  0.1675 -0.0697
29829W        W43243  11.874  13.364  11.104  0.4258  0.3835  0.1325
29830W        W43244  11.112  10.627   0.221  0.0528  0.1743  0.2301
29831W        W43245  11.325   1.080   0.422 -0.2696  0.2984 -0.1915
29832W        W43246   5.037  11.512  11.441  0.1562  0.0331 -0.2021
29833W        W43247  10.976   2.629  13.666 -0.1349 -0.1373 -0.0015
29834W        W43248  13.621  15.078   4.247 -0.3504  0.2085 -0.1364
29835W        W43249  10.041  12.931   0.703 -0.1354  0.0842 -0.1205
29836W        W43250  13.283   2.814   6.375  0.1243  0.3729  0.0033
29837W        W43251  17.924   6.029  11.103 -0.1074  0.0772 -0.0642
29838W        W43252  16.463   0.252   1.990 -0.0374  0.2073  0.2467
29839W        W43253  14.536   1.043   5.295 -0.1963  0.1234 -0.3250
29840W        W43254  13.122  10.561  12.739  0.2337 -0.1054 -0.0768
29841W        W43255   2.619   2.926  11.339 -0.2241  0.0023  0.1645
29842W        W43256   9.391   9.773   4.262  0.1345  0.0082  0.1231
29843W        W43257   6.312  17.399   2.442  0.1307  0.1668 -0.2014
29844W        W43258   9.761   4.089  12.605  0.1281  0.2887 -0.1792
29845W        W43259  14.928   1.900   5.714 -0.4047  0.2101  0.3819
29846W        W43260  14.483  13.507   1.490 -0.2719  0.1512 -0.4373
29847W        W43261  12.936  17.110  15.339 -0.0863 -0.2994 -0.1149
29848W        W43262  17.079   8.820  16.170  0.0227 -0.0158 -0.1749
29849W        W43263   9.663   1.518   2.234 -0.0798 -0.2369  0.1114
29850W        W43264   5.258  15.934  11.825  0.0726  0.1653  0.3392
29851W        W43265  14.979  16.696   6.268 -0.1190  0.3301 -0.0543
29852W        W43266   9.246   4.650  16.145  0.2282  0.0940 -0.1999
29853W        W43267  11.572  15.976   5.321  0.2062 -0.4015 -0.2946
29854W        W43268   3.113   1.388   6.546  0.1349  0.1933  0.2327
29855W        W43269   7.804   2.600  14.190  0.2545  0.0065  0.1061
29856W        W43270   5.304   4.900   1.345  0.3288 -0.1588  0.1062
29857W        W43271   9.721  14.020   3.783 -0.0443  0.0578 -0.1023
29858W        W43272   7.793   3.472   3.185  0.0992  0.2568 -0.5396
29859W        W43273  11.510   5.761  13.462  0.2524  0.2112 -0.1468
29860W        W43274   0.449  13.844   1.989 -0.0733 -0.3051 -0.0627
29861W        W43275  10.428  12.264  13.558 -0.4035  0.0716 -0.2730
29862W        W43276   4.543   7.448   3.801  0.1993  0.2354 -0.2093
29863W        W43277  14.813   7.346  14.535 -0.0906 -0.1264 -0.1194
29864W        W43278  15.096  17.012  11.150 -0.1058  0.2701 -0.1664
29865W        W43279   7.241  15.262  15.542 -0.3972 -0.1486  0.2389
29866W        W43280  12.709  15.236  16.245  0.0476  0.1751 -0.0430
29867W        W43281  14.811  10.031   1.494  0.0413 -0.2194 -0.0106
29868W        W43282   6.884   2.232  13.956 -0.1185  0.0541 -0.0443
29869W        W43283  10.365   5.734   0.865  0.1253  0.0668 -0.1562
29870W        W43284  12.019  11.732   0.963  0.1525  0.2846  0.0681
29871W        W43285   7.308   9.430  15.445 -0.0075  0.0260  0.1150
29872W        W43286  15.407   7.492   4.611 -0.2779  0.0465 -0.0508
29873W        W43287  12.860  13.382  14.776 -0.1968 -0.0363  0.0559
29874W        W43288   6.459  17.228   1.952 -0.0392 -0.1611 -0.0817
29875W        W43289   7.491   1.240  11.426  0.0433 -0.5146  0.0078
29876W        W43290  10.983  17.527  14.941  0.0322  0.0709  0.3286
29877W        W43291  14.986  11.428  12.829 -0.1220 -0.2291 -0.0212
29878W        W43292  18.411  13.052   1.803  0.1884 -0.0955 -0.1238
29879W        W43293  13.777  15.472  14.883  0.0726 -0.0249  0.0574
29880W        W43294   8.597   5.716  13.277 -0.0124 -0.0341  0.2352
29881W        W43295  17.462   9.633  13.729 -0.0086  0.1527  0.1412
29882W        W43296   5.390  18.014  15.758 -0.1553  0.0780 -0.0431
29883W        W43297   3.281   5.071   1.642  0.1685  0.0570 -0.3339
29884W        W43298  11.003   0.977  12.638  0.1453  0.1077  0.0152
29885W        W43299  14.391   8.873   3.530  0.0506 -0.0210 -0.1098
29886W        W43300   8.055   5.643  13.235  0.0475 -0.0499 -0.3295
29887W        W43301   3.556  16.279   2.888  0.0074 -0.0618 -0.0844
29888W        W43302   7.188  17.576  15.713  0.1371 -0.2172 -0.0972
29889W        W43303   4.139  17.157   0.327 -0.2289 -0.0495  0.0185
29890W        W43304  18.246   6.840  15.078 -0.0323 -0.0902 -0.1269
29891W        W43305  10.421  16.714  14.732 -0.1608 -0.1960  0.1739
29892W        W43306   8.058   1.295   4.823 -0.4234  0.1089  0.0796
29893W        W43307  18.307   5.573  10.380  0.0261 -0.3774  0.1972
29894W        W43308  11.528  12.986   5.354  0.1696 -0.3622  0.2130
29895W        W43309  17.004   5.971   2.485 -0.3591 -0.0351  0.1134
29896W        W43310   0.768   3.618   0.688  0.0484  0.1204 -0.2593
29897W        W43311  17.217   6.315   4.124 -0.2114  0.1731 -0.0291
29898W        W43312  17.686   8.122   1.422  0.0269 -0.2708 -0.0334
29899W        W43313   8.171  15.646   2.954 -0.1051  0.0941  0.0542
29900W        W43314   2.196   2.440   3.813  0.1162 -0.1530 -0.1196
29901W        W43315  17.451   6.756  10.717  0.2572  0.0163  0.0826
29902W        W43316   7.734   8.207  12.400 -0.1542 -0.1968  0.0545
29903W        W43317  11.132   2.596  11.621 -0.1879 -0.1253  0.0739
29904W        W43318  10.566  13.149  15.578  0.0403  0.1422  0.4264
29905W        W43319  13.701  14.277  13.714 -0.1061 -0.0900 -0.2937
29906W        W43320  17.876   3.556  14.250 -0.0645 -0.2375  0.2158
29907W        W43321   2.889  10.528   2.196 -0.1459  0.1250  0.1248
29908W        W43322   8.015   7.474  16.089 -0.1369  0.0723 -0.0193
29909W        W43323  15.411   4.431  14.211  0.0009 -0.1268 -0.0508
29910W        W43324  15.206   4.912  13.039 -0.0253 -0.2559 -0.0697
29911W        W43325  18.482  11.835  14.583 -0.0935  0.0318 -0.1720
29912W        W43326   4.099  13.959  15.557  0.1152  0.0523  0.0981
29913W        W43327  15.644   2.280  15.518  0.1156 -0.0895  0.1670
29914W        W43328  11.985   3.572   4.711  0.0134  0.1329  0.1427
29915W        W43329   7.461  17.653  16.252 -0.1742 -0.3991  0.0520
29916W        W43330   0.574  14.164  12.416 -0.1064 -0.4433  0.3167
29917W        W43331  15.466   0.621   1.168 -0.0352  0.1090  0.0755
29918W        W43332  15.474  16.210  14.532  0.1526  0.2514 -0.0357
29919W        W43333  15.937  17.381   5.301 -0.2696 -0.4231  0.1359
29920W        W43334  11.473  14.219   5.272 -0.2016 -0.1992 -0.0978
29921W        W43335   7.344   2.312  10.656 -0.0066 -0.5796 -0.0949
29922W        W43336   2.657   9.728   0.064 -0.0061  0.0519 -0.1002
29923W        W43337   2.342  12.138  15.632  0.0713  0.1300 -0.3980
29924W        W43338  12.471  13.341   2.619 -0.2661 -0.1667 -0.2289
29925W        W43339  15.061  17.731  15.854  0.0374  0.1483  0.0539
29926W        W43340   3.509  11.314   1.972 -0.1747  0.1057  0.1343
29927W        W43341   9.834   5.022  11.372  0.0533  0.2656  0.1827
29928W        W43342   4.688  12.897  14.036  0.0146  0.3402 -0.0684
29929W        W43343   4.770  15.881  12.702 -0.1819  0.1251 -0.0808
29930W        W43344   9.534  15.390  15.866 -0.0547  0.2477 -0.1319
29931W        W43345   2.330   4.333  15.688 -0.0033 -0.4474 -0.1260
29932W        W43346   7.070  15.010  15.958 -0.0416 -0.1484 -0.1635
29933W        W43347  15.819  18.420  12.513 -0.3492 -0.4053  0.1053
29934W        W43348   6.043   7.719   1.868  0.2076 -0.2558  0.1035
29935W        W43349  14.510  17.284  14.850  0.0238  0.1430 -0.1111
29936W        W43350   2.521   9.939   4.802 -0.1646  0.0215 -0.2620
29937W        W43351   7.372   5.381  14.631 -0.1463  0.2259 -0.2015
29938W        W43352   1.115   2.124  11.021 -0.0037 -0.0844 -0.1245
29939W        W43353   4.612   1.095   3.965 -0.0629  0.0870  0.3937
29940W        W43354  10.450   8.605   5.119 -0.0241  0.1694 -0.1203
29941W        W43355   8.507  18.376   5.101 -0.1638 -0.1656  0.0832
29942W        W43356   5.736   7.551  15.131 -0.0107 -0.3482 -0.0878
29943W        W43357  11.076  12.494  15.007  0.0210  0.0656  0.1725
29944W        W43358  17.934   3.740  14.699  0.1746 -0.2109 -0.3316
29945W        W43359  16.347  11.374  11.038 -0.5069  0.0959  0.3351
29946W        W43360  15.748  13.419  15.192  0.2756 -0.1518 -0.0100
29947W        W43361  11.430   7.401   0.422 -0.2027 -0.1523 -0.1965
29948W        W43362   2.477  13.545   0.508 -0.1607  0.1155 -0.0360
29949W        W43363   1.706   3.227  15.183  0.2048  0.0542  0.1429
29950W        W43364   3.391   1.980  10.693 -0.1448 -0.0933 -0.2454
29951W        W43365   4.108  12.061   2.198  0.1074 -0.0888 -0.1970
29952W        W43366   6.889   2.115  13.248 -0.1905  0.0116  0.5104
29953W        W43367   7.927   8.197   4.582  0.3423  0.0461 -0.0655
29954W        W43368   5.228  11.600  14.285  0.1367 -0.0009  0.1603
29955W        W43369   6.536   6.657  13.364 -0.1217  0.4646  0.1965
29956W        W43370   6.727  12.668   3.290 -0.0506  0.2326  0.1190
29957W        W43371  10.914   4.292  12.694  0.0812  0.2566  0.1936
29958W        W43372   5.148  13.692  11.032  0.0345 -0.1831  0.2826
29959W        W43373   8.445   0.458   4.737  0.0059 -0.2665 -0.3278
29960W        W43374   0.427   5.071   5.472 -0.2914 -0.2124 -0.1096
29961W        W43375   5.534   0.625  12.789 -0.2233 -0.0353  0.0388
29962W        W43376  10.746   0.799  13.668 -0.1666 -0.0226  0.0130
29963W        W43377  15.854   5.569   3.709 -0.0559  0.0473 -0.1262
29964W        W43378   8.010   9.873   2.920  0.4439  0.0943 -0.0387
29965W        W43379  14.467  18.503   1.441 -0.0803  0.1335  0.2827
29966W        W43380   3.722   3.639  13.484 -0.0880 -0.0703  0.0133
29967W        W43381  11.041   0.013  15.223  0.0712 -0.2237  0.0789
29968W        W43382   5.066  14.271   3.714 -0.2095 -0.1375 -0.2386
29969W        W43383  16.909   6.671   3.992 -0.0722 -0.3253  0.3058
29970W        W43384   5.258  15.334  11.868 -0.2921 -0.1765 -0.2138
29971W        W43385  11.115   5.419   1.170 -0.0052 -0.0179  0.1831
29972W        W43386  15.141   0.619   2.593  0.0996  0.2363  0.0475
29973W        W43387  16.359   4.052   1.729 -0.1707  0.2419 -0.2617
29974W        W43388   1.274  10.479  11.933 -0.1175  0.0991  0.2566
29975W        W43389   3.842   1.046  12.637  0.1277 -0.0015  0.0119
29976W        W43390  11.368  13.132   3.830  0.5075 -0.1043 -0.1744
29977W        W43391   4.127   1.872  12.299  0.2772 -0.0799 -0.0661
29978W        W43392  10.084  14.097  11.197 -0.0141  0.2892  0.0117
29979W        W43393   7.079  15.942  16.129 -0.2431  0.0778  0.0489
29980W        W43394   3.595   2.119   0.202  0.0259  0.3104  0.0455
29981W        W43395  16.852   3.863   9.715 -0.2454 -0.3317 -0.0467
29982W        W43396   8.203  15.588  14.624 -0.0335 -0.0166  0.1975
29983W        W43397  12.393   1.484   6.296 -0.0746 -0.6452 -0.0401
29984W        W43398   1.638  10.956   0.957  0.2159  0.1530  0.2986
29985W        W43399   4.926   4.071   0.105  0.1509  0.1584 -0.0871
29986W        W43400   4.813   0.894   3.513  0.0468 -0.0163 -0.1479
29987W        W43401  14.289  15.919   5.730  0.1192  0.0563  0.3335
29988W        W43402  12.395   1.778   0.215  0.1621  0.0527 -0.2672
29989W        W43403   2.576   5.835   5.457  0.2216  0.0393 -0.2886
29990W        W43404   7.153   6.785   9.696  0.2305  0.0579  0.0253
29991W        W43405   5.395  10.005   0.301  0.1006 -0.0452 -0.1118
29992W        W43406  17.093  18.392   2.581 -0.2717  0.0217 -0.0184
29993W        W43407  14.206   2.722   1.576 -0.0479 -0.0143  0.0643
29994W        W43408  11.197   2.027  11.771 -0.0881 -0.2464  0.0887
29995W        W43409  15.625  10.959  12.427  0.0080  0.2716 -0.0765
29996W        W43410  18.126  17.431   3.253  0.0175  0.1063 -0.0435
29997W        W43411  13.739   4.762   4.454 -0.3221  0.1813  0.3944
29998W        W43412  10.027   4.828   5.845 -0.1132  0.1441 -0.1507
29999W        W43413  16.742  10.735   4.043  0.1217 -0.1076  0.1574
30000W        W43414   0.404   5.050   2.100  0.0648  0.0047 -0.4083
30001W        W43415   9.486  16.178   0.027 -0.0799  0.3212 -0.1471
30002W        W43416   4.586   7.147  11.728  0.3136 -0.1865 -0.1914
30003W        W43417   4.532   5.731   3.574  0.1303  0.4836  0.0864
30004W        W43418   5.768   0.535   1.873 -0.1785  0.0924  0.0941
30005W        W43419   0.296  15.743  10.555 -0.1003  0.1264  0.1337
30006W        W43420  12.295   1.031  10.226  0.0872 -0.2076 -0.1033
30007W        W43421   6.045  12.608  12.001 -0.3901 -0.2614 -0.1026
30008W        W43422  12.899  15.086  15.305 -0.1965  0.0612  0.0130
30009W        W43423   2.732   1.353   5.357  0.1174  0.4507  0.2516
30010W        W43424   8.923   3.899   2.141  0.0444  0.0725 -0.0554
30011W        W43425  15.544  17.638  10.509  0.0430  0.1838 -0.0843
30012W        W43426  17.671   7.784  14.753 -0.0541  0.0067  0.0584
30013W        W43427  14.373   1.769   3.900  0.1371  0.0172 -0.0461
30014W        W43428  16.636  14.351   2.193 -0.0105 -0.0487  0.1492
30015W        W43429  11.754  18.141   0.743 -0.1603 -0.1590 -0.1545
30016W        W43430   2.356   7.473   3.491 -0.3407 -0.2350 -0.0244
30017W        W43431   6.968  13.797   2.581  0.0243 -0.1666  0.0153
30018W        W43432   3.754   4.288  12.626  0.1155 -0.0035  0.2543
30019W        W43433  14.185   7.814  10.475 -0.0437  0.0412  0.0876
30020W        W43434   7.954   5.923   4.797 -0.0848 -0.0621 -0.1701
30021W        W43435  15.920  13.497   1.807 -0.3958  0.0699  0.0094
30022W        W43436  16.312   0.113   5.139  0.0797 -0.0056  0.1943
30023W        W43437  10.032   9.891  11.434 -0.2188  0.1811  0.0234
30024W        W43438  16.442   6.808   3.939 -0.4659 -0.0062 -0.4209
30025W        W43439  11.166  18.010  13.206  0.0987  0.1726 -0.4374
30026W        W43440  13.569   2.763   5.064 -0.6121  0.1429 -0.0668
30027W        W43441   0.588   3.225   4.615 -0.0117 -0.1714 -0.2232
30028W        W43442   4.328   6.729   5.857 -0.3062  0.3131 -0.0729
30029W        W43443  16.829  11.062   5.040  0.0402  0.0916 -0.2406
30030W        W43444  12.967   8.619  13.601  0.4993 -0.0366  0.1486
30031W        W43445  11.612  14.306  11.069  0.1080 -0.0677  0.3583
30032W        W43446  11.839  13.420   5.494 -0.0948  0.0341  0.1297
30033W        W43447   6.422   5.760  14.393 -0.0365 -0.5693 -0.1914
30034W        W43448   1.427  10.580   1.964 -0.1401 -0.1606 -0.1967
30035W        W43449  16.594  15.152   5.500 -0.0455  0.2487  0.0457
30036W        W43450   8.485   8.437   4.832 -0.2651 -0.0341 -0.2032
30037W        W43451  12.389   8.753  15.560 -0.2075 -0.2357  0.0275
30038W        W43452   8.478  11.909  12.370  0.0152  0.0767 -0.0033
30039W        W43453   1.634  16.092   5.633 -0.0353 -0.3748  0.1525
30040W        W43454   2.521   9.436  11.297 -0.0818 -0.0619 -0.1506
30041W        W43455  15.081  14.989   0.395  0.3251 -0.3447 -0.1747
30042W        W43456   4.662   7.290  10.163 -0.1122  0.0681 -0.0223
30043W        W43457  11.225  12.618  11.552  0.1474  0.1904  0.2321
30044W        W43458  14.314  10.629   4.124 -0.0221 -0.0271 -0.0262
30045W        W43459   2.033  17.989  15.300 -0.2055  0.1656 -0.0872
30046W        W43460  10.347   6.384   1.519  0.3477  0.1017 -0.3539
30047W        W43461   4.171   9.845   2.546 -0.3866 -0.1092  0.3563
30048W        W43462   4.899   5.934   2.952  0.3203 -0.1173  0.2813
30049W        W43463  12.264  13.019   1.235 -0.4019  0.2327  0.2077
30050W        W43464  17.629   3.951   4.919  0.1739 -0.2245  0.0808
30051W        W43465   6.623  10.773  13.852 -0.2829 -0.1654 -0.2365
30052W        W43466   4.296  13.391  16.241  0.2763 -0.3350  0.1387
30053W        W43467   2.881  17.148  15.475  0.3339 -0.1785 -0.2962
30054W        W43468  13.936  13.487   0.527 -0.0872 -0.2791 -0.0245
30055W        W43469   4.610  10.673  10.783  0.0258 -0.1592 -0.0849
30056W        W43470   6.431   9.922   1.767 -0.0911  0.1165 -0.2508
30057W        W43471  17.982  11.296  14.784  0.2536 -0.2500  0.0118
30058W        W43472  15.897  16.927  13.276  0.2290 -0.0442 -0.0051
30059W        W43473  17.333   4.881  11.143 -0.1244  0.2331 -0.0624
30060W        W43474   8.273   8.915   4.022 -0.2836 -0.0747 -0.0807
30061W        W43475  12.808   7.406  13.917 -0.4936  0.1025  0.1653
30062W        W43476   6.330   0.013   2.803  0.2533  0.0287  0.1831
30063W        W43477  12.604   2.203  10.178 -0.1005 -0.3034 -0.2615
30064W        W43478   1.913   9.082   3.066 -0.0810 -0.0360 -0.1397
30065W        W43479  16.635   5.731  14.591 -0.3112  0.1915  0.2858
30066W        W43480   7.283  15.816  14.853 -0.0163  0.0777  0.0707
30067W        W43481  16.983   4.469  10.490  0.0915 -0.0749  0.1105
30068W        W43482  15.746   3.130   6.147 -0.1152  0.1051 -0.1016
30069W        W43483  14.086  16.915   1.952 -0.0728  0.0241  0.0890
30070W        W43484   1.920   5.114   0.870 -0.1013  0.0487 -0.3136
30071W        W43485   3.850  10.693  11.133 -0.1125 -0.0883 -0.0927
30072W        W43486   7.386  10.641   6.200 -0.0926  0.0768  0.2354
30073W        W43487  16.453  11.935   2.909 -0.0867  0.0751 -0.4192
30074W        W43488   1.519  10.242   3.597 -0.1263 -0.1959 -0.0422
30075W        W43489   3.793   0.423  15.262  0.3400  0.1660 -0.0666
30076W        W43490  10.067  13.580   3.680  0.2510 -0.0069  0.0415
30077W        W43491   6.380   2.046  11.444  0.0356  0.1408 -0.2865
30078W        W43492   2.608   5.473   4.411 -0.1684  0.1384  0.2597
30079W        W43493   7.661   9.053   1.922 -0.1171 -0.0727 -0.2777
30080W        W43494   0.251  11.284   3.287 -0.0327  0.0418 -0.0161
30081W        W43495  16.809  11.291  16.001 -0.0970  0.0985  0.2478
30082W        W43496  15.131  17.374   4.846  0.0040 -0.0023 -0.0990
30083W        W43497   7.207   0.574  12.632 -0.0151  0.0355 -0.0499
30084W        W43498  10.348   9.445   0.408 -0.3646  0.0347 -0.2081
30085W        W43499   3.139   3.042  14.575  0.3036  0.0682  0.0275
30086W        W43500  10.699   6.434   5.129 -0.0998  0.0335  0.1082
30087W        W43501   0.482  12.047  11.264  0.1974 -0.1088  0.0824
30088W        W43502  11.490  13.219   0.466 -0.1542  0.0053 -0.2260
30089W        W43503  17.466   5.110  12.931 -0.0079  0.0802 -0.1903
30090W        W43504  14.769   1.891   4.908 -0.2138  0.3541  0.2008
30091W        W43505  11.159   0.171  11.608  0.0497  0.2207 -0.1265
30092W        W43506   7.898   9.549  14.057  0.1403  0.0301 -0.3426
30093W        W43507   9.496   1.647   5.902 -0.0608 -0.1904 -0.0047
30094W        W43508  15.498  17.019  12.222  0.1799 -0.1227  0.1269
30095W        W43509   6.812   5.185   0.268  0.1692  0.0600  0.3877
30096W        W43510  11.613   1.545  13.663  0.0934 -0.1830 -0.1694
30097W        W43511   6.713   1.554   0.746 -0.2085  0.1749 -0.0488
30098W        W43512   3.798   0.725   2.007  0.0813 -0.1304 -0.2469
30099W        W43513  15.803   7.502   1.894 -0.0566  0.1320 -0.0875
30100W        W43514  14.391   8.220  12.756  0.3631  0.1978  0.1067
30101W        W43515  17.111  16.153  13.607  0.0060  0.1384 -0.0129
30102W        W43516  16.262   1.544   1.759 -0.2177  0.0197 -0.2170
30103W        W43517   4.604   4.488   0.460  0.0782  0.2592 -0.1046
30104W        W43518   6.102  17.724  11.428 -0.1693 -0.0458 -0.0621
30105W        W43519   4.928  14.638   4.615  0.0423 -0.2635 -0.0206
30106W        W43520  17.467   6.163   0.659  0.0601  0.2444  0.0054
30107W        W43521   0.518  12.737   0.493  0.3162  0.0341 -0.1448
30108W        W43522   1.055   3.252  16.033  0.2410 -0.1847 -0.1339
30109W        W43523   8.616   2.120   5.828 -0.1630 -0.0478  0.2683
30110W        W43524  16.113   6.938   6.275 -0.1184  0.0135 -0.2025
30111W        W43525  17.523  15.956   4.488  0.0508  0.0067 -0.1053
30112W        W43526  17.526  12.545   3.487  0.2376 -0.0211  0.0196
30113W        W43527   9.017   2.062  13.026  0.3050 -0.1946  0.0641
30114W        W43528   1.312  16.112   2.208  0.0638 -0.1806  0.4690
30115W        W43529  12.615  15.121  13.161  0.1193 -0.1919  0.0234
30116W        W43530   8.741   8.183   6.051 -0.0388 -0.2025  0.0868
30117W        W43531   6.063  15.586  10.326  0.1287  0.0995  0.2738
30118W        W43532   1.355   0.852   3.614 -0.0668 -0.0354  0.3389
30119W        W43533  17.003   0.473  12.367  0.3416 -0.1196 -0.1365
30120W        W43534   3.513   1.563   3.869  0.0669  0.0486  0.0228
30121W        W43535   8.614  14.767  14.302 -0.3027 -0.2103 -0.1135
30122W        W43536   8.431  10.909   3.155 -0.2140  0.0306 -0.1845
30123W        W43537  10.496  16.724  13.076 -0.0855  0.0818 -0.2570
30124W        W43538   7.921  18.393   3.347 -0.0461  0.0175  0.0140
30125W        W43539   3.987  18.486  14.091  0.2969  0.0383  0.0208
30126W        W43540  11.674   3.250   0.224 -0.2932 -0.1667 -0.0905
30127W        W43541   4.862  10.235   6.063  0.0269 -0.1253  0.0143
30128W        W43542  16.632  15.083  12.905  0.2308  0.3639  0.0084
30129W        W43543  10.994   3.997   1.310  0.1955 -0.0977 -0.0171
30130W        W43544   5.182   0.673   4.677 -0.2033  0.1075  0.2108
30131W        W43545   6.681   7.886  16.240  0.1609  0.3702 -0.2610
30132W        W43546   2.534   8.536   4.304 -0.0661  0.2276 -0.1258
30133W        W43547   7.315   1.855  11.965  0.0051 -0.2426  0.1424
30134W        W43548   9.646   8.302  13.833 -0.2046  0.2223  0.1028
30135W        W43549   9.663   1.691   1.393  0.1377  0.0724  0.1887
30136W        W43550   3.031   7.723  13.432 -0.3064 -0.3062 -0.1441
30137W        W43551   1.464   2.535  11.935  0.0920  0.2571  0.0009
30138W        W43552  16.646  17.780  14.505 -0.2448 -0.2249  0.3157
30139W        W43553   8.008  17.770  10.993 -0.3713  0.0796  0.0266
30140W        W43554   9.646  11.001  10.733  0.0195 -0.0729  0.0535
30141W        W43555   6.354   6.014   2.524 -0.2546 -0.1381  0.0389
30142W        W43556   6.554   3.931  10.896 -0.1636 -0.1574  0.0262
30143W        W43557  16.692   8.431  12.932 -0.0124  0.3157 -0.0669
30144W        W43558  16.130  12.140  13.746 -0.3072  0.0611 -0.3124
30145W        W43559  16.627  12.646   2.455 -0.0270  0.1363  0.0055
30146W        W43560   4.034  16.975   4.878 -0.1696  0.1162 -0.1683
30147W        W43561   5.607   7.560   2.995 -0.2257 -0.1066 -0.2570
30148W        W43562   7.668  14.156  10.969  0.0435  0.1573  0.0710
30149W        W43563   8.086  14.764  15.237  0.1034 -0.0401  0.2487
30150W        W43564  17.653   3.656   4.014 -0.2265  0.1678  0.0295
30151W        W43565  14.196  10.238  14.696 -0.0226 -0.2641  0.4092
30152W        W43566   4.293  13.335  13.304  0.0009  0.1004 -0.0270
30153W        W43567  10.004  17.812   3.746 -0.4638 -0.2059  0.1360
30154W        W43568   1.927   4.114  11.675  0.0877  0.0762 -0.0286
30155W        W43569  15.699   4.779  11.240 -0.1139  0.1341  0.0418
30156W        W43570  13.701   2.856   1.907 -0.0884  0.1358 -0.3988
30157W        W43571  17.455   8.666   1.609 -0.1404 -0.0181 -0.0669
30158W        W43572   2.603   6.771   3.825  0.0527  0.0949 -0.0312
30159W        W43573   0.617  17.914   3.357 -0.1617 -0.1353  0.0745
30160W        W43574   2.380   5.712  13.709  0.1042 -0.0290  0.2418
30161W        W43575   5.184  14.742   4.229 -0.3034  0.0531 -0.1282
30162W        W43576  11.216   7.922   2.730 -0.1283  0.1266 -0.1233
30163W        W43577  14.264  10.564  11.306  0.0557  0.0946  0.0288
30164W        W43578   5.611  13.708  13.960 -0.1951 -0.0409  0.1207
30165W        W43579  13.038  17.654  14.621  0.1694  0.0297  0.3025
30166W        W43580  15.231   5.357   1.979 -0.1074 -0.1027  0.0115
30167W        W43581   1.098  17.374  12.576  0.3143  0.0324  0.0381
30168W        W43582   9.568   6.235   0.699 -0.0090 -0.1327  0.1644
30169W        W43583   2.540  15.896  12.242  0.2394 -0.1565  0.1998
30170W        W43584   5.989  10.070  14.337  0.1284 -0.1087  0.0201
30171W        W43585  15.325   0.209  13.353  0.2036  0.1356 -0.2244
30172W        W43586  11.731  11.024   5.437  0.1083 -0.3579  0.0493
30173W        W43587   7.983  18.075  15.312  0.1484 -0.1642 -0.1156
30174W        W43588   1.301  15.346   1.942 -0.0585  0.0186  0.0077
30175W        W43589  10.279  14.188  14.203 -0.0274 -0.4089 -0.0166
30176W        W43590  12.644  14.062   4.776 -0.1874 -0.0705  0.0554
30177W        W43591   6.314  13.509  10.316 -0.1345 -0.0804 -0.1942
30178W        W43592  16.460  14.595   0.524 -0.1037  0.1787  0.1294
30179W        W43593  16.376   5.882   1.215  0.1159 -0.3403  0.2601
30180W        W43594  12.215   1.447   0.928  0.1113 -0.0473 -0.1308
30181W        W43595   3.472   8.496  14.357  0.4567 -0.0160 -0.1210
30182W        W43596  11.287   2.070  12.372 -0.0538 -0.0614  0.2850
30183W        W43597   6.183  16.866  12.013 -0.1230 -0.0804  0.3654
30184W        W43598  18.104   3.834   3.806  0.0065  0.1579 -0.0397
30185W        W43599   8.480  14.495   1.529  0.2273  0.0473  0.1689
30186W        W43600  18.063  12.720  15.948  0.0806 -0.0859  0.4157
30187W        W43601   4.030   1.105   5.917 -0.0486 -0.2693  0.0631
30188W        W43602  12.925   9.221   5.430  0.0720  0.0173 -0.2367
30189W        W43603   6.216   1.644   2.128  0.3021 -0.2419 -0.0076
30190W        W43604  11.848  13.340  13.617 -0.1646 -0.0293 -0.1969
30191W        W43605   1.931   0.042  13.945  0.0811  0.0653  0.0687
30192W        W43606  13.876   9.694  11.382  0.1913  0.1053  0.2191
30193W        W43607   8.150  13.361   2.300  0.0752 -0.0656  0.0557
30194W        W43608  16.952   1.285   4.029 -0.1868  0.0896  0.0314
30195W        W43609   1.415  15.872  10.974  0.0259 -0.0805 -0.1046
30196W        W43610  18.462  11.129   3.661 -0.1635 -0.3592  0.3443
30197W        W43611  10.843  17.118  15.865  0.1998  0.2119  0.0138
30198W        W43612   7.696  17.821  13.998  0.3687  0.1879  0.2874
30199W        W43613   5.111  12.887  14.593  0.0662  0.0875 -0.3913
30200W        W43614  16.406  13.011  15.906  0.0472  0.1014  0.1013
30201W        W43615   7.228  15.963  10.338  0.1508 -0.0548 -0.2739
30202W        W43616  12.628  17.173   2.949 -0.1023  0.3319  0.1429
30203W        W43617   7.359   2.392   4.241 -0.3396  0.2576  0.1157
30204W        W43618  12.533  10.584  11.382 -0.0898  0.0367 -0.2787
30205W        W43619   5.676   9.364  13.525 -0.0364 -0.0362  0.0927
30206W        W43620   0.365  16.653  15.840 -0.3492  0.0724 -0.1459
30207W        W43621   2.355  14.778   4.944 -0.1587  0.1759  0.2402
30208W        W43622  16.946  15.959  14.573 -0.0144 -0.1063 -0.1464
30209W        W43623  11.011  14.615   1.466 -0.2233  0.3405 -0.1246
30210W        W43624   6.154  16.818   1.610  0.1808  0.1737 -0.0239
30211W        W43625  15.163   6.318  12.906  0.1868  0.1191 -0.0375
30212W        W43626   3.538  13.711  15.792 -0.0323  0.2612 -0.0927
30213W        W43627  13.152   0.996   6.146  0.0921 -0.1270 -0.0653
30214W        W43628   8.976   3.866   0.030 -0.2583  0.2956 -0.2144
30215W        W43629  13.059  10.836  12.157 -0.0246  0.1658 -0.1256
30216W        W43630   7.615   5.833  14.881 -0.1866 -0.1269  0.2823
30217W        W43631   6.479  14.887   0.074  0.1371 -0.2934  0.1569
30218W        W43632  12.865  11.671  11.557 -0.0865 -0.1332  0.0013
30219W        W43633  15.071   9.252   5.455 -0.4171 -0.1029  0.0583
30220W        W43634   8.756  13.354   0.572 -0.5834 -0.0648  0.0543
30221W        W43635   1.747   4.129   2.211 -0.2436  0.0300  0.1050
30222W        W43636   2.561   2.742   4.246  0.0571 -0.0503 -0.1253
30223W        W43637  10.497  10.252  11.450  0.0454 -0.1985  0.3212
30224W        W43638  16.282  15.028   3.345  0.0896  0.0699  0.0673
30225W        W43639  14.311  15.785   4.897 -0.0877 -0.3442  0.1299
30226W        W43640   8.698  12.638  10.518 -0.0849 -0.1183  0.0046
30227W        W43641  13.400  15.815  14.739  0.2367 -0.0145  0.0933
30228W        W43642  11.467   2.297  10.784 -0.0017  0.0500 -0.0220
30229W        W43643  18.058   1.178  14.883 -0.0658 -0.0625 -0.1638
30230W        W43644   8.964   0.021  10.701 -0.2086 -0.0338 -0.0091
30231W        W43645  10.553   8.619   3.272  0.0154 -0.1688  0.1031
30232W        W43646   3.710   9.604  15.148  0.1990 -0.2695 -0.0700
30233W        W43647   3.231  17.363   0.670 -0.4728 -0.0037 -0.0825
30234W        W43648   1.333  14.885   4.174 -0.0993  0.2010 -0.1658
30235W        W43649   3.293   0.624   5.347 -0.1128  0.0868  0.3229
30236W        W43650   1.285   5.748  15.005  0.0040 -0.3250 -0.0778
30237W        W43651  11.097  13.647   1.207  0.0311  0.2099  0.0294
30238W        W43652   9.332  11.213   5.049  0.0038 -0.2674  0.3980
30239W        W43653   2.890  13.381  11.388  0.2626  0.1192  0.0704
30240W        W43654   1.609  18.191   2.308  0.0954  0.1263  0.0385
30241W        W43655  13.679   8.126  11.380  0.0224  0.0932 -0.0969
30242W        W43656  10.121   6.508   2.884 -0.0318 -0.1022 -0.1580
30243W        W43657   4.685  10.584  13.564  0.1024  0.0332 -0.3484
30244W        W43658  18.100  16.917  12.179 -0.0770  0.2813  0.0238
30245W        W43659  14.912  17.474  14.114 -0.1029 -0.1866  0.1046
30246W        W43660   8.004  15.754  10.678 -0.3295 -0.1531  0.1558
30247W        W43661  18.451   5.939  13.138  0.0747  0.0473  0.2380
30248W        W43662   4.184  13.183   4.375 -0.3127 -0.3046  0.1514
30249W        W43663  18.164  13.829   4.065  0.0860 -0.1784  0.1900
30250W        W43664  11.881   3.750  14.376 -0.3218  0.1019 -0.1386
30251W        W43665   1.791  13.621  13.346  0.1080  0.2394 -0.0986
30252W        W43666  17.915  13.120   1.642 -0.1748  0.0623 -0.0619
30253W        W43667  14.019  13.183   0.907  0.2315  0.0850  0.2475
30254W        W43668  17.432   1.861   2.814  0.1538  0.1312  0.2060
30255W        W43669   4.413   7.469  10.606 -0.0758 -0.0680 -0.1484
30256W        W43670   5.596   2.919  12.246 -0.4647 -0.0741  0.0273
30257W        W43671  10.795  11.081   2.183  0.0254 -0.2462 -0.2554
30258W        W43672   1.702  13.630  15.403 -0.2081  0.0858 -0.1129
30259W        W43673  17.437  15.349   6.159 -0.1455 -0.1844  0.1322
30260W        W43674  16.105  18.355  12.976 -0.0385  0.0215 -0.3624
30261W        W43675  11.451  11.841  14.268 -0.0257 -0.0923 -0.0805
30262W        W43676  10.667  13.341  11.137  0.1356  0.3636 -0.0677
30263W        W43677   4.095   7.474  13.067 -0.0407 -0.3209  0.1390
30264W        W43678   9.351   2.134  13.848 -0.1107  0.2823  0.5102
30265W        W43679  12.211  14.974   1.957 -0.0671 -0.0752  0.1830
30266W        W43680   7.607  14.781  11.270  0.3666  0.2423  0.2985
30267W        W43681   5.084  10.796   4.040  0.2366  0.0553  0.2035
30268W        W43682  16.659   2.329  15.728 -0.0785 -0.1059  0.1570
30269W        W43683   7.554   2.920  11.396 -0.2366  0.0344 -0.1002
30270W        W43684  13.576   0.262   4.948 -0.2771 -0.1204 -0.2073
30271W        W43685   4.463   5.745  13.092  0.0647 -0.2130 -0.0112
30272W        W43686  16.059  11.923   0.009  0.0643  0.1394  0.2425
30273W        W43687   0.279   0.205  10.032 -0.1065  0.0900 -0.3399
30274W        W43688  13.206  10.021  12.735 -0.1247 -0.1586  0.4033
30275W        W43689   6.037   9.629   3.265 -0.1071  0.0808  0.2377
30276W        W43690  16.248   2.983   1.575  0.1099 -0.0925 -0.0192
30277W        W43691   8.077  10.699  15.828  0.0114 -0.0903  0.1964
30278W        W43692   6.481  13.407  10.789 -0.1583 -0.1623 -0.0930
30279W        W43693   4.602  11.372   5.159 -0.0832 -0.0239  0.0679
30280W        W43694   2.278  10.049  13.036  0.1986  0.1748 -0.0949
30281W        W43695   3.850   7.756  15.295 -0.1967  0.2290 -0.3516
30282W        W43696   3.338  12.294   0.884 -0.1454 -0.1752 -0.1794
30283W        W43697   9.322  12.839   1.918 -0.1195 -0.1226  0.1497
30284W        W43698  18.507  17.839  11.871 -0.3826  0.2324 -0.0695
30285W        W43699   2.593   3.486   1.353 -0.2286  0.0852 -0.2609
30286W        W43700  15.770   2.083   1.242  0.0824  0.0776  0.1539
30287W        W43701  11.648   4.317  14.437  0.0181 -0.0596 -0.0556
30288W        W43702   3.857  10.760   3.963  0.1099  0.0092 -0.3803
30289W        W43703   3.443  13.592  14.196 -0.0978 -0.1165  0.2049
30290W        W43704  15.530   9.559  15.369  0.2261 -0.0739  0.1330
30291W        W43705  10.532  12.531   0.464 -0.1226 -0.2145 -0.1440
30292W        W43706  17.287  13.192   1.692 -0.5179  0.3686  0.1255
30293W        W43707  15.449  14.755  12.820 -0.6788 -0.0306 -0.0291
30294W        W43708   1.952  12.869   3.801 -0.2290  0.2941 -0.0838
30295W        W43709  10.094   1.773   0.642  0.0367 -0.1235  0.1809
30296W        W43710  13.041   9.195   4.956  0.0518 -0.1133 -0.2259
30297W        W43711   8.377   3.639   1.337 -0.0940 -0.0815 -0.0772
30298W        W43712   4.091  11.517  15.382 -0.2592  0.0832  0.2142
30299W        W43713   8.188  17.974   3.924 -0.2267  0.1246 -0.0639
30300W        W43714   5.054  11.917   4.588  0.2458  0.3976 -0.0557
30301W        W43715   3.571   8.542   4.368  0.0212  0.4423 -0.3007
30302W        W43716   3.988   7.652   6.152  0.0849  0.1158 -0.0926
30303W        W43717   2.498   9.310  15.787  0.0942  0.0516  0.0568
30304W        W43718   5.325  10.752  10.662  0.0288 -0.3425  0.1668
30305W        W43719   4.956   6.586  15.858 -0.4467 -0.1661  0.0730
30306W        W43720  13.936   1.673  10.984 -0.1671  0.0034 -0.0370
30307W        W43721   9.546   4.294  14.469  0.0797 -0.0655  0.3712
30308W        W43722  17.867  12.215  14.184  0.1059 -0.1167 -0.1441
30309W        W43723  11.590  13.562  10.738  0.0299  0.0872  0.0158
30310W        W43724   0.731  16.375   4.272  0.1288  0.2196  0.1610
30311W        W43725   8.567  17.300   3.626  0.0863 -0.2539 -0.0353
30312W        W43726  15.991   3.508  16.199 -0.2306  0.3275 -0.2179
30313W        W43727   4.746  15.816   2.331  0.2520  0.2806 -0.3715
30314W        W43728  10.628  18.270   3.172  0.0701 -0.1287 -0.1612
30315W        W43729   2.040   8.406  13.457 -0.0630 -0.2877  0.3036
30316W        W43730   8.543   4.603  11.349 -0.1800  0.2287 -0.2268
30317W        W43731   3.019   7.379  15.639  0.2548 -0.0082 -0.2209
30318W        W43732   2.671   3.618   1.929  0.0453 -0.1475 -0.2451
30319W        W43733  15.636  13.898   5.040 -0.0438 -0.1678 -0.1506
30320W        W43734   6.981   6.855   1.088 -0.2847  0.1306 -0.2152
30321W        W43735  12.016  17.229   1.449 -0.1350  0.1152  0.0578
30322W        W43736   1.534  17.210  11.273 -0.0776  0.2979 -0.0059
30323W        W43737   7.132   5.136  11.966  0.0870  0.0380 -0.1279
30324W        W43738   2.089  10.104   0.161  0.0831  0.2060 -0.2038
30325W        W43739   3.999  17.387   1.963 -0.2256  0.0374  0.0853
30326W        W43740  12.867  15.013  10.732  0.1090  0.0716 -0.1847
30327W        W43741   5.847   9.806  10.152 -0.0333  0.0938 -0.1248
30328W        W43742  11.677   6.468   1.417  0.0855  0.1110 -0.3061
30329W        W43743  17.940  14.129   4.491 -0.3393 -0.0731 -0.1551
30330W        W43744  17.838   4.625  12.187  0.1064  0.0532 -0.0404
30331W        W43745  16.886   0.015  10.992 -0.2208 -0.1276 -0.0396
30332W        W43746  10.036  13.733  10.364  0.2047  0.1095 -0.0585
30333W        W43747  17.662   2.698   0.588 -0.0761  0.0925 -0.0430
30334W        W43748  12.087  13.670   1.848 -0.2687  0.3992 -0.1228
30335W        W43749   3.335  16.165  11.651 -0.1033 -0.0772  0.0663
30336W        W43750   5.511   5.417   2.469 -0.2696 -0.1208 -0.1406
30337W        W43751   9.129   4.533  14.679 -0.0225  0.1271  0.1316
30338W        W43752  14.300   6.423  14.836  0.0189 -0.1786 -0.0284
30339W        W43753   1.211   0.868   0.534 -0.1362 -0.1105  0.1630
30340W        W43754   5.717   0.686   2.473 -0.0081  0.0077  0.0799
30341W        W43755   9.479  14.473   0.582  0.0760 -0.1085  0.0858
30342W        W43756   6.962  13.053  14.154 -0.1934 -0.0769  0.1020
30343W        W43757   5.925   4.066   0.244 -0.1927 -0.0131  0.0229
30344W        W43758  15.967  14.658   5.232 -0.2425  0.0272 -0.0040
30345W        W43759  13.189  14.217   4.788  0.0563  0.3099  0.2151
30346W        W43760   0.784  12.822  13.350  0.1608  0.1950 -0.1013
30347W        W43761   8.586   4.947  12.364  0.0948 -0.0253  0.2408
30348W        W43762   3.886   2.696   4.320 -0.1043  0.0322  0.2038
30349W        W43763   4.958   1.972   2.741 -0.0603  0.1001  0.1835
30350W        W43764  17.551   6.685   1.922  0.0634  0.0315  0.1263
30351W        W43765  11.223   8.927  14.376  0.0094 -0.0325 -0.0412
30352W        W43766  16.885  13.887  10.363  0.0508 -0.0671 -0.0117
30353W        W43767   0.397  13.476  14.205  0.1400  0.1927  0.1020
30354W        W43768   3.184   5.472   1.928  0.0067  0.1311 -0.0874
30355W        W43769   7.571  12.446  11.501  0.1943  0.1838  0.1004
30356W        W43770  15.821  11.321  10.736 -0.0919  0.1054 -0.1878
30357W        W43771   1.012   9.078   2.287 -0.2622  0.1345  0.0753
30358W        W43772   9.229  14.906   4.927  0.3137  0.3000  0.2231
30359W        W43773   4.584  17.976  12.335  0.1368 -0.1768  0.1722
30360W        W43774   7.844   3.949  14.538  0.1586 -0.0713 -0.1051
30361W        W43775   9.069   5.318   1.921  0.0930  0.2888 -0.0803
30362W        W43776   4.582   6.347   0.858  0.5474 -0.0225  0.1384
30363W        W43777  15.561  12.859   2.251 -0.1421 -0.2106  0.0904
30364W        W43778  11.160   1.781  13.447  0.3709 -0.1334  0.3386
30365W        W43779   1.242  13.414  12.073 -0.0286 -0.1199 -0.0291
30366W        W43780  16.225   4.362   5.048  0.2247 -0.1879  0.0912
30367W        W43781   7.832  11.531   2.817 -0.0560 -0.1438 -0.1521
30368W        W43782  12.862   2.474  15.012 -0.0917  0.1547  0.1914
30369W        W43783   0.664   8.942  11.245 -0.1287 -0.1702 -0.1948
30370W        W43784  11.678  14.470  12.409 -0.0952  0.0000  0.1485
30371W        W43785  16.686  15.037   1.431 -0.2038  0.0650 -0.2843
30372W        W43786   3.532  11.918  13.932  0.0936  0.0900 -0.4605
30373W        W43787   4.764   0.840  10.500 -0.1141  0.2552 -0.1554
30374W        W43788   4.142   1.622  14.717  0.1784  0.0784 -0.1380
30375W        W43789  16.987  17.438  11.773  0.0446  0.3554 -0.0679
30376W        W43790   0.457   0.463   4.437  0.1220  0.0007 -0.1152
30377W        W43791  12.496  18.492   0.107  0.1602 -0.1849 -0.2132
30378W        W43792   9.859   8.706   4.927  0.1650  0.1767 -0.3308
30379W        W43793   0.269  11.045  14.127 -0.0178 -0.3721 -0.0494
30380W        W43794  17.626   9.836   2.342  0.2202 -0.3114 -0.0752
30381W        W43795   5.107   7.655  10.980 -0.1518 -0.1070  0.0246
30382W        W43796  15.025   9.577  13.725  0.0777 -0.2223  0.0027
30383W        W43797   4.961  12.263   0.989 -0.0115 -0.0010  0.1499
30384W        W43798   1.161   0.816   4.494 -0.2025 -0.5135  0.3018
30385W        W43799   7.729   6.289   3.665 -0.2483 -0.0531 -0.1109
30386W        W43800  14.870   0.181  10.280  0.0900 -0.0710 -0.1620
30387W        W43801   7.707   9.561   1.849  0.2190  0.1705 -0.0168
30388W        W43802   6.430  14.671  12.003  0.1393  0.2326  0.1183
30389W        W43803   3.269  10.377   1.805  0.1706 -0.1884  0.1426
30390W        W43804   6.286  17.258   4.129 -0.3438 -0.1910 -0.1579
30391W        W43805  12.863   8.260  10.592  0.1293 -0.0108  0.0320
30392W        W43806   7.862   0.548   3.165 -0.1974  0.0465  0.1901
30393W        W43807  12.432   7.437  15.093 -0.3058  0.2712 -0.1280
30394W        W43808  16.198  15.193  13.207  0.3424  0.0927  0.1254
30395W        W43809   5.794  14.935   4.780 -0.1315  0.0470  0.3976
30396W        W43810   2.475   1.218   0.483 -0.2356 -0.0027  0.4849
30397W        W43811   3.883  12.932   2.183  0.1501  0.0757  0.1998
30398W        W43812   4.418  15.685   1.846 -0.0418  0.4308  0.4345
30399W        W43813   8.357  16.783  14.582 -0.3418  0.0327  0.1526
30400W        W43814   1.970  14.979   1.226  0.0727 -0.0146 -0.6252
30401W        W43815  15.069  15.900   0.829  0.1243 -0.0494 -0.1153
30402W        W43816  12.529  14.483  12.383  0.1409 -0.0897 -0.2772
30403W        W43817   1.284   0.171  12.814 -0.2044 -0.2301 -0.0060
30404W        W43818   4.019   9.540   5.499  0.1411 -0.4308  0.2973
30405W        W43819   7.182   6.948  15.948  0.2143 -0.2292  0.3082
30406W        W43820   2.186   4.225   2.580 -0.2114  0.1157 -0.0109
30407W        W43821   1.612   5.618  12.372  0.0750  0.0579  0.3435
30408W        W43822  17.626  15.985   3.000 -0.2697 -0.0410 -0.3512
30409W        W43823  16.895  14.183  12.392 -0.3102  0.1257 -0.0793
30410W        W43824   4.967   1.048   6.133 -0.0462  0.0900  0.1249
30411W        W43825   4.394  17.794  13.088 -0.2822 -0.3064 -0.0101
30412W        W43826   5.747  16.017  13.503 -0.1195  0.2308  0.1399
30413W        W43827  13.771   0.273  13.208 -0.0122  0.2345 -0.1660
30414W        W43828   8.474  12.272  10.032 -0.0732 -0.0060  0.0180
30415W        W43829  15.420  10.919   5.844 -0.0154  0.1683 -0.0632
30416W        W43830   0.832   3.839  14.241  0.0147 -0.1629 -0.1787
30417W        W43831  13.818  17.750  12.325  0.1259  0.0877  0.0176
30418W        W43832   6.401   8.215   1.330 -0.1351 -0.0613 -0.1005
30419W        W43833   8.249   1.238   5.383 -0.1210  0.0423 -0.2348
30420W        W43834   9.773   9.798   0.780  0.0435  0.1628 -0.1345
30421W        W43835  18.473  12.016   1.957 -0.2303  0.0048  0.1033
30422W        W43836  13.443   2.991   5.960 -0.2325 -0.2586  0.3386
30423W        W43837   7.632  15.334   2.926 -0.1148  0.2993  0.1553
30424W        W43838  13.453  14.465  12.336 -0.1822  0.2334 -0.3035
30425W        W43839   3.679   1.026  13.517 -0.1449 -0.2359 -0.0738
30426W        W43840  16.956  17.885  13.140 -0.1695 -0.1601 -0.1218
30427W        W43841  12.259   0.361   2.546  0.0978  0.0453 -0.0704
30428W        W43842   4.334   0.590   2.224 -0.0378  0.0574 -0.3283
30429W        W43843   5.275  13.848  14.300  0.1095 -0.0734 -0.0042
30430W        W43844   7.031   2.195  14.914  0.0249 -0.0859 -0.0694
30431W        W43845   7.332  13.056  13.140 -0.1833 -0.0795 -0.3019
30432W        W43846   5.058  15.749   4.085 -0.3265 -0.0235  0.2128
30433W        W43847   5.179  13.028  13.658 -0.1814  0.4443 -0.2282
30434W        W43848  14.042   2.413  11.710  0.3119 -0.3113 -0.1220
30435W        W43849  18.225   5.303   5.464 -0.2789  0.3727 -0.1145
30436W        W43850  10.314  14.134   1.183  0.3639 -0.0325 -0.1351
30437W        W43851   4.263   3.717   3.447  0.1350 -0.0929 -0.2236
30438W        W43852  12.333   8.705   0.608 -0.0628 -0.0835  0.2674
30439W        W43853  13.268  16.492   1.709  0.2148 -0.1183 -0.1137
30440W        W43854  10.130   2.096   1.535  0.1074  0.1132  0.0081
30441W        W43855   7.240  15.103   2.472 -0.1607  0.0272 -0.2332
30442W        W43856   9.311  13.499   1.854 -0.0804  0.0788 -0.0120
30443W        W43857   4.900  11.102  14.960  0.0593  0.0292  0.1010
30444W        W43858   6.820   8.114   5.963  0.1207  0.1783  0.1553
30445W        W43859   6.095  10.246  12.684  0.1453 -0.4303  0.2527
30446W        W43860  16.880   6.624   1.852  0.0721 -0.1007 -0.2135
30447W        W43861   9.610  17.510   5.841  0.1490 -0.1850  0.1506
30448W        W43862   0.278  16.223  15.215  0.0725  0.1593 -0.1122
30449W        W43863   0.481  13.768   0.428  0.1650  0.0726 -0.1024
30450W        W43864  14.508   1.585   1.389  0.0896 -0.0451  0.1657
30451W        W43865  12.776   0.691   0.628  0.3688 -0.0726 -0.5922
30452W        W43866   5.995  13.047  14.609  0.1039  0.1875 -0.2399
30453W        W43867  10.605   8.352  13.359 -0.3675  0.2527 -0.2837
30454W        W43868  13.476   1.570  12.921  0.3155  0.1331 -0.3889
30455W        W43869  13.484   7.317  16.071  0.3889 -0.3493  0.1140
30456W        W43870   5.544   2.216   5.074 -0.0759 -0.1745  0.0150
30457W        W43871   8.578  13.368   1.994  0.0454 -0.2565  0.4444
30458W        W43872   4.071  17.495   0.927  0.3485 -0.1252 -0.5707
30459W        W43873   3.847  12.428   0.152  0.2801  0.1462  0.2012
30460W        W43874  16.009  15.278  15.686  0.1326 -0.1853  0.0890
30461W        W43875   9.953  15.130  11.076  0.0019 -0.0154  0.0837
30462W        W43876  18.455   6.441  14.042  0.0896 -0.1081 -0.0398
30463W        W43877  13.405  17.671  13.240  0.1116 -0.2994  0.0306
30464W        W43878   4.576  11.882   4.956 -0.3021  0.1955  0.0330
30465W        W43879  11.951   0.090  12.798 -0.2049  0.1464 -0.1489
30466W        W43880  13.011   7.028  12.143  0.1042  0.4503  0.1628
30467W        W43881  16.392  15.027  14.185 -0.1399  0.0814 -0.0581
30468W        W43882  17.681  10.751   5.490 -0.0404  0.2984 -0.1773
30469W        W43883  13.225   6.782  11.207 -0.1139 -0.0614 -0.0052
30470W        W43884   5.833  18.083  15.412  0.1948  0.0517  0.0010
30471W        W43885  11.295   1.697   5.529 -0.0731 -0.0528 -0.1071
30472W        W43886   9.625   1.639  13.580 -0.1132 -0.1733  0.3034
30473W        W43887   6.230  15.000   4.470 -0.0175 -0.0263 -0.0224
30474W        W43888   8.538   6.328   2.617 -0.1272 -0.1779  0.1749
30475W        W43889   8.574  13.565  10.030  0.0024 -0.0613 -0.0181
30476W        W43890  14.444   9.247   4.887  0.1166 -0.2618 -0.0683
30477W        W43891  18.112  16.555   1.368 -0.0113  0.4868 -0.3144
30478W        W43892  14.069   1.744  16.041 -0.0848  0.0198  0.0488
30479W        W43893  14.514  17.402   1.183  0.0990  0.3726 -0.1531
30480W        W43894  17.509   7.993   0.048  0.2585 -0.0778 -0.3519
30481W        W43895  13.046  16.727   4.173  0.0814 -0.3169 -0.2024
30482W        W43896   0.909   8.150   3.510 -0.2447  0.3636  0.2696
30483W        W43897  15.732   8.723   2.818  0.0915  0.0816  0.1406
30484W        W43898  11.541  14.857   2.039  0.1090 -0.1665 -0.0194
30485W        W43899   5.827  12.664   1.039 -0.0953  0.4172  0.4063
30486W        W43900  18.305   1.198   4.730 -0.2474  0.0940  0.2663
30487W        W43901  11.064   6.062   0.390  0.0757  0.1764 -0.0325
30488W        W43902   3.292   4.826  15.933  0.1224  0.3300  0.1769
30489W        W43903   6.640  10.645  15.089 -0.0935  0.0759  0.2195
30490W        W43904  13.733   7.682  14.928 -0.0547 -0.1411  0.0860
30491W        W43905  18.488   3.528   2.250 -0.0673  0.1591  0.5197
30492W        W43906  12.095   4.409   1.609 -0.1970 -0.2161 -0.2439
30493W        W43907  18.114  14.491  13.933  0.1068 -0.0348 -0.1184
30494W        W43908   5.701  11.747  11.852  0.0247 -0.1024  0.1605
30495W        W43909  13.733   5.426   3.279 -0.3040 -0.1704 -0.2556
30496W        W43910  11.974   7.580  10.900  0.0002 -0.3676 -0.2056
30497W        W43911   4.523  11.305  10.670 -0.2468 -0.3527  0.1389
30498W        W43912  14.021  10.613   0.051  0.2059 -0.1935 -0.2178
30499W        W43913   7.762   9.195  15.136 -0.1356 -0.0867 -0.0413
30500W        W43914   3.514   3.913  14.022  0.2150 -0.1461 -0.2410
30501W        W43915  13.376   4.140  15.612 -0.1470 -0.0360  0.0135
30502W        W43916   5.598  13.306   0.256  0.1289 -0.1207  0.2732
30503W        W43917  11.550  13.079  11.456 -0.0553 -0.0099  0.0150
30504W        W43918  17.436  16.298  11.177  0.0240 -0.1079 -0.1923
30505W        W43919   0.439   9.646   2.275 -0.0875 -0.0704 -0.1530
30506W        W43920  16.697   7.208   4.014 -0.1125 -0.0281  0.0447
30507W        W43921  16.424   7.274  12.484 -0.4071 -0.1056 -0.0975
30508W        W43922  12.786   5.812   3.045  0.0256 -0.5664  0.3453
30509W        W43923   2.557   7.247  10.041 -0.1255  0.1346  0.0952
30510W        W43924   9.782  15.825   0.293 -0.0243 -0.4542  0.1661
30511W        W43925  12.778   3.788  11.598 -0.1792 -0.0439 -0.0907
30512W        W43926   6.904   2.523  12.506 -0.1750 -0.0156  0.0520
30513W        W43927   1.005  12.624   1.332 -0.0957 -0.0867  0.0088
30514W        W43928   0.406   6.115  11.237  0.0469 -0.1486  0.0042
30515W        W43929  11.455   8.858   3.880 -0.1892 -0.1300 -0.0318
30516W        W43930   3.052  16.633  11.757  0.0864  0.4051  0.0818
30517W        W43931   3.034   2.094  11.095  0.3298 -0.0311  0.1008
30518W        W43932  17.120   3.679   3.205  0.0961 -0.0080  0.0954
30519W        W43933  13.068   0.232   5.067  0.1866 -0.3553  0.3831
30520W        W43934   0.181   3.109  11.866 -0.1797  0.0300 -0.0024
30521W        W43935   8.370   2.957   0.713 -0.0517 -0.0434  0.1922
30522W        W43936   7.312  16.513  15.578 -0.0138  0.1128 -0.3490
30523W        W43937   3.748   1.082  11.488 -0.1584  0.1408  0.0643
30524W        W43938  18.279  15.246  14.558 -0.1270 -0.1760 -0.1213
30525W        W43939   8.227   3.529   3.439  0.1181  0.2241  0.0644
30526W        W43940  12.939   0.838   2.900 -0.0976  0.0717 -0.0009
30527W        W43941   9.758  15.005   2.291  0.0414 -0.1239  0.0315
30528W        W43942   5.853   8.663  12.306  0.2316  0.2522  0.3863
30529W        W43943   6.549   1.340   4.683 -0.1667  0.0303 -0.1913
30530W        W43944   3.138   9.922   5.680  0.1120  0.2282  0.3756
30531W        W43945   4.341  13.948  11.952  0.0377  0.3317 -0.2431
30532W        W43946   6.192   2.923   4.054 -0.0367  0.0049 -0.0675
30533W        W43947  16.571   9.828   1.170  0.1973  0.1850 -0.2423
30534W        W43948   3.609  11.907   9.697 -0.2588  0.0115  0.0930
30535W        W43949   7.149   9.314  13.334  0.0867 -0.1897  0.3724
30536W        W43950   5.270  14.330   2.364  0.1945 -0.1363  0.3265
30537W        W43951  18.389   8.923   2.974 -0.0930 -0.2703  0.0513
30538W        W43952   7.059  17.757  11.452  0.0303  0.0141  0.1149
30539W        W43953  17.388  12.997   4.704 -0.0864  0.1035  0.1702
30540W        W43954   8.834   9.436   0.737 -0.1797  0.2431 -0.1120
30541W        W43955  10.517   5.380  15.365  0.0110  0.2852 -0.0348
30542W        W43956  14.129   7.786  15.614 -0.3999 -0.0935  0.0031
30543W        W43957  10.069   8.360  13.601 -0.0660  0.3060 -0.1939
30544W        W43958   9.953   7.665  12.842  0.1465 -0.0960  0.3758
30545W        W43959  10.270   4.085  14.426  0.0162 -0.0058  0.2599
30546W        W43960   2.976  11.684  12.613 -0.3469  0.0871  0.1437
30547W        W43961   6.097   6.327  15.867 -0.2482 -0.4181 -0.2040
30548W        W43962  15.351   9.260   1.360  0.1719 -0.0849 -0.0533
30549W        W43963   9.213  16.945   3.579 -0.2872  0.0727  0.0104
30550W        W43964   3.962  18.222  11.785 -0.1215 -0.0712  0.0508
30551W        W43965   8.247   8.087  15.112  0.1532 -0.0084 -0.2207
30552W        W43966   6.766  10.335   2.831  0.1017 -0.0714 -0.0320
30553W        W43967   8.277   4.615  15.142  0.0229  0.2237 -0.1436
30554W        W43968  16.760   6.934  12.679 -0.2405 -0.1272 -0.5512
30555W        W43969  18.007  14.517  11.991 -0.2295 -0.2548 -0.2204
30556W        W43970  12.991   6.505  11.537 -0.0312 -0.1323  0.2347
30557W        W43971  17.343   8.996  15.664 -0.0304  0.0423 -0.0024
30558W        W43972  16.298  16.600  13.224 -0.1251 -0.2413 -0.2164
30559W        W43973   4.830  16.464  10.759 -0.3969 -0.0926  0.2026
30560W        W43974  12.043   2.444   0.844 -0.1028 -0.1098 -0.0500
30561W        W43975   9.781  13.296  11.910 -0.0617  0.6385  0.0565
30562W        W43976  15.684  13.890  12.547 -0.2492 -0.1362  0.2402
30563W        W43977  13.241   5.244   3.206  0.0976  0.1645  0.1348
30564W        W43978  14.862   7.932  13.860  0.0459 -0.0377 -0.1619
30565W        W43979   2.754  18.318  15.144 -0.0336  0.0309 -0.0951
30566W        W43980   0.686   9.601   4.218 -0.0267  0.1610 -0.1871
30567W        W43981   1.521  15.820   4.735 -0.2531  0.0445  0.1607
30568W        W43982  11.039   5.688   5.631  0.1786 -0.0786 -0.0360
30569W        W43983   5.896   6.050   6.111  0.1734 -0.0478  0.0909
30570W        W43984   5.181   0.543   2.693  0.3185  0.3749  0.0064
30571W        W43985  14.232   5.631  13.669  0.3398 -0.3508  0.2068
30572W        W43986  13.554  18.312   0.078 -0.1422 -0.1377 -0.0547
30573W        W43987   7.422   1.886   4.173  0.0620 -0.0477  0.0926
30574W        W43988   0.082   1.382   1.513 -0.2800 -0.1271 -0.0396
30575W        W43989   5.292  15.224   1.878  0.1186  0.1553 -0.3379
30576W        W43990   0.512  10.842  12.739  0.0352 -0.3183 -0.1860
30577W        W43991   7.241  11.203   4.921  0.4959  0.1339 -0.1056
30578W        W43992  16.420   8.180   2.954 -0.1013  0.0530 -0.0694
30579W        W43993  18.486  13.424  14.737 -0.0770 -0.2126 -0.1833
30580W        W43994  17.682  12.917  11.490 -0.1088 -0.0358  0.1099
30581W        W43995  17.159  14.633   3.852  0.1218 -0.0610  0.4170
30582W        W43996  10.563  17.585  10.868 -0.0663  0.2556 -0.2452
30583W        W43997  11.410  17.150   3.437 -0.1640  0.3610  0.0214
30584W        W43998   7.725   7.634   3.477 -0.0756 -0.0493 -0.1079
30585W        W43999   8.999   9.328   5.403  0.0799 -0.2432 -0.0698
30586W        W44000   3.599   0.245   5.632 -0.4545  0.0452  0.1504
30587W        W44001   0.158   8.524   5.781 -0.3414 -0.3901 -0.1423
30588W        W44002  10.784  17.507   4.899  0.0636 -0.0253  0.2354
30589W        W44003  11.266  17.388  11.713 -0.3057  0.2158 -0.1448
30590W        W44004  12.230   9.831   0.309  0.1575 -0.2927  0.0199
30591W        W44005   3.226   9.691   0.083  0.3278 -0.0950  0.0748
30592W        W44006   6.321  14.782  13.904 -0.0634 -0.1496 -0.2199
30593W        W44007   2.418   0.116   2.855 -0.0529  0.1793  0.1106
30594W        W44008   6.733  15.828  10.318  0.0538  0.1020 -0.1685
30595W        W44009  17.752  10.032  13.840 -0.0284 -0.0795  0.1197
30596W        W44010   3.679   8.223  12.718  0.1836  0.3084  0.1306
30597W        W44011  10.921   4.639  14.347  0.1903 -0.1281 -0.2159
30598W        W44012  17.746   6.533  11.094 -0.0205  0.0916  0.0704
30599W        W44013  10.487   8.952  12.569  0.1386 -0.0391  0.1760
30600W        W44014   5.491  15.875   5.392 -0.0635 -0.1979 -0.0621
30601W        W44015   3.407  13.158  11.295 -0.1544  0.1767 -0.2651
30602W        W44016  17.927  13.275   2.745 -0.0739 -0.1246  0.3009
30603W        W44017   2.390   1.659   5.598  0.0183  0.0343 -0.0661
30604W        W44018   5.185   4.555   0.973  0.1131 -0.1435  0.2365
30605W        W44019  15.133   2.502   4.947 -0.0867  0.1723  0.0097
30606W        W44020   4.802   0.573  12.087 -0.0269 -0.0228 -0.0482
30607W        W44021   7.345  14.620   0.451 -0.2439 -0.0335 -0.0173
30608W        W44022  12.686  15.976  11.856 -0.3924  0.2050 -0.1574
30609W        W44023  14.359   2.968  15.913  0.0513 -0.4016  0.0438
30610W        W44024  18.199  16.612   0.321  0.3034 -0.3344 -0.2853
30611W        W44025  13.511  13.109  11.230  0.2588  0.2425  0.0402
30612W        W44026  16.094  11.643   2.005  0.1590 -0.0880  0.0731
30613W        W44027   8.445  18.153  14.953  0.0304 -0.2122 -0.1825
30614W        W44028  14.485  12.116  14.213 -0.0440 -0.4749  0.0462
30615W        W44029  12.846  12.218  13.546  0.1520 -0.2302  0.0895
30616W        W44030  18.258   6.567  10.745  0.1037 -0.1768 -0.0040
30617W        W44031  14.611   9.476   5.563  0.0111 -0.1527 -0.1400
30618W        W44032  13.575   0.138  11.688 -0.1685  0.3465 -0.1042
30619W        W44033   0.022   1.381  15.763 -0.1268  0.1161 -0.0824
30620W        W44034  13.706   4.881   2.059  0.0902 -0.0700 -0.3084
30621W        W44035  17.485   9.599  15.498 -0.0331 -0.3253  0.0641
30622W        W44036   8.172  17.893   1.658  0.0517 -0.1473 -0.0840
30623W        W44037   9.848  10.756   3.411  0.0394  0.3379 -0.1270
30624W        W44038   5.608   9.688   0.717  0.0220  0.1566  0.0164
30625W        W44039   8.749   1.737  16.106 -0.0733 -0.0869 -0.1456
30626W        W44040   7.410   0.209   0.086  0.0905  0.0683 -0.1648
30627W        W44041  14.931  12.102  11.983 -0.0722 -0.0583 -0.0463
30628W        W44042  17.808   9.000  15.678  0.0807 -0.1152 -0.0956
30629W        W44043  15.702   1.921  14.374 -0.3188  0.1896 -0.0480
30630W        W44044   8.743  13.434  14.204 -0.1925  0.1103  0.2368
30631W        W44045  12.236  17.442   2.787  0.4861  0.0721  0.1473
30632W        W44046   1.662  14.982   3.534 -0.1424 -0.0255  0.0376
30633W        W44047   2.394  14.331   5.112  0.1112 -0.1121 -0.2181
30634W        W44048  15.911   1.603  10.795  0.6254  0.0889  0.1068
30635W        W44049  17.071  15.458  14.618  0.0722  0.0872 -0.0237
30636W        W44050   5.461   2.763   3.750 -0.2560 -0.3697  0.1469
30637W        W44051  15.074   6.661   1.082  0.3621  0.1885  0.1775
30638W        W44052  11.947  10.836   3.018  0.2163  0.1419  0.1217
30639W        W44053  13.217   8.448  11.813  0.1754 -0.1757  0.2238
30640W        W44054   1.041  17.884  11.904  0.0749  0.0655  0.0351
30641W        W44055   0.811  14.741  11.423  0.0071 -0.0722 -0.1470
30642W        W44056  13.913   1.379   0.238  0.0465  0.0158  0.1326
30643W        W44057   6.465   1.725   2.572  0.2254 -0.0644  0.0551
30644W        W44058   5.523   6.676   3.542 -0.0305 -0.0926  0.3723
30645W        W44059   2.878  16.413   4.597  0.2552  0.0272  0.1797
30646W        W44060   3.048   1.777  11.965  0.0335  0.1237  0.0679
30647W        W44061  18.075   4.113   5.845 -0.3175 -0.0577  0.1185
30648W        W44062   4.128   3.321  11.870 -0.0616  0.2415 -0.2085
30649W        W44063   6.821   0.823   2.942  0.1267  0.2657  0.0245
30650W        W44064  16.056  11.392   5.442 -0.3113  0.3934  0.0115
30651W        W44065  12.038  17.231   4.102  0.1906 -0.1041 -0.1720
30652W        W44066  12.742  15.887  14.208 -0.0360 -0.1048 -0.1653
30653W        W44067   6.037  17.041   2.649  0.0994 -0.0940  0.0995
30654W        W44068   1.823  11.970   4.024 -0.0628 -0.0342  0.0579
30655W        W44069  13.192   9.977   1.414 -0.2219 -0.3014  0.1640
30656W        W44070  10.716  15.206   0.310 -0.1327 -0.0524  0.2762
30657W        W44071   6.643   3.095  11.768  0.3045  0.2460 -0.0452
30658W        W44072   3.153  14.694  10.883 -0.0746 -0.2445 -0.4468
30659W        W44073  13.607  16.424  15.788 -0.1577  0.1175  0.2019
30660W        W44074  14.614   4.431  15.313 -0.0276  0.1281  0.0654
30661W        W44075   5.451   5.328   4.022 -0.0897 -0.4204 -0.3346
30662W        W44076  14.858  11.773  16.010  0.0638 -0.1748  0.0609
30663W        W44077  17.818   3.325   1.045 -0.2801 -0.0182  0.1986
30664W        W44078  15.631  14.049  13.320 -0.0447  0.3572 -0.0484
30665W        W44079  13.703   1.295  11.526  0.0074 -0.1108  0.0677
30666W        W44080   0.216  14.138   3.358 -0.1735  0.1926 -0.1518
30667W        W44081  10.725   7.048   0.810 -0.1997  0.1206 -0.0618
30668W        W44082   3.358  16.040  11.120  0.1538 -0.0218  0.2361
30669W        W44083   0.096  18.329  10.968  0.2200 -0.1197  0.0986
30670W        W44084  16.254  15.237  12.584  0.1275 -0.2287 -0.1771
30671W        W44085   2.604  12.909   3.898  0.0314 -0.1255 -0.0958
30672W        W44086   5.483   4.819   0.313  0.2385  0.1420  0.0208
30673W        W44087  11.996   2.692  11.949 -0.0483 -0.0157 -0.0679
30674W        W44088  15.482   4.037  14.510 -0.0848  0.2867 -0.1068
30675W        W44089   3.846   6.398  12.521 -0.0717 -0.1530 -0.2365
30676W        W44090  14.160   0.369   0.758  0.0124  0.0909 -0.0380
30677W        W44091   0.572   8.078   3.899  0.0151  0.0873  0.1442
30678W        W44092  15.290  13.588  14.223 -0.2552  0.0754 -0.0069
30679W        W44093   8.243   0.813   0.077  0.3148 -0.1539  0.2025
30680W        W44094   6.134  14.253   2.218 -0.0709  0.2694 -0.2420
30681W        W44095  15.173  17.750  11.896 -0.2095 -0.2458  0.0659
30682W        W44096   1.923   7.703  14.924  0.0483  0.1212  0.0353
30683W        W44097  13.563   3.175   4.488  0.1483  0.1375  0.1375
30684W        W44098   8.822   6.975   3.704 -0.2184 -0.0122  0.0570
30685W        W44099  17.858  14.369   4.954  0.1535  0.0452 -0.3014
30686W        W44100   0.786  13.321  11.084  0.0375 -0.0494  0.2998
30687W        W44101   1.685  17.210   1.978 -0.1052  0.0548 -0.1920
30688W        W44102   1.341   7.061   0.189  0.0544  0.1431 -0.3567
30689W        W44103   7.696   7.773   6.033  0.2870  0.1393  0.2954
30690W        W44104   0.011  14.361  15.626 -0.1507 -0.2008 -0.0951
30691W        W44105   6.060   0.105  10.199 -0.0879  0.1048  0.3413
30692W        W44106  14.212  16.999  14.617 -0.0043 -0.1919 -0.0105
30693W        W44107   0.647   8.206  12.483  0.1329 -0.3151 -0.2037
30694W        W44108  10.497   7.930  15.194  0.1695  0.1428 -0.4124
30695W        W44109   8.271   9.530  10.969  0.0977 -0.2542 -0.3933
30696W        W44110   0.671   5.235   4.296  0.3437  0.0119 -0.1467
30697W        W44111   7.902  14.423  10.368  0.2144  0.0783  0.2628
30698W        W44112  17.383  17.088   4.638  0.1863  0.0304 -0.2900
30699W        W44113   0.981   1.805  15.115  0.1632 -0.0672  0.0591
30700W        W44114   0.266   7.480   5.733  0.2211  0.3134 -0.2609
30701W        W44115   1.796   0.440   2.924 -0.3108  0.0902 -0.0978
30702W        W44116   0.643   2.354  13.176 -0.0471 -0.1077 -0.0041
30703W        W44117  10.426  13.823   1.977  0.2917  0.0745  0.0178
30704W        W44118  11.763  12.949   1.274 -0.2899  0.1770 -0.0153
30705W        W44119  11.137   8.900  13.900  0.1179 -0.1056 -0.1524
30706W        W44120  14.445   3.128   1.408 -0.1220  0.0444  0.2209
30707W        W44121   0.605  14.212   5.522 -0.0639  0.2141  0.2161
30708W        W44122  18.236  10.629  15.660 -0.1304 -0.0115 -0.0810
30709W        W44123  14.844   4.378   2.864  0.2066  0.1450 -0.1311
30710W        W44124  15.030  11.219   4.863 -0.1978 -0.2460 -0.2048
30711W        W44125   2.654   3.077   1.695  0.0962  0.1275 -0.1545
30712W        W44126  14.638  13.300   2.010 -0.3074  0.1440 -0.1047
30713W        W44127  12.525   6.942   9.963  0.2683 -0.0604 -0.1185
30714W        W44128   5.263   8.574  10.349  0.1678 -0.0827  0.0834
30715W        W44129   2.588  10.902  11.587  0.1580  0.3165  0.2190
30716W        W44130   9.916   3.110  10.910 -0.1364 -0.1220  0.2371
30717W        W44131   5.161   4.114   4.547 -0.1478  0.0298  0.1425
30718W        W44132   8.795   7.481  12.137  0.0891  0.0386 -0.0419
30719W        W44133   0.514  16.237  16.134  0.1189  0.0961  0.4113
30720W        W44134   1.581   9.845  12.879 -0.0097 -0.0526  0.0899
30721W        W44135  17.581  14.932   3.113  0.2255  0.0163 -0.0606
30722W        W44136  17.559  17.026  14.984 -0.1411 -0.0942  0.1610
30723W        W44137   5.683  15.704  11.073  0.0348 -0.0274  0.0831
30724W        W44138  13.668   8.293   3.619  0.2858 -0.0541  0.1147
30725W        W44139  10.609  18.336   4.264 -0.1709 -0.0149 -0.2946
30726W        W44140   5.574   6.258  13.527  0.0580 -0.0627 -0.4065
30727W        W44141   4.954  12.109  15.030  0.0334  0.1590 -0.0022
30728W        W44142  18.356  14.357  14.909 -0.0730 -0.2815 -0.4303
30729W        W44143  18.403   4.901  12.576 -0.3557  0.2115 -0.1675
30730W        W44144  17.739  17.895   5.081  0.2463 -0.2484  0.0904
30731W        W44145   5.836   9.047  15.167 -0.1015  0.0175 -0.0395
30732W        W44146   7.510  11.834  15.281 -0.1919  0.1159  0.0291
30733W        W44147   2.355  17.429  14.245  0.3550  0.0554 -0.0006
30734W        W44148  10.571  15.212   5.017  0.1573 -0.0529 -0.1357
30735W        W44149   3.761  13.226   9.724 -0.1921  0.0548  0.3634
30736W        W44150  14.678   5.330  10.561 -0.1556  0.1662  0.1418
30737W        W44151  14.232  13.786   5.023 -0.0106 -0.1588  0.0216
30738W        W44152   6.002  14.370   9.674  0.0775  0.3188  0.1788
30739W        W44153   3.101   3.252   5.982 -0.0111  0.0313  0.1166
30740W        W44154  13.035  10.132   5.371  0.1699 -0.0049  0.0609
30741W        W44155  10.911   9.854  13.482 -0.0503  0.0767 -0.1885
30742W        W44156   2.222   4.669   4.840 -0.3195 -0.2163  0.0841
30743W        W44157   4.207   1.945   2.434 -0.2596  0.2438 -0.1747
30744W        W44158   4.948   0.774   3.058  0.2493  0.4130 -0.1033
30745W        W44159   8.157   6.386  14.125  0.1015  0.1785 -0.1188
30746W        W44160  10.828   0.899   6.008  0.4818  0.0970  0.1916
30747W        W44161   1.650  14.353  12.235 -0.0889 -0.2698  0.0664
30748W        W44162  13.273   3.036   2.425  0.1144  0.2237 -0.0878
30749W        W44163  14.042  14.024  14.065  0.0932  0.0788  0.0875
30750W        W44164  16.247  15.776  13.905  0.5688 -0.1279  0.2716
30751W        W44165   2.279  16.774  15.711 -0.0947 -0.0527  0.2018
30752W        W44166   7.045   1.394  15.306  0.0320  0.0272  0.0090
30753W        W44167   2.701   3.771  10.957  0.1871 -0.0079 -0.0382
30754W        W44168  16.890  11.346  11.036  0.1184 -0.2545  0.0062
30755W        W44169  15.486  10.197   4.526  0.1081 -0.0688 -0.0881
30756W        W44170  18.297   8.374   2.779 -0.2905 -0.0723  0.2681
30757W        W44171  16.248  17.020  16.144 -0.2686 -0.1923  0.1487
30758W        W44172   5.608   1.825  13.684 -0.0127  0.1186 -0.3436
30759W        W44173   0.738  11.792  14.409  0.1955 -0.0225 -0.1063
30760W        W44174  10.078  15.591  10.962 -0.3294  0.1069  0.0672
30761W        W44175   6.519   2.530   1.838  0.2071  0.4289 -0.1519
30762W        W44176   4.889   3.131  10.419 -0.0323  0.3284  0.0758
30763W        W44177  17.246   5.863   1.614  0.0147 -0.0604 -0.0220
30764W        W44178   5.489  14.576   4.590  0.0406 -0.1239  0.2083
30765W        W44179  17.803   6.852  12.326 -0.1431 -0.2066 -0.0342
30766W        W44180  11.043   6.976   5.743 -0.0865  0.2916  0.0878
30767W        W44181   1.313  17.060   5.229 -0.0516  0.0894 -0.0780
30768W        W44182  11.505  15.313  15.591 -0.2340 -0.2112  0.0766
30769W        W44183   8.825   2.292   3.406  0.0534 -0.0978 -0.1117
30770W        W44184  13.007  13.463   2.835 -0.2299  0.0082  0.0093
30771W        W44185   3.526   0.441   4.170  0.1547 -0.1023 -0.1713
30772W        W44186   7.908  12.841  13.220  0.0894  0.1795 -0.3600
30773W        W44187  11.638  18.143  13.722 -0.0043  0.1967 -0.0554
30774W        W44188  10.795  11.710  13.286  0.3185  0.1584  0.0057
30775W        W44189   5.938  13.054  11.608 -0.1692  0.0334 -0.0372
30776W        W44190  14.580   2.285  11.090 -0.0553 -0.2903  0.1398
30777W        W44191   9.338   8.173   1.272  0.0604  0.0361  0.3836
30778W        W44192  14.821   7.692   3.083  0.2640 -0.1284  0.0160
30779W        W44193   1.751   4.646  10.090  0.0800  0.2112  0.0180
30780W        W44194   8.436   5.167  14.359 -0.2656 -0.2515 -0.1272
30781W        W44195   6.135  10.841   3.603  0.0615 -0.1217  0.1791
30782W        W44196  11.445  16.553   9.952  0.0471  0.2543  0.0042
30783W        W44197   7.547   6.480  11.337  0.2914  0.1498  0.1868
30784W        W44198  17.901   5.659  14.395  0.3589  0.2282 -0.0266
30785W        W44199   9.279   5.472   4.657  0.0113  0.1688 -0.0293
30786W        W44200   6.046  15.565  15.482 -0.2482  0.3118 -0.1088
30787W        W44201   7.428   6.441   2.097  0.0380  0.0531  0.0014
30788W        W44202  14.313  12.438  15.355 -0.5403  0.0694  0.0527
30789W        W44203   0.882   2.813   2.000 -0.1142 -0.1093 -0.2072
30790W        W44204  10.657  17.968  13.410 -0.1833 -0.4218  0.0493
30791W        W44205  15.785   5.862  16.091  0.0785  0.2134 -0.1753
30792W        W44206  17.901  11.039  12.385  0.1694 -0.1330  0.0071
30793W        W44207  12.072  14.814   3.310  0.1309 -0.0162 -0.3336
30794W        W44208  15.925   0.807   2.350  0.3549 -0.0664 -0.0374
30795W        W44209  10.960   9.762  15.970  0.0433  0.0383 -0.2982
30796W        W44210   6.848  16.467   2.217  0.2487 -0.1177  0.2153
30797W        W44211   4.644  17.874  15.100 -0.0932  0.1320  0.0756
30798W        W44212   4.550  10.842  11.721 -0.1464 -0.2797 -0.0906
30799W        W44213  16.796   8.274  12.485  0.4024 -0.1443  0.4366
30800W        W44214   4.674   3.860   2.686  0.2022 -0.5080 -0.1468
30801W        W44215   5.670  11.151   2.987  0.0890 -0.1921  0.2596
30802W        W44216  15.330  15.875   4.982  0.2415  0.0572  0.0831
30803W        W44217   5.144   4.083   5.436 -0.1394 -0.1991 -0.1191
30804W        W44218   8.763   6.285   1.646 -0.0927 -0.0116 -0.2656
30805W        W44219   6.705   8.124   1.751  0.1595 -0.2350  0.0434
30806W        W44220  13.698   6.648   4.821  0.0938  0.3685  0.1014
30807W        W44221  14.563   3.424  14.664  0.3185 -0.3882  0.5467
30808W        W44222   6.157   6.049   3.815 -0.1477  0.3074  0.4105
30809W        W44223  17.741   5.057   0.821 -0.0613 -0.0508  0.2912
30810W        W44224   4.760  10.292  13.006 -0.2623  0.3468  0.2296
30811W        W44225  13.274  12.450  14.813 -0.1083 -0.0224 -0.0723
30812W        W44226   0.474   8.295   0.582 -0.1461  0.0618  0.0673
30813W        W44227  11.249  11.999  11.608  0.1207 -0.0028 -0.0813
30814W        W44228   5.613  10.135   4.693 -0.1250 -0.0729  0.1313
30815W        W44229   1.876   0.713   6.099 -0.0896  0.2927 -0.1643
30816W        W44230   4.647   7.497  12.940 -0.3239 -0.5135 -0.0704
30817W        W44231   3.529  10.657   3.175 -0.0502  0.0002  0.0794
30818W        W44232   6.624  17.460  13.617  0.1831 -0.0660 -0.2935
30819W        W44233   6.293  18.047  13.654 -0.2465 -0.0608  0.0001
30820W        W44234   8.466   2.359   1.387 -0.1347 -0.0612  0.3659
30821W        W44235   5.975  14.016  14.732 -0.0117  0.1417 -0.3300
30822W        W44236  10.360  13.184  12.877  0.1273 -0.2102 -0.0233
30823W        W44237   8.443   6.477   0.586  0.3442  0.1391  0.0232
30824W        W44238  16.175   4.799   2.687 -0.0877 -0.0605 -0.1525
30825W        W44239  11.875  12.452   3.296  0.2911  0.0662 -0.1649
30826W        W44240  16.441  14.314  12.460 -0.1654  0.0913  0.1810
30827W        W44241  17.691  16.821   4.944 -0.0004  0.1648  0.0351
30828W        W44242  14.472  11.195  10.111 -0.0732 -0.4904 -0.1338
30829W        W44243   9.786   3.051  15.241  0.0867  0.0280  0.2514
30830W        W44244   1.800  16.770  15.914  0.0775  0.1854 -0.0968
30831W        W44245   6.884  11.831   2.581  0.1354  0.0127 -0.3472
30832W        W44246   8.799   0.875   3.723  0.1115 -0.0099  0.0710
30833W        W44247  18.268  10.041   2.953  0.1100  0.1430  0.0263
30834W        W44248  12.950   4.812  11.000  0.0231 -0.0596 -0.1927
30835W        W44249   0.532   2.193  10.268 -0.0987  0.1324 -0.0107
30836W        W44250   5.073   3.377  13.560  0.2318  0.2533  0.0254
30837W        W44251   3.094  11.473   1.311 -0.3315 -0.2129  0.1941
30838W        W44252  10.302   4.562  11.433  0.2068  0.2226  0.0488
30839W        W44253  12.890  12.244  14.121  0.0490 -0.0288  0.1420
30840W        W44254   6.979   5.070   3.655 -0.2492 -0.0700  0.3155
30841W        W44255   5.257  14.534   0.210 -0.2265  0.1458  0.1387
30842W        W44256   1.546  15.098   9.837  0.1030 -0.1461 -0.1618
30843W        W44257   3.798   5.051  12.015 -0.0526  0.1332 -0.0310
30844W        W44258  11.817   0.861   0.251 -0.0004 -0.1092  0.0361
30845W        W44259   4.430  13.650   0.826 -0.0233 -0.2321 -0.2792
30846W        W44260  13.978   7.497   3.592 -0.0523 -0.2385  0.2771
30847W        W44261   0.142   0.490   3.701  0.1067  0.0353 -0.0080
30848W        W44262  14.473   0.843   2.125 -0.1521  0.1482  0.2866
30849W        W44263   9.867   9.241   2.383 -0.0112 -0.0767  0.1848
30850W        W44264   8.333  14.270  15.932  0.2204 -0.1920 -0.1191
30851W        W44265   2.467   4.916  11.895 -0.0116 -0.0255 -0.3514
30852W        W44266  14.365   5.809  15.133  0.2257  0.0046  0.2339
30853W        W44267  10.345   6.686   4.818  0.0396  0.2761 -0.0191
30854W        W44268   4.552   8.614  11.783 -0.2850 -0.1369  0.3118
30855W        W44269  14.576  16.004   4.485 -0.0630  0.0676 -0.1539
30856W        W44270   6.257   1.969  13.340 -0.2573 -0.2109  0.1256
30857W        W44271  16.470   1.097  11.393  0.2625 -0.1738  0.2535
30858W        W44272   7.953  16.706   2.895  0.0531 -0.1070  0.1729
30859W        W44273   9.655  11.960  10.136 -0.1733  0.1494 -0.2651
30860W        W44274  18.260  17.980   2.085 -0.0050  0.0180 -0.4806
30861W        W44275  14.578   7.029  16.194  0.0197  0.0046  0.0148
30862W        W44276  13.977   3.453  15.352 -0.4242 -0.0723  0.0216
30863W        W44277   9.324  13.161   1.461 -0.1505  0.1106  0.3034
30864W        W44278  15.920  14.223   9.958  0.0933  0.3700 -0.4473
30865W        W44279   4.494  13.347  14.085  0.0861 -0.2226 -0.1084
30866W        W44280  11.255   7.097   6.554 -0.0518  0.2963  0.0079
30867W        W44281  14.823  12.235   5.263  0.2363  0.1715  0.3709
30868W        W44282   7.368   2.881   1.807  0.0379 -0.1623 -0.0921
30869W        W44283   8.083  13.089  10.388 -0.2184  0.1014  0.1640
30870W        W44284  17.163  14.902   2.290 -0.1176  0.2409 -0.2532
30871W        W44285   0.651  17.622   4.585 -0.2099  0.0593 -0.1622
30872W        W44286  14.166  13.808   2.181  0.0078  0.2406  0.0657
30873W        W44287   4.882   2.088  11.243  0.2552  0.2477 -0.2978
30874W        W44288   6.889  16.001  11.909 -0.2148 -0.2617  0.1416
30875W        W44289  13.894   4.792   4.970  0.3434  0.0189  0.0645
30876W        W44290  12.810   9.250  13.097  0.2482  0.1501 -0.1147
30877W        W44291   2.531  14.306  15.541  0.3617  0.0516  0.3045
30878W        W44292   9.550   4.975   3.390  0.0075  0.0090 -0.3382
30879W        W44293   4.477   0.555   1.763 -0.1195 -0.0342  0.0913
30880W        W44294  13.960  10.672  12.933 -0.2107 -0.0103 -0.0198
30881W        W44295   4.383   6.057   3.132  0.0867  0.1517  0.1494
30882W        W44296   9.941   4.129  14.802 -0.0420 -0.0202 -0.0855
30883W        W44297  17.641  16.644  13.569 -0.1933 -0.0740  0.5039
30884W        W44298  15.041  10.412  15.498  0.0196 -0.1917 -0.0861
30885W        W44299   8.289   1.153  10.779 -0.0922  0.3217  0.3489
30886W        W44300   1.202  12.932  15.821  0.1778  0.0268 -0.2073
30887W        W44301   2.527   6.899   1.041  0.2927 -0.0838 -0.1480
30888W        W44302  17.373  15.139  14.375 -0.0538 -0.1989 -0.2598
30889W        W44303   7.475  13.800  13.384  0.2311  0.0988  0.3249
30890W        W44304   1.861   6.492   1.135  0.3658 -0.0732  0.0468
30891W        W44305  10.210   9.294   3.727  0.1990 -0.0492 -0.3873
30892W        W44306   1.754   7.408   6.164 -0.0914  0.1655  0.1736
30893W        W44307   3.899   0.383  12.104  0.1845  0.1296  0.2028
30894W        W44308   9.870   2.325  11.467  0.1286 -0.2890 -0.0605
30895W        W44309   9.356   6.037  12.213 -0.0285 -0.0999 -0.0207
30896W        W44310   3.072  12.954   4.090  0.1308 -0.3347  0.1788
30897W        W44311   3.084  13.224  11.875  0.0407  0.3086 -0.0729
30898W        W44312   1.344  16.505   2.590 -0.0671  0.1348  0.0648
30899W        W44313  12.400   3.254   2.973 -0.2362 -0.0325 -0.1971
30900W        W44314  17.736  16.930  11.700 -0.0936  0.0440 -0.1548
30901W        W44315  15.548  10.424   3.297  0.3481  0.3054  0.3872
30902W        W44316  13.974  18.417  13.544 -0.1631 -0.1562 -0.1566
30903W        W44317   4.138   0.664  15.615  0.0810 -0.0161 -0.1724
30904W        W44318   8.653   9.947   1.335  0.2402 -0.3987  0.0076
30905W        W44319   8.845   5.623  13.761 -0.0713  0.1094  0.0417
30906W        W44320   5.813   0.505   4.181 -0.0039 -0.2508  0.0349
30907W        W44321   2.227   5.032   3.418  0.2972  0.0518  0.1612
30908W        W44322  10.341  16.661   3.863 -0.3356 -0.2739 -0.1396
30909W        W44323   3.281   5.681  14.994 -0.0807 -0.0382 -0.0234
30910W        W44324   1.098   7.442   6.553 -0.0460  0.1879 -0.0683
30911W        W44325  11.667   9.845  13.676 -0.1933 -0.1383  0.0462
30912W        W44326  10.996   1.378   4.809 -0.0407  0.1757  0.0799
30913W        W44327   2.812   0.994   3.782 -0.0237 -0.0183 -0.0076
30914W        W44328   1.022   4.903   4.815  0.3379 -0.0442 -0.3301
30915W        W44329   9.794  13.215   3.378 -0.1700  0.1190 -0.0021
30916W        W44330  11.005  14.624  16.093 -0.0486 -0.1088 -0.1152
30917W        W44331   0.150  11.433   0.422 -0.0537 -0.1272 -0.0335
30918W        W44332   0.704  13.075   4.729  0.0181  0.0365  0.0053
30919W        W44333  11.025   9.267  15.245 -0.2280  0.1876 -0.1912
30920W        W44334   9.982   5.646  16.005  0.2242  0.1830  0.0710
30921W        W44335   1.203  16.195  13.740 -0.0517  0.1102 -0.0294
30922W        W44336  17.753  12.789   4.022  0.1007  0.0825  0.1951
30923W        W44337  13.241   4.494   5.631  0.0142  0.0445 -0.1698
30924W        W44338   7.723   3.311   2.009 -0.1264 -0.0021  0.0349
30925W        W44339  13.349   9.522  14.632 -0.0918 -0.0085  0.1341
30926W        W44340   3.223   6.402   2.612 -0.2324 -0.0400  0.3028
30927W        W44341   2.964   8.140  11.443  0.1900  0.1647 -0.0252
30928W        W44342   4.835   2.258  12.160  0.3792 -0.0862 -0.0623
30929W        W44343   9.707   9.838  14.740 -0.0592  0.1368  0.0811
30930W        W44344   5.778   0.103  11.984 -0.7178 -0.0092 -0.3885
30931W        W44345   3.053   2.957   5.044 -0.2708  0.1509  0.0651
30932W        W44346   4.307   8.098   3.167  0.0431 -0.2450  0.1743
30933W        W44347   2.758  10.448  11.245 -0.1468  0.1686  0.0462
30934W        W44348   2.857   7.685  10.990 -0.2678  0.1459  0.1327
30935W        W44349  12.088  15.358  14.169  0.0797  0.0221 -0.0591
30936W        W44350  15.452   1.664   1.145 -0.0857 -0.1018  0.0149
30937W        W44351   5.951   7.332   4.964  0.1500 -0.2955  0.3031
30938W        W44352   5.505  17.440   5.650  0.0075 -0.1958  0.0151
30939W        W44353   1.422   6.021  13.724 -0.1269  0.2609 -0.0259
30940W        W44354  12.988  12.419   0.843 -0.1303  0.0511  0.1973
30941W        W44355   8.303   9.478   3.197 -0.0351  0.0597 -0.3838
30942W        W44356  15.194  16.749   3.324 -0.3282  0.2462  0.1773
30943W        W44357  14.724   6.598   5.493  0.0979  0.4580 -0.2862
30944W        W44358  16.249   0.866   1.427 -0.0188  0.1630 -0.1632
30945W        W44359   6.028  10.355  11.568 -0.3091  0.2045 -0.3598
30946W        W44360   3.454   4.917  13.081 -0.1016 -0.0943 -0.1247
30947W        W44361   4.996   5.767  12.025  0.1424  0.2766  0.1552
30948W        W44362  17.886   1.504   0.647 -0.1437 -0.0833 -0.1908
30949W        W44363   1.068   4.930   4.302  0.1527 -0.0985  0.1854
30950W        W44364  15.731  13.853  14.007  0.0554  0.1224  0.1595
30951W        W44365   5.015  17.135  13.941  0.1790  0.2405  0.0219
30952W        W44366  15.372  14.507   2.397  0.4085 -0.0450  0.2191
30953W        W44367  11.768  16.605   0.812 -0.0773  0.0353 -0.1210
30954W        W44368  11.484   7.020   5.263  0.2816  0.5534  0.2116
30955W        W44369  10.848  14.473   0.879 -0.1842 -0.2466  0.1132
30956W        W44370   5.536   4.883  14.163  0.0247  0.3322 -0.1317
30957W        W44371  14.092  12.063   3.771  0.3384  0.0876 -0.1734
30958W        W44372  15.561  12.064   6.193 -0.0602  0.0183  0.0033
30959W        W44373  12.493   6.257   5.700  0.0969 -0.0517  0.0756
30960W        W44374  18.522  10.745  12.599  0.0430  0.0498 -0.1146
30961W        W44375   2.899   6.021   1.368  0.1430  0.2975  0.1900
30962W        W44376  14.737  17.305   4.014  0.3318  0.1408 -0.4608
30963W        W44377   9.786  18.273  12.897 -0.0967  0.1763  0.4438
30964W        W44378   4.585  14.355   3.012 -0.2826 -0.1977 -0.0590
30965W        W44379  13.345  10.308   2.811 -0.4769  0.1149  0.2070
30966W        W44380  17.209  16.602  13.833  0.1827 -0.1248  0.1018
30967W        W44381   6.729   8.329   4.598 -0.1489 -0.0196 -0.2606
30968W        W44382  15.741   7.698  11.583  0.6319 -0.1723  0.0088
30969W        W44383  13.859   4.766   0.486 -0.1222  0.2617  0.1772
30970W        W44384   2.242   7.197   2.185  0.0972  0.0460  0.0527
30971W        W44385   6.881  14.457   3.281 -0.0023 -0.0211  0.2012
30972W        W44386   7.575  12.235  12.678 -0.1250  0.0475 -0.0299
30973W        W44387   0.600   5.661  11.077 -0.0614 -0.1414  0.2453
30974W        W44388   4.610  10.560   2.321  0.0303 -0.0043 -0.1269
30975W        W44389   4.091  10.747  12.331  0.2968 -0.0693  0.3862
30976W        W44390   4.584  18.219  14.713 -0.1015 -0.2953 -0.1879
30977W        W44391  16.163   6.563  14.198 -0.2310 -0.3139 -0.1624
30978W        W44392  11.755  11.421   9.968  0.0493 -0.1241  0.0213
30979W        W44393  12.832  16.242  11.418  0.0162 -0.0778  0.2824
30980W        W44394   0.760  14.206   0.035  0.1459  0.0561 -0.1012
30981W        W44395  11.506  18.359  15.127 -0.0758  0.2410  0.1133
30982W        W44396  15.378   8.282   0.321 -0.0220  0.0518 -0.0962
30983W        W44397  17.464   8.186  13.437  0.2865 -0.3486 -0.0132
30984W        W44398   5.670   5.265   1.342 -0.2947  0.1721 -0.0789
30985W        W44399  12.082   2.724   1.244 -0.0582 -0.3702 -0.0752
30986W        W44400   5.378  12.788   3.259  0.0477  0.1429 -0.2652
30987W        W44401  15.786  16.329   1.010 -0.3472  0.0521 -0.1954
30988W        W44402   3.256   0.650   3.581 -0.2614  0.0970  0.0435
30989W        W44403  15.649   4.981  11.740 -0.1452 -0.2612 -0.2989
30990W        W44404  12.986  14.896  11.199  0.0849  0.0258 -0.2869
30991W        W44405  13.167   7.322   5.406 -0.2550 -0.1314  0.0012
30992W        W44406  10.879   7.995  14.268  0.0863  0.0383  0.0399
30993W        W44407   4.748   6.123  12.870  0.4339  0.3205 -0.0655
30994W        W44408  16.957   3.367   5.110 -0.0317  0.1148 -0.3284
30995W        W44409   2.641   9.130  11.673  0.1018  0.3473  0.2035
30996W        W44410  16.075   0.336   2.288 -0.1234 -0.0105 -0.2054
30997W        W44411   8.308  17.231  15.315 -0.4138  0.0501  0.2250
30998W        W44412   0.239   3.492  14.772  0.1087 -0.1479  0.2123
30999W        W44413  12.831   7.936   2.909 -0.0316 -0.1614  0.1174
31000W        W44414  15.764  10.460   5.892  0.0002  0.0104  0.3147
31001W        W44415  18.106   4.584  15.160  0.0821  0.5230  0.0647
31002W        W44416   6.941   6.879  14.290 -0.1554  0.1110  0.1855
31003W        W44417   1.253   3.988   4.275  0.1713 -0.0444  0.1833
31004W        W44418   8.303  14.185  12.890 -0.3331 -0.2706 -0.0436
31005W        W44419  13.267  16.452   2.272 -0.3279 -0.1587  0.1045
31006W        W44420  14.806  18.101   6.291  0.2520 -0.0505 -0.0666
31007W        W44421  17.042  12.314  14.605  0.2004  0.1575 -0.1065
31008W        W44422   7.902  13.795   0.511 -0.0515 -0.0044 -0.0766
31009W        W44423   2.453  15.973  15.534  0.2213  0.3617 -0.0595
31010W        W44424   4.046   2.912  14.088 -0.1610 -0.0318  0.2283
31011W        W44425   1.291  15.154   0.132  0.0232 -0.0562  0.1999
31012W        W44426   3.745  12.727  15.906  0.0244 -0.2507 -0.2041
31013W        W44427  13.823  12.039   1.299  0.0208 -0.0525  0.1026
31014W        W44428   1.767  18.418  11.593 -0.2069 -0.1064  0.0680
31015W        W44429   2.122   7.594  15.347 -0.0192 -0.0064 -0.2592
31016W        W44430   0.119  13.907  12.148 -0.0706 -0.2948 -0.3332
31017W        W44431   5.827   7.712   4.268  0.2502  0.1045  0.2079
31018W        W44432   2.283  17.867  10.051 -0.3155 -0.1111  0.2499
31019W        W44433   9.644   5.808   4.301 -0.2548 -0.1702  0.1674
31020W        W44434  16.126   2.931  11.447 -0.2468  0.2337  0.0148
31021W        W44435   9.374   1.090   2.252  0.1260  0.2561 -0.0116
31022W        W44436   3.171  11.798  15.933 -0.0482  0.3357 -0.0921
31023W        W44437   2.011  13.678   4.237 -0.1589 -0.3293 -0.1464
31024W        W44438   2.550  15.054  11.869  0.1543 -0.3272 -0.0634
31025W        W44439   4.774   0.476  15.149  0.1038  0.1079  0.2450
31026W        W44440  13.948  11.520   3.616 -0.0086  0.0299  0.0744
31027W        W44441  15.756   8.071   2.349 -0.0485  0.3351 -0.0877
31028W        W44442   2.819   1.722  11.550  0.3676 -0.4358 -0.0122
31029W        W44443   5.382   9.800  11.554  0.1479 -0.0352  0.0735
31030W        W44444   9.338   5.317  12.127 -0.0246  0.1711  0.0248
31031W        W44445  16.315  15.491  15.008  0.1509 -0.3730 -0.0835
31032W        W44446  10.480   3.483  13.091 -0.1918  0.0527  0.0615
31033W        W44447   6.837  13.079   1.880  0.3008 -0.3230  0.2391
31034W        W44448   9.507  17.768  14.907  0.2189  0.1302  0.0803
31035W        W44449  16.497  10.646   4.976  0.2631  0.1329  0.3965
31036W        W44450  12.417  14.753   5.659 -0.1097 -0.1495  0.4218
31037W        W44451  17.442   5.897  12.139  0.2599  0.2170 -0.0995
31038W        W44452   3.858  10.374  14.743  0.4462 -0.1779 -0.0406
31039W        W44453  14.939  15.363   0.856 -0.2241 -0.0807  0.1318
31040W        W44454   8.497   4.179  15.368  0.0651 -0.3282  0.2423
31041W        W44455  10.830  16.011  10.330 -0.3284  0.1182  0.1735
31042W        W44456   0.282   6.899   1.199 -0.3272 -0.0899  0.0366
31043W        W44457   2.306  11.192   3.713 -0.2979  0.1990 -0.1326
31044W        W44458   7.097   8.014  13.237 -0.2873  0.1295 -0.2158
31045W        W44459  18.075   2.445   2.825  0.1712 -0.0518  0.2344
31046W        W44460   9.011  12.528  12.690  0.1415  0.0384 -0.0387
31047W        W44461  10.152   3.694  10.942 -0.0168 -0.1998  0.1472
31048W        W44462   7.422  10.212  11.506  0.1553 -0.2309  0.0038
31049W        W44463  18.223  15.532   2.304 -0.0148 -0.2571  0.0237
31050W        W44464  18.368   2.518   9.878 -0.1503  0.2808  0.0922
31051W        W44465   0.568   4.791   4.542  0.1573  0.1851 -0.1009
31052W        W44466  16.484   8.726  11.886 -0.1097  0.0444  0.1593
31053W        W44467   3.564   4.737   4.942 -0.0393 -0.0150  0.2562
31054W        W44468  16.862  14.354  15.581 -0.1942 -0.2153  0.1835
31055W        W44469   8.368  11.471  14.240 -0.3742 -0.1838 -0.0001
31056W        W44470  17.590   1.991  13.153  0.0055  0.1132 -0.2014
31057W        W44471  12.655   1.877  15.776 -0.0519  0.0948 -0.0900
31058W        W44472  12.107  10.858   4.891 -0.2230 -0.2237 -0.1534
31059W        W44473   1.393   3.878  12.105  0.0606 -0.2818  0.5599
31060W        W44474  14.882   2.250  12.287  0.0382 -0.0431 -0.3066
31061W        W44475  13.792   5.121   3.711  0.0686 -0.1666 -0.2960
31062W        W44476  18.083   7.412   2.940 -0.1714 -0.3369 -0.2513
31063W        W44477  11.815  17.274   3.596  0.4269  0.0640 -0.2927
31064W        W44478  12.858  13.299   4.267  0.2344  0.1805  0.0486
31065W        W44479   0.992  11.957  12.825  0.0819  0.2386 -0.0595
31066W        W44480  17.071   9.358  13.579 -0.2188  0.4489  0.2477
31067W        W44481  13.697  11.262   0.759  0.1220  0.0245 -0.2526
31068W        W44482  16.136   9.492  15.012  0.0942 -0.1772  0.3316
31069W        W44483  12.836  11.424  14.601  0.0023 -0.1279 -0.2931
31070W        W44484  15.992   0.514  15.920 -0.2779  0.2740 -0.0209
31071W        W44485  12.785   7.775  13.054  0.0088  0.1885 -0.0313
31072W        W44486   3.332  12.448  14.248  0.1417 -0.1965  0.0728
31073W        W44487   3.587  10.475   2.224 -0.0571  0.1959 -0.0761
31074W        W44488   3.877  12.549   5.936 -0.0479  0.0205 -0.0422
31075W        W44489  14.401   2.364   1.823 -0.1372  0.1252  0.0767
31076W        W44490  16.276   0.085   5.738  0.2962 -0.2284  0.2382
31077W        W44491  11.934  12.830  13.716  0.0606  0.2181  0.3685
31078W        W44492   2.165   6.632   1.586  0.1532 -0.2528  0.0039
31079W        W44493  13.151  15.348  16.092  0.1156  0.1942 -0.1219
31080W        W44494   5.537  10.272   3.298  0.0508  0.0793 -0.2980
31081W        W44495   5.880   9.676  14.009  0.1113 -0.0346 -0.4120
31082W        W44496   9.490   3.203  12.402  0.2397  0.2472  0.5346
31083W        W44497   9.445   5.543   6.314 -0.1099  0.3322 -0.1173
31084W        W44498   7.637   6.563   5.392 -0.2358  0.2817 -0.1598
31085W        W44499   6.673  17.773   2.817  0.1625 -0.0552 -0.0250
31086W        W44500   6.711  11.211   0.558  0.2293 -0.2287  0.0525
31087W        W44501   5.886   4.558   0.177 -0.4424 -0.2590  0.2152
31088W        W44502  16.643   5.376   4.778 -0.2286  0.0938 -0.0310
31089W        W44503  13.246  13.556  11.047 -0.1425  0.1573 -0.0655
31090W        W44504   9.063   0.098   4.096 -0.2009 -0.0653  0.1764
31091W        W44505  14.006   5.157   2.387  0.0011 -0.0262  0.1633
31092W        W44506   9.743  15.745   0.844 -0.3555 -0.0104  0.4208
31093W        W44507   8.689   4.926  10.520 -0.0317  0.2002 -0.2608
31094W        W44508   0.515   7.694  11.962  0.2558  0.1264 -0.0431
31095W        W44509  11.836   4.843  15.117  0.2442 -0.3690 -0.1061
31096W        W44510   2.019   3.582  15.270  0.0091  0.0970 -0.3371
31097W        W44511   6.562   3.483  14.539 -0.0943 -0.1511 -0.2243
31098W        W44512  16.156   2.675   2.528  0.1921 -0.2557 -0.0668
31099W        W44513  17.458  10.856   4.443 -0.0862  0.2873 -0.0693
31100W        W44514   5.161   1.244   5.211  0.2501 -0.0442  0.1287
31101W        W44515  12.003  13.918  14.701  0.5189 -0.1983 -0.4222
31102W        W44516  11.626  10.158   3.416  0.0462 -0.3179  0.0838
31103W        W44517   7.130  15.661   3.127 -0.0530  0.4131 -0.1322
31104W        W44518  10.713  16.516   4.511  0.1308  0.0109 -0.1884
31105W        W44519   6.276  17.943   2.550 -0.0888 -0.1663  0.0604
31106W        W44520  11.648  15.031   0.271  0.0260 -0.2932 -0.0637
31107W        W44521   3.933   4.967  15.133 -0.1689  0.1100 -0.0975
31108W        W44522   7.740  13.001  10.786  0.0680 -0.0072  0.0402
31109W        W44523   7.271   2.651   5.619  0.1749 -0.0265  0.0105
31110W        W44524   3.828  13.496  15.403 -0.1750 -0.1346 -0.3320
31111W        W44525   2.514  15.295   5.544 -0.2180 -0.0689 -0.0235
31112W        W44526   2.645  16.361  12.054 -0.2127 -0.1113  0.1052
31113W        W44527  10.091   0.349   4.308  0.1153  0.0156 -0.2503
31114W        W44528  10.888  16.015  13.746 -0.1460 -0.0331  0.1281
31115W        W44529  16.606   5.073   0.104  0.2404 -0.2652 -0.1030
31116W        W44530   9.621   1.670   2.871 -0.4569 -0.0903  0.0552
31117W        W44531   8.872   4.048  14.065  0.0696  0.0563  0.1419
31118W        W44532   2.433  12.863  13.353  0.1223  0.2727 -0.2682
31119W        W44533   3.075   8.882   1.052 -0.1586  0.1067 -0.0484
31120W        W44534   1.408   1.842   0.548 -0.1341 -0.0843  0.0618
31121W        W44535   9.530   4.620   4.860 -0.1010 -0.1837  0.0843
31122W        W44536   4.225   2.079  10.501  0.1654  0.2001 -0.0247
31123W        W44537  17.951   0.047  12.819 -0.0601  0.1768 -0.2391
31124W        W44538  12.713  16.742  13.869  0.0186  0.1154 -0.0648
31125W        W44539  18.016  17.794  13.651  0.1039 -0.4041  0.1152
31126W        W44540   0.000  17.686  16.081  0.1547 -0.1263 -0.1978
31127W        W44541  14.099   9.484  15.480  0.2110  0.0779 -0.2554
31128W        W44542  16.362   5.563  11.557  0.1295  0.0587 -0.1112
31129W        W44543   0.478  10.047  14.526  0.0989  0.3156  0.0019
31130W        W44544  16.874   5.724  14.154 -0.1359 -0.0207  0.0816
31131W        W44545   2.941   8.789   6.121 -0.0472  0.1918  0.2096
31132W        W44546   2.089   0.862   0.537 -0.0496 -0.0371 -0.2024
31133W        W44547   2.181  16.269  15.909  0.1383  0.1048 -0.0015
31134W        W44548   8.084  11.449   5.459  0.0529 -0.2238  0.2038
31135W        W44549   0.592   4.473  14.155 -0.3434  0.1974  0.0539
31136W        W44550  13.591  10.344  12.810  0.0816 -0.0609  0.0828
31137W        W44551  15.377  14.042  15.099 -0.1468 -0.1146 -0.0017
31138W        W44552  12.165  17.520  10.791  0.0070 -0.0730  0.1521
31139W        W44553  11.323   0.682  10.152  0.0259 -0.0084  0.1483
31140W        W44554  16.127  15.296   3.826 -0.0384 -0.0444  0.1087
31141W        W44555   2.012   1.365   3.089 -0.0005  0.2637  0.0040
31142W        W44556  17.178  15.042  12.887 -0.1928 -0.1019 -0.0479
31143W        W44557  13.906   1.637  13.345 -0.0335 -0.0490 -0.1671
31144W        W44558  12.771   3.204   4.752  0.2380  0.4227  0.1128
31145W        W44559   5.072   8.392  11.115  0.0185 -0.2889 -0.1556
31146W        W44560  18.356   0.302  12.665  0.0098 -0.0370  0.0791
31147W        W44561   7.216  16.834  14.590 -0.0197 -0.1832  0.2365
31148W        W44562  14.918  13.128   1.593  0.1519 -0.0779 -0.0770
31149W        W44563   9.695  10.918  11.403  0.1882 -0.0076 -0.0645
31150W        W44564   4.795  12.116  10.392  0.1366 -0.2696  0.2083
31151W        W44565   3.649   7.666   4.719 -0.1221  0.0064 -0.1118
31152W        W44566   6.520   5.263  14.287  0.3834  0.0135 -0.0072
31153W        W44567   2.292   6.709   0.275  0.3723  0.1328 -0.1998
31154W        W44568   2.761  13.043  13.762 -0.1030 -0.3346 -0.1775
31155W        W44569  10.725   3.591  15.167  0.2825 -0.4346  0.0059
31156W        W44570   4.565   4.970   2.641  0.1819  0.2856  0.3124
31157W        W44571   7.767   6.062  14.214 -0.2754  0.0575  0.2348
31158W        W44572  17.298   9.936  11.388  0.0233 -0.2305 -0.1895
31159W        W44573  13.314   4.727  11.407  0.2426  0.0088 -0.1034
31160W        W44574   9.593   8.555   5.442  0.1831  0.1370  0.1168
31161W        W44575  14.334  13.608   1.004 -0.1307  0.1278 -0.1446
31162W        W44576   3.047   4.796  11.741 -0.0210 -0.1246 -0.1038
31163W        W44577   8.656   4.976   0.495  0.1060  0.0214 -0.1655
31164W        W44578   6.979  17.166   0.613  0.0820 -0.0789 -0.1085
31165W        W44579  15.004   3.836   3.003  0.1285  0.0477  0.0192
31166W        W44580   3.763   1.200   2.912  0.0190 -0.1173 -0.4380
31167W        W44581  17.993   6.346  11.543  0.0243  0.2006  0.1289
31168W        W44582  12.076   0.074  12.275 -0.1966 -0.1870 -0.1197
31169W        W44583  12.796  18.346   2.129 -0.0467  0.2836 -0.0919
31170W        W44584  16.086   7.832   5.284 -0.2011  0.1821  0.1346
31171W        W44585  15.575   8.755  12.627  0.1975 -0.2947  0.0530
31172W        W44586  14.645  16.466  12.381  0.0845 -0.0758  0.0071
31173W        W44587   8.290   3.901  14.834 -0.1079 -0.1241  0.0018
31174W        W44588   1.928  13.047  14.102  0.2451 -0.0310 -0.1075
31175W        W44589   9.924   6.012   2.791 -0.1860  0.1649 -0.1474
31176W        W44590  10.180  10.224  10.976 -0.0772 -0.1246  0.0273
31177W        W44591   1.057  15.426   2.688  0.3268  0.0591 -0.1270
31178W        W44592  10.345  12.454  11.973  0.1167  0.1342 -0.1123
31179W        W44593  13.816  12.601   1.250 -0.0161 -0.0861 -0.2742
31180W        W44594   5.132   7.207  12.420  0.2112 -0.1921 -0.1678
31181W        W44595   1.947   1.269   0.852  0.0782 -0.1396  0.1855
31182W        W44596   5.826  18.185  10.163  0.0006 -0.1032  0.1003
31183W        W44597   6.651   4.591   4.325 -0.0210  0.0550  0.0708
31184W        W44598   6.571  14.334  10.422  0.3325  0.0645 -0.0258
31185W        W44599   8.700   1.299   4.337  0.3369 -0.1009 -0.0630
31186W        W44600  12.409   0.424  13.490 -0.0025  0.2853 -0.0075
31187W        W44601  14.769  11.670   3.474  0.0043  0.2045 -0.1550
31188W        W44602  17.949   9.897   4.517  0.0940 -0.0568 -0.0916
31189W        W44603   4.196  16.408   0.088 -0.1251  0.0966  0.1290
31190W        W44604   4.612  12.709   2.121 -0.1565 -0.1060 -0.0730
31191W        W44605   1.997   1.852  12.865 -0.1107 -0.0602  0.2605
31192W        W44606   7.062   4.346  12.658 -0.0667 -0.1807  0.2150
31193W        W44607  15.384   6.751   3.050 -0.0127 -0.0681 -0.1322
31194W        W44608   8.592   2.075   4.882  0.0221  0.0356 -0.0108
31195W        W44609  10.946  10.602   1.529  0.0171  0.1260  0.0722
31196W        W44610   5.915  17.084  13.148  0.2426  0.0126  0.0320
31197W        W44611   1.286  10.042   0.750 -0.0789  0.0846  0.1711
31198W        W44612   8.136  17.881   5.164  0.1075 -0.1681 -0.0384
31199W        W44613   5.608   6.576  13.007 -0.3346 -0.2375  0.1221
31200W        W44614   9.773  11.453  12.890 -0.1804  0.0574  0.1466
31201W        W44615   1.797   6.487   2.435  0.2234 -0.0908 -0.1600
31202W        W44616  14.805  11.681   2.570 -0.0557  0.1288  0.0745
31203W        W44617  16.569  14.866   2.001  0.2114 -0.0020 -0.0650
31204W        W44618  17.719   3.745  15.168  0.1589  0.1299 -0.0165
31205W        W44619  17.615  13.568  12.250  0.0573  0.0806  0.1527
31206W        W44620   2.517   8.869  15.225  0.1271 -0.0554  0.1898
31207W        W44621   4.663  12.991   2.628  0.0342  0.2583  0.0478
31208W        W44622   9.789   1.329  12.929 -0.0025 -0.1027 -0.0679
31209W        W44623   7.713  17.464   2.549  0.0348 -0.0621 -0.0876
31210W        W44624   7.880  12.289  14.253  0.0880  0.1157 -0.2282
31211W        W44625   7.973  13.458  14.091 -0.2435  0.3041 -0.2161
31212W        W44626  10.164   2.923  15.566 -0.0042  0.0837 -0.1602
31213W        W44627  14.802   1.888  13.856 -0.1481 -0.0541  0.0606
31214W        W44628   7.380   3.875  12.961  0.0970  0.0594  0.1121
31215W        W44629  17.093  11.721  13.702  0.0344 -0.2249  0.0696
31216W        W44630   2.485   4.019   0.517  0.0569  0.1159  0.1461
31217W        W44631   6.082   9.061  11.244 -0.2765 -0.2169  0.0555
31218W        W44632  17.607   8.583   2.329  0.0989  0.0650 -0.0011
31219W        W44633   5.224  10.876  12.514  0.1305  0.0104 -0.0140
31220W        W44634   2.980   6.163   3.434  0.0814  0.0077 -0.0768
31221W        W44635   8.152   9.246   0.193  0.0758 -0.2877 -0.1951
31222W        W44636   5.357   7.085   2.661 -0.2309  0.0977  0.4339
31223W        W44637   9.298  11.803  14.648  0.0323  0.0612  0.0571
31224W        W44638   9.671  14.279   1.976 -0.1110  0.0003  0.2161
31225W        W44639  13.122  13.129  13.451  0.3636  0.0108 -0.1842
31226W        W44640   9.048  12.607  11.751  0.1087 -0.1243 -0.0270
31227W        W44641   6.016   8.205   3.254  0.0228 -0.2181 -0.1110
31228W        W44642  15.509   2.082   5.048 -0.0231  0.0232  0.2137
31229W        W44643  16.883  16.815   2.989 -0.2607  0.2388 -0.1292
31230W        W44644  13.967  14.886   1.307  0.1167 -0.0989 -0.1677
31231W        W44645  17.668  13.407  14.930 -0.1594 -0.0900  0.1381
31232W        W44646   9.911   1.814  11.138 -0.2172 -0.0479 -0.0795
31233W        W44647  12.178  10.186   3.962 -0.1253  0.1829 -0.2686
31234W        W44648   8.740   9.506  15.376 -0.1736 -0.4141 -0.0500
31235W        W44649  17.793   4.430  13.418 -0.0690  0.1338 -0.0818
31236W        W44650   7.158   3.431  15.169 -0.2721 -0.0412 -0.0852
31237W        W44651   6.143  11.800   4.638  0.1459  0.1052  0.0385
31238W        W44652  10.307  14.638   5.390 -0.1725 -0.0415 -0.1142
31239W        W44653   6.835   5.378   4.020 -0.1261  0.2440 -0.2985
31240W        W44654   2.432   7.018  10.609  0.0420 -0.1583  0.2187
31241W        W44655  12.975  13.900   5.630 -0.1503 -0.0264  0.0279
31242W        W44656   5.624   8.549  12.767 -0.0264 -0.0290  0.3089
31243W        W44657   9.095   6.960  15.281 -0.2836 -0.1998 -0.3232
31244W        W44658  14.840   1.515  16.065  0.1450  0.1820 -0.2171
31245W        W44659   3.953   1.829   1.848 -0.0896 -0.3021  0.1206
31246W        W44660  16.757  12.647  15.793  0.1854  0.0181 -0.2156
31247W        W44661   4.109   6.615  12.073 -0.4872 -0.2593 -0.1572
31248W        W44662  14.957   1.068  13.756 -0.1020  0.5990 -0.1742
31249W        W44663  15.106  11.245   3.303 -0.0810  0.4498 -0.0105
31250W        W44664  14.709  15.238  15.856  0.0560 -0.2836  0.0435
31251W        W44665  10.249   3.890   3.344 -0.0473 -0.4595  0.1797
31252W        W44666   0.391   6.480   3.557 -0.0713  0.1038 -0.0794
31253W        W44667   3.761   5.850   1.692  0.1812  0.2688  0.1040
31254W        W44668   9.899  10.311   5.543  0.1894 -0.0485 -0.1540
31255W        W44669  14.201   7.994  15.110  0.1125  0.3033 -0.0952
31256W        W44670   3.598   3.151   3.658 -0.0652 -0.0784 -0.1364
31257W        W44671  10.127   3.756   5.690 -0.0912 -0.1710 -0.1279
31258W        W44672  17.482  15.216  11.514 -0.0446  0.1691 -0.0841
31259W        W44673   4.514  11.623   0.331 -0.3787 -0.0985  0.3787
31260W        W44674   9.641   1.424  15.552  0.0219 -0.0435  0.0793
31261W        W44675   0.309   3.376  13.283 -0.1671  0.0331  0.0405
31262W        W44676   6.263  14.942   2.758  0.1835  0.1376  0.0632
31263W        W44677   0.884  13.871   3.899  0.0551 -0.0997  0.0228
31264W        W44678  15.167  14.195   5.453 -0.0902  0.1151 -0.0422
31265W        W44679   7.440  13.429  14.928  0.3403 -0.3144  0.3793
31266W        W44680   8.468  12.200  14.946  0.0343  0.1084 -0.0572
31267W        W44681   8.204   0.434  15.923 -0.2861  0.1834 -0.0700
31268W        W44682  15.817   5.638  11.434  0.0661 -0.1910 -0.0936
31269W        W44683   8.485  12.643  13.955  0.2777 -0.2832  0.3419
31270W        W44684   7.504  16.177   3.374 -0.1501  0.1643  0.0044
31271W        W44685   1.120   6.433   4.730  0.1258  0.0933 -0.0480
31272W        W44686  14.387   1.320   1.869  0.0381  0.0576 -0.1155
31273W        W44687   8.428   7.245   2.735 -0.1438  0.1355  0.0663
31274W        W44688   9.863   9.039  15.772  0.2574 -0.2415  0.0530
31275W        W44689  15.007  11.240  14.207 -0.2017 -0.2283 -0.0623
31276W        W44690  15.595   7.794  10.701 -0.0513 -0.0026  0.0844
31277W        W44691  14.744   2.089  15.421  0.3068  0.2505  0.2646
31278W        W44692   9.677   6.485   5.354 -0.0898  0.0017 -0.0688
31279W        W44693  11.598   8.374  15.730  0.0614 -0.0243 -0.3303
31280W        W44694  16.616  14.225  11.957  0.1313 -0.0175 -0.2810
31281W        W44695  11.104   0.248  14.295  0.0499 -0.2637  0.2569
31282W        W44696   4.901   0.156   4.066 -0.2882 -0.1303  0.0785
31283W        W44697  13.315  10.155  14.684 -0.0980  0.0157  0.0203
31284W        W44698  15.443   2.808  15.525  0.2106 -0.0498 -0.0480
31285W        W44699   6.617   1.714   5.933  0.0650 -0.2983 -0.2917
31286W        W44700   6.181  12.546   4.892  0.1350 -0.0829 -0.2491
31287W        W44701  13.709  17.871  15.485  0.1895  0.1170  0.3323
31288W        W44702  12.755   0.773   1.496  0.1425 -0.1682  0.2071
31289W        W44703   8.950  14.216  10.322 -0.0359  0.1207 -0.0276
31290W        W44704   0.822  11.547   6.344 -0.0532  0.1307 -0.2096
31291W        W44705  17.685   0.524   3.984  0.2564  0.0970  0.0279
31292W        W44706  12.898   9.276  12.322 -0.2491 -0.0221 -0.1703
31293W        W44707   1.472   6.409  15.390  0.2804  0.0227  0.2564
31294W        W44708  13.593   9.650  15.917  0.0247  0.2193  0.0413
31295W        W44709  16.341  10.223  13.603 -0.0890  0.0434  0.1199
31296W        W44710   2.227   0.691  15.797 -0.0715  0.2480  0.0541
31297W        W44711   7.368   0.560  14.220 -0.1457  0.0712 -0.1342
31298W        W44712   6.913   3.203   0.281 -0.0413  0.2152  0.3114
31299W        W44713  10.216  12.842   0.245  0.0163  0.1757 -0.3623
31300W        W44714   9.122  13.140   2.233 -0.0675  0.1312 -0.0147
31301W        W44715  17.071  17.122  11.309 -0.0590  0.1814  0.1452
31302W        W44716   1.663  15.884   0.467 -0.0695  0.0646  0.0828
31303W        W44717   0.348  15.508   5.523  0.1073  0.0507 -0.2790
31304W        W44718   1.412   3.026   6.181  0.2194  0.1247 -0.1377
31305W        W44719   5.881  16.958  10.226 -0.0269  0.3010 -0.0067
31306W        W44720  18.105   9.129   3.955  0.0762 -0.0527  0.1633
31307W        W44721   9.406   7.850   2.867 -0.1340 -0.0437 -0.0823
31308W        W44722  15.945   7.071  12.466  0.0598  0.0198 -0.1909
31309W        W44723  10.240   3.041   0.613 -0.1661 -0.0749 -0.1524
31310W        W44724   5.654  17.142  15.649  0.0479 -0.2797  0.0443
31311W        W44725  11.280   6.580  12.033  0.1764 -0.2197  0.1557
31312W        W44726  17.406   7.112   5.958  0.1492  0.0247  0.2767
31313W        W44727  10.323   5.022   1.746  0.1083 -0.0737 -0.2935
31314W        W44728  16.599  17.463   0.314 -0.2920 -0.0778 -0.1805
31315W        W44729  12.657  15.711  16.081 -0.0199 -0.1714  0.4022
31316W        W44730  18.324   4.922  13.070  0.0933  0.1025  0.0729
31317W        W44731   9.937  18.150   5.077 -0.0208 -0.0334 -0.1034
31318W        W44732   6.662   8.626   1.881 -0.3925  0.0265  0.4404
31319W        W44733   4.564  10.494   4.085  0.0695  0.0443 -0.0325
31320W        W44734   6.777  15.763  13.865  0.0138 -0.1539  0.3177
31321W        W44735  15.453   0.785  13.439 -0.2660  0.1732 -0.0258
31322W        W44736   1.671   2.503  15.290  0.1374  0.3272 -0.1354
31323W        W44737   6.471  14.861  11.487 -0.0216 -0.0911 -0.1323
31324W        W44738   0.595  10.593  14.035  0.1010  0.1891 -0.2453
31325W        W44739  18.283  14.254   2.653  0.1187  0.0004  0.0944
31326W        W44740  16.145  10.310  11.271  0.0673 -0.0269 -0.0669
31327W        W44741   9.600   7.884  12.549  0.5700  0.2278  0.1052
31328W        W44742   6.172   7.158  10.572 -0.2372 -0.0828 -0.0091
31329W        W44743   2.104  18.065  12.601 -0.0934  0.0177 -0.0813
31330W        W44744   2.705   8.736  12.107  0.1080 -0.0611 -0.0529
31331W        W44745  10.013  17.438   0.628 -0.0198  0.3169  0.0557
31332W        W44746   5.883  18.059  12.726  0.0511 -0.0137  0.0318
31333W        W44747  10.685   9.276   1.813 -0.1048 -0.0324  0.0677
31334W        W44748  12.250  17.525  13.571  0.2551 -0.1826  0.2412
31335W        W44749  14.116  13.898  13.107 -0.1369  0.0022 -0.2056
31336W        W44750  17.425  13.995   2.730  0.0254  0.1712  0.3530
31337W        W44751   6.051  14.266   5.413  0.0285 -0.1030 -0.0773
31338W        W44752   9.635  16.898  12.597 -0.0983  0.2943 -0.0964
31339W        W44753  15.370  16.373   5.103  0.1595 -0.1532 -0.1541
31340W        W44754  18.448  18.492   0.974  0.0382 -0.2883 -0.0020
31341W        W44755  10.593   3.857   6.502  0.0599 -0.0560  0.0960
31342W        W44756  15.687  16.761  15.816  0.1660 -0.0233 -0.1224
31343W        W44757   5.635   8.819   1.256 -0.2506 -0.1317  0.0421
31344W        W44758  10.693   4.797   0.999  0.0716  0.0810 -0.3774
31345W        W44759  14.517   6.886  10.000 -0.0069 -0.0350 -0.0556
31346W        W44760   5.907   8.310  15.371 -0.0652  0.1621 -0.0444
31347W        W44761   5.950   4.042   2.025  0.3051  0.1192 -0.0433
31348W        W44762   7.248  13.486  15.496  0.0044 -0.0989  0.0565
31349W        W44763  17.171   1.713  14.911  0.0956 -0.0658  0.1327
31350W        W44764  18.229   0.274  13.253 -0.0337 -0.0782 -0.0017
31351W        W44765  16.231   2.215  12.199 -0.1127 -0.0181 -0.2283
31352W        W44766   4.343   1.642   0.522 -0.0839 -0.1923  0.1119
31353W        W44767  12.150  15.350   0.138  0.0518  0.0336  0.0837
31354W        W44768   1.691   8.933  12.274 -0.0911 -0.3592 -0.2909
31355W        W44769   6.352   7.769  12.749  0.3941 -0.0619 -0.1116
31356W        W44770   7.291  11.962  10.782 -0.1709 -0.1483  0.0577
31357W        W44771  11.719   1.516   2.708 -0.0845 -0.0252 -0.3563
31358W        W44772   0.427  15.906   4.674  0.1545  0.0879 -0.0505
31359W        W44773  13.009   3.154   6.108  0.3059  0.1266 -0.0684
31360W        W44774   0.739  14.977   0.516 -0.2398  0.2823  0.0724
31361W        W44775  14.982  15.935  14.465  0.1254 -0.2284  0.1381
31362W        W44776  14.133   9.190  14.110 -0.0354  0.1035  0.1178
31363W        W44777   9.664  15.975   5.291  0.2314  0.1629  0.1936
31364W        W44778  16.091   1.049  14.380  0.0515  0.0613 -0.1311
31365W        W44779  15.987   9.907  13.645  0.3067  0.0260  0.0304
31366W        W44780   2.090   9.973   5.029 -0.1575  0.1415  0.2887
31367W        W44781  11.985  14.848   5.392 -0.0391 -0.1643  0.0217
31368W        W44782  14.314   1.575   4.769  0.0676 -0.1670 -0.1391
31369W        W44783  12.112   3.594  15.744  0.0052  0.0301  0.1195
31370W        W44784  12.962  12.208   2.754  0.0508  0.0593  0.1490
31371W        W44785  13.068   8.376  14.071  0.0256  0.3974 -0.1436
31372W        W44786   5.645   6.356  14.608 -0.2315 -0.1726  0.0071
31373W        W44787  18.232   7.480   2.416 -0.1501  0.2845  0.2077
31374W        W44788  15.346   8.556   4.198  0.3524 -0.2184 -0.1506
31375W        W44789   0.920  11.905   2.420 -0.1396 -0.1605 -0.0863
31376W        W44790   1.256  10.091   1.228  0.0810  0.0116  0.2807
31377W        W44791   1.895   8.587  11.198 -0.0507 -0.3153  0.2174
31378W        W44792  13.079   3.539   4.557  0.0124 -0.3502 -0.0736
31379W        W44793  10.823   2.004  15.964  0.3468  0.0851 -0.1305
31380W        W44794  11.142   4.291  14.662  0.1886 -0.0290 -0.1466
31381W        W44795  12.280   9.623  12.612  0.0163 -0.0047  0.0575
31382W        W44796  13.147  12.751   1.232 -0.1056 -0.1223  0.0118
31383W        W44797   0.036  10.348   0.249  0.1227 -0.0483  0.0989
31384W        W44798   1.142  10.747  11.124  0.2278 -0.2060 -0.1073
31385W        W44799   0.569   8.123   4.808 -0.0326 -0.1493  0.2391
31386W        W44800  11.126   0.745   1.242 -0.0579  0.0245 -0.0659
31387W        W44801   8.588   0.013   1.115 -0.1231 -0.0655 -0.0053
31388W        W44802   3.323   1.869   2.874 -0.3723  0.1051  0.3863
31389W        W44803  16.021   0.044   1.096 -0.0256  0.2079  0.0482
31390W        W44804   9.843  14.906   3.406 -0.0811  0.1136 -0.0771
31391W        W44805  12.406   8.221  11.822  0.1686 -0.0386  0.0144
31392W        W44806  17.548  15.884  16.215 -0.1323  0.0816  0.2336
31393W        W44807   8.719   3.591   6.164  0.3612 -0.3346  0.0204
31394W        W44808  15.110  14.076   0.104 -0.1786  0.1063  0.0847
31395W        W44809   8.971  15.939   1.709 -0.4087  0.0762  0.0571
31396W        W44810   0.652   9.247   2.571 -0.0317  0.2608  0.0063
31397W        W44811   3.211   9.486  13.022  0.2576 -0.3407 -0.1954
31398W        W44812   3.040  16.181  10.388  0.1527 -0.0658  0.0468
31399W        W44813   2.070   0.542   1.180  0.1478 -0.0812 -0.0003
31400W        W44814  10.703   4.633   3.270 -0.0501  0.0252  0.0031
31401W        W44815   0.002   4.493  15.411 -0.0150 -0.0650 -0.0559
31402W        W44816   6.969   1.764  15.677  0.1591 -0.2623 -0.1517
31403W        W44817   0.027   4.478   0.508  0.1695 -0.0892 -0.0844
31404W        W44818  12.577  18.003  12.456 -0.0238 -0.1120 -0.1137
31405W        W44819   8.717   6.421   4.805 -0.1667  0.0949  0.2819
31406W        W44820  16.178  13.820  12.521  0.2571  0.0730  0.2048
31407W        W44821   1.712   7.420   0.318  0.1291 -0.2185 -0.3031
31408W        W44822   6.998   4.831  12.951 -0.1428 -0.4375  0.2051
31409W        W44823   0.657   7.562  13.732  0.0133  0.0101 -0.0721
31410W        W44824  11.804   6.608  13.492  0.0043 -0.0770  0.1378
31411W        W44825  17.334   3.081   4.108  0.1120  0.3524 -0.2599
31412W        W44826   7.697   3.856  12.143  0.2893 -0.1921 -0.2869
31413W        W44827   5.973   9.604   1.250  0.0829 -0.2612  0.2475
31414W        W44828   9.193   4.357   2.252 -0.2362 -0.0972  0.1439
31415W        W44829   5.169   5.931  12.670 -0.1575  0.0873  0.1079
31416W        W44830  16.498   6.292   0.915 -0.0464 -0.1702  0.1830
31417W        W44831   7.697  15.858   5.372 -0.0998  0.2778  0.0739
31418W        W44832   9.376  11.776   1.122 -0.1807  0.0574 -0.2413
31419W        W44833  10.637  18.410   4.735 -0.0023 -0.1651  0.0442
31420W        W44834  12.694  16.774   0.947 -0.0493  0.2461  0.1480
31421W        W44835   6.270  13.465  12.961 -0.3147 -0.0565 -0.0546
31422W        W44836  17.272   8.267   1.180 -0.0934  0.0228 -0.0652
31423W        W44837   0.983   8.943  12.144  0.1105  0.2631 -0.1895
31424W        W44838   4.082   1.741   4.732 -0.0136 -0.1771 -0.0321
31425W        W44839   6.123  10.056   0.502  0.2533 -0.0865 -0.1055
31426W        W44840  13.688   1.913   1.668 -0.1039 -0.1280 -0.0820
31427W        W44841  11.053  12.280  11.149  0.2027  0.0162  0.0201
31428W        W44842   4.586  11.084  14.512 -0.3081  0.1319  0.0230
31429W        W44843  10.155   8.147   5.112 -0.1277  0.1353  0.0187
31430W        W44844  15.932   9.238  14.593 -0.0477 -0.2031 -0.0504
31431W        W44845  18.453   0.257  16.249 -0.2915  0.0148 -0.3981
31432W        W44846   1.040   3.153  12.936  0.2816  0.1051 -0.1655
31433W        W44847   8.943   1.171  11.492 -0.0211  0.1566  0.0105
31434W        W44848  11.916  13.048   3.957 -0.0282 -0.0482 -0.3289
31435W        W44849   4.267  13.880   3.586 -0.0631  0.0435 -0.3489
31436W        W44850   4.063   8.232   5.429 -0.3923  0.0356  0.0815
31437W        W44851   5.710  11.121  10.453 -0.3437  0.3088 -0.0659
31438W        W44852  11.724  14.270   1.139  0.0166 -0.1020 -0.3327
31439W        W44853  13.615   2.285   4.904  0.1771  0.3947 -0.0025
31440W        W44854   6.274  14.050  11.219  0.1157 -0.0686 -0.2713
31441W        W44855   3.045   4.591   1.494 -0.3160  0.5304  0.0609
31442W        W44856   9.867   3.923   0.432  0.0345 -0.0423  0.0595
31443W        W44857   6.314   4.341   4.045 -0.1681  0.1057  0.1325
31444W        W44858   3.751   1.144   5.365  0.3926 -0.0729 -0.2092
31445W        W44859  15.553   0.410  10.281  0.0130 -0.1490 -0.1169
31446W        W44860  12.851   1.036  13.003 -0.0917 -0.0353  0.1360
31447W        W44861  17.202   7.546   5.555  0.1831  0.0113 -0.2024
31448W        W44862   1.466   1.245  15.356  0.1574  0.0184  0.0614
31449W        W44863   5.820  15.003  10.238  0.0462  0.0170 -0.1021
31450W        W44864   0.121   7.385  16.054 -0.2454 -0.4108  0.2165
31451W        W44865  10.287   8.944  11.037  0.0132  0.0897  0.0238
31452W        W44866   6.796   1.726  11.960  0.0352  0.2345 -0.1710
31453W        W44867   0.685   3.496  13.596 -0.2892  0.0916 -0.2006
31454W        W44868  17.043  10.551   3.642  0.1837 -0.0255 -0.1151
31455W        W44869   1.233  12.053  13.687 -0.1069 -0.1782  0.0707
31456W        W44870   1.976  17.123   0.593  0.7186  0.0297  0.2176
31457W        W44871   6.974  17.342  13.191  0.2255 -0.1190 -0.1453
31458W        W44872  12.319  17.778  14.788 -0.1226 -0.1054  0.0294
31459W        W44873   8.373   5.348  15.800  0.2396 -0.0101 -0.0475
31460W        W44874  10.444   6.451   4.317  0.1235 -0.0443  0.0759
31461W        W44875   1.510   7.341   2.953  0.1615 -0.1023  0.1423
31462W        W44876  14.016   2.792  12.136  0.1198  0.1426  0.0396
31463W        W44877  18.012  12.011  10.923  0.2928  0.0811  0.1662
31464W        W44878  11.016  18.255  10.326  0.1384 -0.2354  0.2632
31465W        W44879   2.673   3.915   1.075 -0.1911 -0.2902 -0.2153
31466W        W44880  15.042   9.583   3.678  0.0256  0.0074 -0.2011
31467W        W44881  15.714  10.630  11.396  0.3365 -0.3499  0.0650
31468W        W44882   9.803   8.776  14.259 -0.3094  0.1373  0.1514
31469W        W44883  14.492   0.771  14.527 -0.0092  0.3195 -0.0356
31470W        W44884   9.582   4.968   0.019 -0.0577  0.1978 -0.0188
31471W        W44885  17.504   6.148   2.365 -0.2534 -0.1104 -0.0052
31472W        W44886   8.626  10.914   6.071 -0.0250  0.2283 -0.2185
31473W        W44887  14.494   7.086  13.590 -0.0600 -0.1128  0.2612
31474W        W44888   0.709   8.815   5.558 -0.0072  0.0975  0.0185
31475W        W44889  12.978  14.975   0.350 -0.2729 -0.1114  0.0668
31476W        W44890   0.378  13.741   5.507  0.1190 -0.2063 -0.1189
31477W        W44891  13.387  14.007   2.413  0.2303  0.2209  0.1074
31478W        W44892   2.064  17.350  10.895  0.1171  0.3129 -0.2704
31479W        W44893  13.601   9.306  16.269  0.0672  0.2324 -0.1450
31480W        W44894  17.170  15.979   4.875 -0.0613  0.0363 -0.2175
31481W        W44895   7.790   0.521  16.184  0.1504 -0.2367 -0.0302
31482W        W44896  17.216   8.197   0.396  0.0495  0.1049 -0.2072
31483W        W44897   2.233   3.333  13.653  0.0419 -0.2834  0.1106
31484W        W44898   0.212  15.956   0.521 -0.2225 -0.1474  0.1013
31485W        W44899  13.757   6.790  13.253  0.1253 -0.0890 -0.1271
31486W        W44900   4.521  12.069   2.499 -0.0249 -0.0424  0.0695
31487W        W44901   8.564   8.428  15.038  0.2705  0.3164 -0.2475
31488W        W44902  18.513   0.495  14.325  0.1017  0.3180 -0.0442
31489W        W44903  16.734  17.484   0.832  0.2312 -0.1388  0.0323
31490W        W44904   1.388   5.032   1.860 -0.0190  0.2885  0.0841
31491W        W44905   9.192  14.342   4.894  0.0132 -0.1678 -0.0110
31492W        W44906   4.128  17.647  15.317 -0.2118  0.0754 -0.2921
31493W        W44907  12.299   2.366  14.060 -0.3020 -0.3534 -0.0640
31494W        W44908   8.864  14.957   3.805  0.1091  0.2967  0.0318
31495W        W44909   0.975   7.421  12.023 -0.0575  0.2025  0.0287
31496W        W44910   2.253  13.870   1.028 -0.4434 -0.0695  0.0290
31497W        W44911  12.062  12.158  12.538 -0.1173 -0.2092 -0.0041
31498W        W44912  18.141  13.547   3.649  0.0744  0.1290  0.3922
31499W        W44913  12.703  10.056   4.990  0.0424  0.2193 -0.1317
31500W        W44914   8.823  15.585   5.455 -0.0333  0.2736  0.2477
31501W        W44915   6.134  10.675  11.188  0.0048 -0.0711 -0.0208
31502W        W44916   6.089   1.344   1.758  0.2601  0.1231  0.2306
31503W        W44917   1.163  15.615  14.055 -0.0573 -0.1435  0.0568
31504W        W44918  17.459   0.215  10.069 -0.1147 -0.2102 -0.5362
31505W        W44919   6.382   2.260   2.991 -0.0249 -0.1222  0.0458
31506W        W44920  17.138  15.488   3.922 -0.2241  0.2279 -0.0200
31507W        W44921  12.496  14.008  14.740 -0.0098  0.0037  0.1366
31508W        W44922  10.989  17.944   3.147 -0.0114  0.1808 -0.0175
31509W        W44923   8.932  15.545  10.829 -0.0060 -0.3698 -0.1489
31510W        W44924  15.240  10.548   4.246  0.5274  0.0359 -0.2670
31511W        W44925  12.352  18.055   3.397  0.1771  0.0755 -0.5384
31512W        W44926   4.112   3.728  15.298 -0.1501  0.0590 -0.3205
31513W        W44927   6.343   1.643  10.367  0.2016 -0.2730 -0.4386
31514W        W44928   5.271   9.179   5.980 -0.2081 -0.0635  0.0462
31515W        W44929   8.567  12.476  15.865  0.1137  0.4993 -0.1284
31516W        W44930   6.890   9.671   0.183  0.0361  0.0244  0.1041
31517W        W44931  14.721   3.244  12.288  0.2474 -0.2704 -0.0566
31518W        W44932   2.454  16.516   3.871  0.0933 -0.1689  0.0679
31519W        W44933   1.110  14.284   5.784 -0.1306  0.1843  0.0916
31520W        W44934  11.122   3.885   4.898  0.0819 -0.0327 -0.3052
31521W        W44935   9.355   5.493   1.034 -0.1858  0.0118  0.1664
31522W        W44936   5.836   4.405   4.168 -0.1880  0.0488  0.0931
31523W        W44937  17.180   5.538  13.256  0.2729  0.1928 -0.0204
31524W        W44938  12.859   4.310   5.854  0.0876  0.2501  0.0983
31525W        W44939   0.084   6.707  13.635  0.2202  0.1079 -0.1006
31526W        W44940   7.935   8.513   3.388 -0.0593 -0.1988 -0.0764
31527W        W44941   3.614   8.014   1.750 -0.1866  0.1214 -0.0981
31528W        W44942  10.634   7.161   4.947 -0.0982  0.4500 -0.2004
31529W        W44943  10.128   6.771  15.118 -0.0066 -0.2990 -0.0850
31530W        W44944   9.932  12.767  10.775 -0.0236 -0.1564 -0.1223
31531W        W44945  18.300  18.503  11.302 -0.0947 -0.0623 -0.1416
31532W        W44946   3.037   4.954  14.679 -0.0402  0.2193  0.0799
31533W        W44947   7.632   1.180   1.210 -0.1269 -0.2567  0.1666
31534W        W44948   3.436   4.831   0.528  0.0509 -0.2156  0.0940
31535W        W44949  10.518  12.313   3.795  0.0062 -0.2093 -0.1801
31536W        W44950   9.562   2.739  12.260 -0.1345 -0.4097  0.5060
31537W        W44951   0.787   4.820  13.876 -0.2942  0.0472 -0.1591
31538W        W44952   9.316   2.363  13.408 -0.3780  0.0349 -0.0839
31539W        W44953   4.695  15.115  14.485  0.1889  0.0583 -0.1560
31540W        W44954  17.901   4.850   6.136  0.1593  0.0534  0.0827
31541W        W44955   8.794   6.636   6.065 -0.2217 -0.3275  0.2847
31542W        W44956  14.539   0.591   4.679 -0.0717  0.0129 -0.2627
31543W        W44957   5.100   7.372  13.065 -0.1059  0.0610 -0.4467
31544W        W44958   4.049  13.573   3.213 -0.0138  0.0674 -0.0455
31545W        W44959   2.593  16.279  10.571 -0.0435 -0.0266 -0.0963
31546W        W44960   9.894  11.496   0.391 -0.0609  0.3254  0.1157
31547W        W44961   9.260   0.307  12.027  0.2668 -0.1351 -0.0132
31548W        W44962  14.504   1.048  13.931  0.2865  0.0925  0.0531
31549W        W44963  10.121   1.675  13.087  0.1463  0.3892  0.1962
31550W        W44964   8.948  14.111  15.544 -0.0352  0.0256 -0.0300
31551W        W44965   8.014  18.130  11.596  0.0765 -0.0192  0.0754
31552W        W44966   1.858  18.060   1.262 -0.0524 -0.0149  0.1606
31553W        W44967  11.774   9.049   4.876  0.3066  0.4000  0.2126
31554W        W44968   9.169   9.862  13.086  0.2314 -0.1391  0.2082
31555W        W44969  16.460  17.535  15.380  0.0181  0.0111  0.0942
31556W        W44970  12.874   5.434  16.151 -0.2519  0.2519 -0.0869
31557W        W44971  11.207  12.753  10.860  0.1470  0.0392 -0.2916
31558W        W44972  17.244  10.556   5.950  0.0436  0.1239  0.0907
31559W        W44973   8.111  16.325   9.785  0.2958 -0.0370 -0.0943
31560W        W44974   2.625  17.899   4.071 -0.0905 -0.0049 -0.1740
31561W        W44975  15.340   8.933  15.079 -0.0530  0.0709  0.1442
31562W        W44976   0.408   7.364   0.846 -0.0544  0.0888 -0.0035
31563W        W44977  16.539   5.185  15.879 -0.0294 -0.1369 -0.0274
31564W        W44978   8.704   5.122   6.899 -0.0110  0.0912 -0.0731
31565W        W44979   3.735   4.863   6.344 -0.0079  0.0499 -0.4586
31566W        W44980   6.962  16.224   0.652 -0.0520 -0.1578  0.0331
31567W        W44981   2.536  12.774   2.962 -0.1992 -0.0641  0.2110
31568W        W44982   5.642   6.533  15.927  0.0695 -0.1070  0.2167
31569W        W44983   4.939   7.217   2.360  0.1212  0.1274 -0.0488
31570W        W44984   7.463   1.827   3.163  0.0414  0.3402 -0.0031
31571W        W44985   8.224   9.162  10.655 -0.0672  0.2958  0.2082
31572W        W44986   1.541   8.932   5.096  0.2218  0.4017  0.1395
31573W        W44987  13.974  17.216   2.665 -0.1294  0.1381 -0.0182
31574W        W44988   8.937  13.482  10.602  0.1475  0.3547  0.0767
31575W        W44989  16.265  13.115   1.675  0.1218  0.0744  0.1009
31576W        W44990  17.286  13.371  15.494 -0.1440  0.1353 -0.0026
31577W        W44991  16.246  14.687  13.817 -0.1586  0.0101  0.1609
31578W        W44992   1.591   5.155  10.922 -0.0499 -0.0412 -0.1710
31579W        W44993   6.983  12.134   2.113 -0.0431 -0.2164  0.1159
31580W        W44994  16.307   8.715   2.409  0.0050  0.0793  0.0592
31581W        W44995  10.611   4.209   3.996  0.4766 -0.1496  0.0341
31582W        W44996   2.964  18.059   4.399  0.0454  0.1015  0.1651
31583W        W44997  14.036   4.102  14.289  0.0519 -0.0022 -0.0170
31584W        W44998   4.297   2.622  11.938  0.1263  0.2341  0.0680
31585W        W44999   9.683  17.174  14.369  0.0677 -0.1547  0.0885
31586W        W45000   2.804   5.932  12.746  0.2546  0.1796  0.2040
31587W        W45001   0.943  12.143  14.750 -0.2563 -0.0463 -0.0681
31588W        W45002   5.932  14.716  11.576 -0.1043  0.2739  0.1072
31589W        W45003  10.800  12.504   4.450 -0.1049 -0.0628 -0.1057
31590W        W45004  12.920  17.098  15.817  0.6284  0.0455 -0.4238
31591W        W45005  18.391  15.510  12.818 -0.2269  0.0197 -0.4122
31592W        W45006  14.420   7.278   4.862  0.2581  0.2776 -0.3046
31593W        W45007  11.919  15.069  12.577 -0.1223 -0.0185  0.1620
31594W        W45008  13.362   7.026  15.444 -0.2748  0.0438  0.2465
31595W        W45009   1.681   9.422   0.641 -0.3148  0.0182  0.2707
31596W        W45010  13.499   0.873  12.423  0.2048  0.0186 -0.1146
31597W        W45011   1.308   0.262   4.597 -0.1113 -0.1666 -0.0827
31598W        W45012  18.071  10.195  11.976  0.0299  0.0183  0.0101
31599W        W45013  11.546   6.002  10.719  0.0841 -0.1477  0.0145
31600W        W45014  14.021  17.079   0.476 -0.1181  0.4571 -0.0423
31601W        W45015  14.180  11.927  11.369 -0.3962  0.0279 -0.0267
31602W        W45016   8.023   8.501  11.819  0.2662  0.3694  0.2000
31603W        W45017  12.659   1.383   1.229  0.1694 -0.0712 -0.0770
31604W        W45018  14.654   2.930   0.231  0.4047  0.0722 -0.2721
31605W        W45019   2.443   9.441  13.179  0.1444  0.0928 -0.0872
31606W        W45020   0.959   1.720  12.589 -0.0381 -0.1084  0.2176
31607W        W45021  10.114   5.359  15.668 -0.1899 -0.0926  0.0702
31608W        W45022   8.535   7.696  13.059 -0.1571 -0.0611  0.3773
31609W        W45023   1.454  16.090   6.211 -0.0156 -0.1196 -0.2109
31610W        W45024  17.194  15.582  12.425  0.1387  0.0051 -0.1322
31611W        W45025   8.921  13.402   3.581 -0.1435  0.0640  0.1314
31612W        W45026  13.321   5.941   1.452 -0.1669 -0.0552  0.1734
31613W        W45027  16.500  12.197   1.176  0.0426 -0.0931  0.1717
31614W        W45028   6.022  13.132   1.826  0.2883  0.0713  0.2250
31615W        W45029   6.638   8.902   1.347  0.2993 -0.1234  0.1750
31616W        W45030   6.037   8.533  11.450  0.1120  0.3124  0.3795
31617W        W45031   6.311  16.874  14.890 -0.0702 -0.0467  0.0526
31618W        W45032   3.311   8.033   4.683 -0.3419 -0.1095 -0.1270
31619W        W45033   3.837   3.123   4.601 -0.0374  0.0427 -0.1816
31620W        W45034  15.980   7.220   5.433  0.2015 -0.2226 -0.1075
31621W        W45035   9.641   6.423  12.131 -0.0869  0.0549 -0.1277
31622W        W45036   3.023   6.455   1.638 -0.0266  0.3712 -0.3887
31623W        W45037  12.362  13.215   0.697  0.0941 -0.1036  0.1489
31624W        W45038  10.629  17.608   0.353 -0.2022 -0.2730 -0.2653
31625W        W45039   1.595   3.250   5.682 -0.0004  0.0083  0.0346
31626W        W45040  14.633  12.977   4.688 -0.2652  0.1845  0.1096
31627W        W45041  13.956  10.820   2.456  0.1456  0.3426 -0.0837
31628W        W45042   2.643  14.691  11.578  0.0914  0.2193  0.2259
31629W        W45043   9.901   7.788  14.485  0.2301 -0.0222  0.1408
31630W        W45044  18.519  14.545   1.353 -0.0302 -0.2910 -0.1686
31631W        W45045  12.947  15.629  15.611 -0.1681  0.0279  0.0790
31632W        W45046  13.756  16.963  10.758  0.3015  0.3729 -0.2096
31633W        W45047   4.189   5.186   3.486  0.3523 -0.0592 -0.0119
31634W        W45048   4.556   9.095  12.614 -0.1890  0.2110 -0.2619
31635W        W45049   8.266   9.516  15.163  0.1345 -0.3247 -0.0647
31636W        W45050   4.167   0.923   5.371  0.1295  0.1031 -0.1252
31637W        W45051   6.980   9.525   4.497 -0.2308 -0.1021  0.1867
31638W        W45052  12.284  10.953   2.663  0.0265 -0.0792 -0.1577
31639W        W45053   2.014   2.799   3.429 -0.1953 -0.0778  0.2914
31640W        W45054   4.357   8.551   3.423 -0.4100 -0.2161 -0.0881
31641W        W45055  18.211  10.223   3.431  0.0740 -0.4751 -0.0918
31642W        W45056   7.060   8.786  11.910  0.2341 -0.0634 -0.1061
31643W        W45057  13.047   2.498  15.517  0.0073 -0.0078  0.0371
31644W        W45058   7.679   4.943   5.323  0.2158 -0.3941  0.1030
31645W        W45059   8.580   1.219  12.261  0.2963 -0.1877 -0.1055
31646W        W45060   0.266  10.379   0.760  0.3405 -0.0622  0.1520
31647W        W45061  14.436   8.472  16.178  0.3914  0.3347 -0.1041
31648W        W45062   9.524  14.149  11.755  0.1485 -0.0176 -0.2514
31649W        W45063   5.266  15.835  16.020  0.0238  0.0851 -0.3874
31650W        W45064  13.035   2.303   4.821  0.1356  0.1760 -0.1772
31651W        W45065  12.190  16.226  11.842  0.0220  0.0110 -0.1013
31652W        W45066   7.172   4.532  14.484  0.0222  0.0840 -0.0611
31653W        W45067   1.968  10.673   5.933 -0.0453 -0.2225 -0.0820
31654W        W45068   3.240  11.590  14.883 -0.0948 -0.0598  0.0242
31655W        W45069  15.839  10.092   4.000 -0.2065 -0.0434 -0.2541
31656W        W45070   7.009   2.884  13.974 -0.2749  0.0733  0.1660
31657W        W45071  14.498  15.348  12.156  0.2863  0.4016  0.1817
31658W        W45072   4.866  17.531   2.096 -0.5240 -0.0459 -0.2791
31659W        W45073  11.209  16.476   1.502 -0.0952 -0.1279  0.1157
31660W        W45074  11.897   7.274  12.802  0.1456  0.1168  0.4154
31661W        W45075  12.336   5.848  11.670  0.1226  0.1107 -0.0409
31662W        W45076  13.340  18.378  11.285 -0.1395 -0.1970 -0.0584
31663W        W45077   0.676  14.237   3.545  0.0087 -0.2411  0.2558
31664W        W45078  15.839  16.015   5.024  0.1644  0.2678 -0.2998
31665W        W45079   3.632   2.092   1.557  0.0498 -0.2933  0.1048
31666W        W45080  12.127   9.544   3.403 -0.1737 -0.0298 -0.2264
31667W        W45081   8.884   7.831   5.369 -0.2123 -0.0011  0.0876
31668W        W45082   3.443  14.724   1.060 -0.3974  0.0723 -0.3576
31669W        W45083  11.055  16.291   2.812 -0.0284 -0.0426 -0.0752
31670W        W45084   1.916  10.788   5.354 -0.0589  0.3638  0.2112
31671W        W45085   3.073  11.310   1.798  0.0618 -0.1798 -0.0753
31672W        W45086   9.495   3.770  13.128  0.1679 -0.0127  0.1282
31673W        W45087  11.629   5.217  13.627 -0.1412  0.1224 -0.3434
31674W        W45088  14.786   0.690  10.339 -0.0492  0.1827  0.0096
31675W        W45089  17.081   1.045   0.875 -0.0702 -0.0663  0.0366
31676W        W45090   2.023  18.188  15.880  0.0139 -0.0022  0.2269
31677W        W45091   0.467  14.786  11.881 -0.0244 -0.1427 -0.0031
31678W        W45092  13.963   8.377  11.079 -0.0046 -0.0028  0.1833
31679W        W45093   5.981   5.375  14.920 -0.3270  0.0998  0.1658
31680W        W45094   9.739   8.462  14.801  0.0225 -0.0143 -0.0518
31681W        W45095  13.164  15.007   5.336 -0.1556 -0.1281 -0.0408
31682W        W45096   8.082  10.996  15.324  0.2335  0.0953 -0.3091
31683W        W45097   8.718   4.259  13.123  0.1132  0.1561 -0.1773
31684W        W45098   8.816  11.549  12.547 -0.0528  0.0405 -0.3289
31685W        W45099   5.524   8.053  11.497  0.0139  0.3583  0.0887
31686W        W45100  17.301  18.421  15.523 -0.1789 -0.1136  0.1069
31687W        W45101   8.017  12.312   5.244  0.0098 -0.2563 -0.4278
31688W        W45102  15.105   8.775  11.753  0.6420  0.0122 -0.0772
31689W        W45103   8.166   9.597   1.701  0.0684  0.2451  0.0373
31690W        W45104  18.227   5.531  13.098 -0.2481 -0.0164 -0.0532
31691W        W45105  11.046   6.109  12.026  0.2174  0.0301  0.0091
31692W        W45106  16.490  18.418  14.957  0.1520 -0.2165  0.0267
31693W        W45107  17.269  11.435  11.664 -0.3616  0.0439 -0.2098
31694W        W45108   4.192  12.998  14.288  0.1822  0.1606 -0.2609
31695W        W45109   7.509   9.414   2.362  0.1152 -0.0967  0.2269
31696W        W45110  14.954  13.041  12.117  0.6119 -0.0738  0.1191
31697W        W45111   0.766   5.429   5.322  0.0137 -0.2178 -0.2524
31698W        W45112  11.021  14.794  11.845 -0.2845  0.1718  0.0045
31699W        W45113  14.465   3.451   2.861  0.0972  0.2170 -0.1683
31700W        W45114   0.814   8.015  13.487 -0.3184  0.2741 -0.2593
31701W        W45115  12.279  10.716   1.254 -0.2121 -0.1082  0.0499
31702W        W45116   9.841  17.034  13.435 -0.1441  0.0826 -0.1655
31703W        W45117  10.922   4.650  12.338 -0.2164  0.0233  0.2790
31704W        W45118  13.582   3.926  11.613  0.0536 -0.0491  0.2417
31705W        W45119  16.944   5.605  12.238  0.4794 -0.0259 -0.0537
31706W        W45120  13.211   9.365   1.203  0.2593 -0.1408  0.0674
31707W        W45121   8.763   2.152  10.348  0.1748 -0.0659  0.0973
31708W        W45122   0.621   1.970   0.335  0.0052  0.1126  0.0712
31709W        W45123   6.976   1.604   2.706 -0.1438  0.5867 -0.1192
31710W        W45124   4.428  11.467  11.680 -0.0161 -0.4719  0.0848
31711W        W45125   8.915  11.157   5.306 -0.3842  0.1944  0.1524
31712W        W45126  14.871   0.181  11.112 -0.1967  0.1278  0.1932
31713W        W45127   6.219  15.838   2.544  0.1536 -0.1972 -0.0831
31714W        W45128  13.921   7.798  13.087  0.3996 -0.0527 -0.1677
31715W        W45129   3.544   9.252   9.573 -0.1172 -0.2267 -0.3222
31716W        W45130  10.677  11.398   0.803  0.2625 -0.2993  0.1489
31717W        W45131  16.329   7.512   5.600 -0.2054  0.0057  0.1593
31718W        W45132   9.985  17.001   1.888  0.0451 -0.1083 -0.0016
31719W        W45133   0.869   1.868  14.281 -0.3299 -0.0728  0.0217
31720W        W45134  11.494   7.019  11.938  0.1814  0.0363  0.0787
31721W        W45135   9.652   4.470   0.157 -0.5067 -0.1041 -0.1226
31722W        W45136   2.333  11.441  14.548  0.4302 -0.0672 -0.0071
31723W        W45137  12.207  12.704   0.642 -0.2093  0.1805  0.2187
31724W        W45138  15.595  13.068  15.488 -0.1832 -0.1778  0.2216
31725W        W45139   5.966  15.871   2.996  0.1987 -0.0133 -0.2373
31726W        W45140   9.206   3.823  14.341  0.2100 -0.1096 -0.0343
31727W        W45141   0.365   4.236  14.735  0.3146 -0.3749  0.0487
31728W        W45142  12.220   1.662   3.007  0.1674 -0.1421  0.0434
31729W        W45143   8.852   7.055  15.838  0.0001  0.1792 -0.3205
31730W        W45144   5.509  15.536   4.251  0.1073  0.0741  0.1998
31731W        W45145   4.037   6.573  14.542  0.3855 -0.1426 -0.2315
31732W        W45146   4.522  18.047   4.162  0.1382 -0.1955 -0.1825
31733W        W45147  16.907  14.180  15.076  0.2154  0.2032 -0.1431
31734W        W45148  17.093  10.534   0.704  0.0644 -0.0630 -0.1945
31735W        W45149  13.090  11.447  13.062 -0.2660  0.0151  0.0484
31736W        W45150   9.576   1.955  15.990 -0.2075 -0.1020  0.3980
31737W        W45151   1.414  18.436   3.191  0.2979  0.0732 -0.1378
31738W        W45152  12.258  12.794  15.384  0.4473 -0.0467  0.5466
31739W        W45153   0.712   9.028  12.712  0.0291  0.0272 -0.0694
31740W        W45154  12.695   7.928   5.376  0.2117 -0.0557  0.0880
31741W        W45155   5.269   5.113  16.265 -0.0326 -0.2003 -0.0525
31742W        W45156   5.184   9.855   5.368  0.0366  0.1820 -0.2533
31743W        W45157  13.572  17.026   5.571 -0.0447 -0.2508  0.2827
31744W        W45158  13.905  12.512   2.930 -0.2202 -0.1107 -0.1364
31745W        W45159   9.244   4.830   5.250  0.0879  0.0191 -0.0862
31746W        W45160   3.011   6.284  13.175 -0.0445 -0.4773  0.0490
31747W        W45161   4.991   0.190  11.765 -0.1194 -0.1752  0.0049
31748W        W45162   6.324   3.695   5.425 -0.1411 -0.0929  0.0153
31749W        W45163   0.504   1.357   5.214 -0.3309  0.0865 -0.0863
31750W        W45164   7.538   5.017   2.241 -0.0620  0.3287  0.2048
31751W        W45165  10.232  12.034  10.826 -0.3378  0.3087  0.1911
31752W        W45166  14.173  16.742  12.639  0.4012  0.2064  0.1982
31753W        W45167   5.497  16.865   4.935 -0.2993 -0.2424 -0.1738
31754W        W45168  13.669   0.535   0.767  0.0393  0.0470  0.1214
31755W        W45169   3.655  12.818   4.652  0.1250  0.0994 -0.0405
31756W        W45170   3.610  11.188   6.139 -0.1449 -0.1401 -0.2447
31757W        W45171   5.347  16.602   3.122 -0.2076  0.1046 -0.0721
31758W        W45172   3.428  11.272  12.280  0.0499  0.0276  0.1578
31759W        W45173   7.746  18.410   0.500 -0.0823 -0.1875  0.3861
31760W        W45174   5.228   3.436   5.748  0.0560 -0.3855  0.2092
31761W        W45175   8.448  14.874   4.444  0.0977  0.0385 -0.0301
31762W        W45176   7.247   2.293   1.269 -0.2424 -0.0767  0.1126
31763W        W45177   5.237   2.674   4.568 -0.0521 -0.1639 -0.0509
31764W        W45178  12.248  14.079  12.245  0.0838  0.0687  0.0336
31765W        W45179   1.183   1.681  11.208 -0.0534 -0.0159 -0.1124
31766W        W45180   9.618   3.009  15.873 -0.2883  0.0860 -0.0686
31767W        W45181   1.374   9.053   0.780  0.1557  0.3746  0.0322
31768W        W45182  15.251   3.443  13.485  0.0133  0.2380 -0.2262
31769W        W45183  16.787   6.825   2.495  0.0680  0.5124  0.0196
31770W        W45184  11.567  16.898   3.926 -0.1811 -0.2490 -0.6224
31771W        W45185  14.243   1.274   1.085 -0.0823 -0.1399  0.3401
31772W        W45186   8.948  17.350  12.097  0.0528  0.0324  0.0768
31773W        W45187   0.795   3.056   3.733 -0.5514 -0.1565  0.1697
31774W        W45188  17.351   8.154   2.644 -0.1744 -0.0495  0.1535
31775W        W45189   0.836   1.627  15.963 -0.0151 -0.1471  0.0449
31776W        W45190   8.926   3.427  10.627  0.2042  0.3445 -0.2864
31777W        W45191  15.329  15.943  11.427 -0.2092 -0.1229 -0.0707
31778W        W45192  15.152   2.180   0.586 -0.2114  0.3745 -0.2338
31779W        W45193  12.513  10.725  16.157 -0.0755  0.2322 -0.0219
31780W        W45194   4.637  11.645  12.172  0.0600  0.2369  0.2196
31781W        W45195   2.501   6.496   3.371 -0.0549  0.0875 -0.1608
31782W        W45196   7.923   9.663   3.457  0.0690  0.0417  0.3159
31783W        W45197   9.873  16.198   1.062 -0.4567  0.1697  0.3199
31784W        W45198   3.258   1.513   0.826  0.1966  0.0040  0.0366
31785W        W45199  15.363  11.731  14.117  0.0251  0.0797  0.0912
31786W        W45200   4.521   5.176   0.505 -0.2132 -0.0811 -0.2837
31787W        W45201   9.411   3.037   4.603  0.1536 -0.1532  0.0723
31788W        W45202   8.676   4.280   4.598  0.1058  0.0029 -0.1233
31789W        W45203   7.389   6.602   3.386 -0.0058  0.0551 -0.1702
31790W        W45204   0.549  13.970  10.022 -0.2986 -0.1208  0.0098
31791W        W45205   5.629   2.577   3.252  0.0414  0.0886 -0.0586
31792W        W45206   2.223   0.897  10.502  0.3983  0.0239  0.5430
31793W        W45207  17.218   8.445   5.534 -0.2524  0.3392  0.1035
31794W        W45208   2.891   6.277  10.971 -0.0979  0.1834  0.1550
31795W        W45209   6.390  13.709   1.520  0.1520  0.4603 -0.1896
31796W        W45210   1.830   4.467   2.797  0.0580 -0.1202 -0.2691
31797W        W45211   0.457  14.617   0.959  0.2819  0.0621 -0.0885
31798W        W45212  10.539   3.299  15.543  0.1011  0.1039  0.1651
31799W        W45213   3.346   9.135  10.575 -0.2044 -0.1179  0.0339
31800W        W45214  11.998  10.045   0.832 -0.0425 -0.0939  0.1436
31801W        W45215   3.961   2.723  13.107 -0.1837  0.0924  0.1947
31802W        W45216  12.052  11.805   4.906  0.3759  0.0521  0.1218
31803W        W45217   5.887  16.274   5.494 -0.2614 -0.2293 -0.1720
31804W        W45218  12.418  11.984   5.511  0.1006  0.0293  0.1671
31805W        W45219  13.722  12.119  16.106  0.0877 -0.1128 -0.3040
31806W        W45220  13.439  17.497  12.109 -0.2561  0.0044 -0.4410
31807W        W45221   8.433  10.041  12.464 -0.2148 -0.1073  0.3258
31808W        W45222  17.198   0.139   0.461 -0.1090  0.1606  0.2537
31809W        W45223   5.170  12.669  16.202  0.0342  0.2138 -0.2303
31810W        W45224  15.087   3.758   6.142 -0.1310 -0.0361 -0.1861
31811W        W45225  14.713  18.265  12.289 -0.0709  0.3128  0.2680
31812W        W45226   7.005   8.394  15.545 -0.1831 -0.1220 -0.0562
31813W        W45227   7.574   9.478   4.620 -0.2915  0.0430 -0.1422
31814W        W45228  12.849   3.289   2.146 -0.0855 -0.0025  0.0549
31815W        W45229  17.828   2.546  13.986  0.0733  0.2685  0.2332
31816W        W45230   1.429   2.591  10.925 -0.3032  0.0151  0.0844
31817W        W45231   9.043   1.696   0.347  0.1780 -0.0989  0.4176
31818W        W45232   1.722   4.677  13.810  0.0270 -0.2007 -0.0419
31819W        W45233  14.453  17.084  10.512  0.1512 -0.1396  0.2065
31820W        W45234  15.051   1.187   5.347  0.0198  0.0025 -0.0409
31821W        W45235   6.330   2.081  10.160 -0.0241 -0.1719 -0.3859
31822W        W45236   1.669   1.140   0.407 -0.0495 -0.1920  0.1389
31823W        W45237   5.752  17.113   0.748 -0.2409  0.2896 -0.0990
31824W        W45238  14.509  16.434  14.433 -0.0768  0.1165  0.0214
31825W        W45239   5.021   7.838  15.413  0.0495 -0.0738  0.0054
31826W        W45240  10.789  16.002   4.379  0.0816 -0.1164  0.1325
31827W        W45241  18.233  10.775   4.310  0.0039 -0.0593  0.0518
31828W        W45242   0.585   7.314   1.328  0.0404  0.1896 -0.1492
31829W        W45243   4.908   7.907  16.095  0.0426  0.1470  0.0465
31830W        W45244   0.284   3.825   3.102  0.1942 -0.1196  0.5799
31831W        W45245   3.128  13.192   1.867 -0.2174 -0.3612 -0.0468
31832W        W45246  11.590   2.911   2.507  0.0855 -0.1207  0.0910
31833W        W45247  15.149   9.722   1.322 -0.1213  0.1348  0.3520
31834W        W45248  10.380   9.015  14.820 -0.1685  0.0268 -0.1773
31835W        W45249   2.017  15.855  12.254  0.3037  0.2653 -0.1252
31836W        W45250   5.642   3.382   0.436  0.0677 -0.2121 -0.1410
31837W        W45251   3.622  10.139   5.491 -0.3348  0.4282 -0.3318
31838W        W45252  13.003  15.963  13.044 -0.1708 -0.1757 -0.2699
31839W        W45253   3.065   1.316   1.700  0.0630 -0.0368 -0.0620
31840W        W45254   2.380   2.742  10.925  0.0791  0.1991 -0.1789
31841W        W45255   1.801   1.190   1.769  0.0411 -0.1237 -0.0396
31842W        W45256   1.717   1.589  11.549 -0.1927  0.0065  0.1045
31843W        W45257   8.247   2.807  13.986 -0.2088  0.1083 -0.2527
31844W        W45258   8.424   9.136   2.429  0.1624 -0.0696 -0.1276
31845W        W45259  15.635  13.677   4.182 -0.1834  0.0127 -0.1828
31846W        W45260  13.102   8.731  14.826 -0.0439  0.1322 -0.2749
31847W        W45261  16.844   9.192   4.175 -0.0923  0.0376  0.2329
31848W        W45262   3.845   3.553   3.020 -0.0170  0.1862  0.2401
31849W        W45263  10.236   5.945  14.743  0.0590  0.0402 -0.0140
31850W        W45264   8.612  13.321   2.524 -0.0917  0.0937  0.0980
31851W        W45265   0.528  12.754  15.860 -0.0532  0.1344 -0.3664
31852W        W45266   6.602   2.992  16.253 -0.2567 -0.2799 -0.2402
31853W        W45267   3.139  14.287  11.988 -0.0965 -0.0235 -0.1034
31854W        W45268  15.709  15.099   0.267 -0.3101  0.1148  0.0925
31855W        W45269  13.111   8.542   1.348 -0.0592  0.0274 -0.3028
31856W        W45270   9.995   6.791   4.435  0.0027  0.1314  0.0796
31857W        W45271   8.947  16.048  10.834 -0.2950 -0.0693 -0.2723
31858W        W45272  11.393   6.988  13.466 -0.2903 -0.0361  0.0710
31859W        W45273   8.093   5.727   9.992 -0.4337  0.1234  0.1457
31860W        W45274  15.661  12.506   1.510  0.1049  0.1880  0.2463
31861W        W45275  15.053  14.090   0.986 -0.0534 -0.0976 -0.1245
31862W        W45276  16.017   0.832  11.811 -0.0311  0.3441  0.0895
31863W        W45277   5.792   7.164  13.802  0.0344  0.1943  0.5486
31864W        W45278  14.256   0.517   1.628 -0.0285 -0.1193  0.1708
31865W        W45279   8.569  17.752   6.122  0.1039 -0.2075  0.0461
31866W        W45280   0.489   2.285   4.146  0.0946 -0.1167  0.2630
31867W        W45281   4.653   3.704   3.178 -0.0829  0.3868 -0.0664
31868W        W45282  17.451   3.754  10.445 -0.2117  0.0806  0.0014
31869W        W45283   6.564  17.065   3.816 -0.1205 -0.0844  0.2485
31870W        W45284   1.885  16.390   0.068  0.5010  0.7026 -0.0763
31871W        W45285  14.354   8.731   4.559 -0.1305 -0.1001 -0.3788
31872W        W45286   3.161  18.184   3.423  0.1604  0.0734 -0.3599
31873W        W45287  13.135   9.834  11.295  0.1660 -0.0047 -0.1690
31874W        W45288   1.624   9.572  13.553  0.2055  0.0626  0.0744
31875W        W45289  13.563   5.779   1.859 -0.1759  0.2903 -0.1551
31876W        W45290   5.207   4.967  14.520  0.1265 -0.2000 -0.1252
31877W        W45291   8.331   7.148  11.413  0.0549  0.0579  0.2403
31878W        W45292  10.396   4.782  12.255  0.2975 -0.0800 -0.0584
31879W        W45293   9.759   0.148   3.380  0.2453  0.0094 -0.1580
31880W        W45294  13.603   9.956   0.070  0.0780  0.0415  0.2614
31881W        W45295   7.463  13.708  15.954 -0.1845  0.0722 -0.3634
31882W        W45296   8.401   3.660  15.777  0.0066 -0.0035  0.1364
31883W        W45297  17.690   5.097  10.755  0.2276  0.2205 -0.1894
31884W        W45298   3.520   9.463   4.783 -0.1501  0.0769 -0.0586
31885W        W45299  12.209  17.742  11.262  0.1466  0.3706 -0.0264
31886W        W45300  11.612   0.908   3.982 -0.1613 -0.2963  0.0643
31887W        W45301   8.678  10.864   4.339  0.0457  0.1626  0.3167
31888W        W45302  16.998  17.656  10.839  0.1651 -0.1673  0.0961
31889W        W45303  14.673   4.417   0.351 -0.0139 -0.0165 -0.0389
31890W        W45304  11.802  16.013   3.773  0.0698 -0.0217 -0.2264
31891W        W45305  17.187   3.680  13.445  0.0561  0.0673 -0.0786
31892W        W45306  18.062   9.188  10.440 -0.0211 -0.1856  0.1367
31893W        W45307   5.362   2.970   5.645 -0.0640 -0.1973  0.4240
31894W        W45308  17.903   4.544  10.448 -0.0610  0.1144  0.1798
31895W        W45309   3.743   5.202   5.137  0.0070  0.0025 -0.1220
31896W        W45310  13.165  16.827  13.627 -0.4758 -0.0077  0.1274
31897W        W45311  17.137  15.357   2.079  0.0764 -0.0727  0.2205
31898W        W45312  11.866   7.419   2.001  0.0690  0.2315 -0.1323
31899W        W45313   7.561  12.622  11.974  0.0469  0.1384 -0.0737
31900W        W45314   3.723   8.928  14.413  0.1260 -0.0849 -0.0470
31901W        W45315   0.355  17.288   1.064  0.0113  0.0579 -0.1930
31902W        W45316   8.908   2.611  16.248 -0.0470  0.1302 -0.0746
31903W        W45317  15.226   2.555  12.434 -0.2420  0.1621 -0.2150
31904W        W45318   9.557   3.513   2.603 -0.0665  0.2473  0.0152
31905W        W45319  14.917   2.741  12.045  0.1134 -0.0331 -0.0116
31906W        W45320  14.908  16.051   2.696  0.2080 -0.2249 -0.2422
31907W        W45321   9.352  13.332  11.530 -0.1039  0.1909  0.0981
31908W        W45322  14.795   3.001  15.488  0.0222  0.0396 -0.0129
31909W        W45323  11.931  16.305  15.686 -0.3398  0.3028  0.3583
31910W        W45324  11.919  12.596  16.168 -0.0819  0.2610 -0.1340
31911W        W45325  11.083  17.111   3.856 -0.0002 -0.0511 -0.0794
31912W        W45326   9.402  14.267  12.902 -0.2570  0.2016 -0.1702
31913W        W45327  13.775   2.237   5.355  0.1355 -0.3265  0.1428
31914W        W45328  18.415   4.702   3.317 -0.0117  0.1604 -0.1885
31915W        W45329   9.315   6.935  14.832  0.2469  0.1347  0.0816
31916W        W45330   7.760   9.190   4.139 -0.1296 -0.2265  0.3401
31917W        W45331   3.544  13.554  12.742 -0.0153  0.0517 -0.4160
31918W        W45332  17.099   5.063  13.363 -0.0595 -0.0494 -0.0119
31919W        W45333   1.747   4.670  10.779  0.3853  0.0119  0.2127
31920W        W45334   7.892   4.216   4.090  0.2295  0.0166  0.0733
31921W        W45335   3.917   7.854  11.738  0.0822  0.0806 -0.0279
31922W        W45336   2.749  15.653   5.202  0.1501 -0.0474 -0.0612
31923W        W45337  12.044   2.425  15.721 -0.0210 -0.2683  0.2543
31924W        W45338   7.188   4.426  15.154 -0.1111  0.3937 -0.2878
31925W        W45339   8.611  11.745  12.947  0.0755  0.2929  0.0056
31926W        W45340   9.257  11.953   3.880 -0.1821  0.0712 -0.1622
31927W        W45341   4.440  15.991  15.477  0.0169 -0.0003  0.0938
31928W        W45342   3.047   3.289   2.820  0.0062  0.1775 -0.0503
31929W        W45343  13.406  17.101  11.252 -0.3080  0.1061  0.1011
31930W        W45344  11.038  15.902   0.574  0.0919  0.1197  0.1991
31931W        W45345   8.389   3.051   4.769  0.1853 -0.1554  0.1578
31932W        W45346   0.229  12.506  14.146 -0.2950 -0.2066  0.1487
31933W        W45347  15.815   8.280  12.499 -0.1413 -0.0946 -0.1441
31934W        W45348  11.572   2.387  15.916 -0.0063  0.0218 -0.1480
31935W        W45349   4.476   0.663  13.332 -0.2785  0.1357 -0.3229
31936W        W45350   0.773  12.144   1.952  0.1640 -0.1112 -0.1441
31937W        W45351   2.293  11.730   2.726  0.1899 -0.0452 -0.0999
31938W        W45352  10.334  17.912   2.297 -0.0976 -0.0672  0.2553
31939W        W45353  17.613   8.709  15.365 -0.0666  0.1744  0.0842
31940W        W45354   1.327   9.221  14.616  0.4162  0.3074 -0.1142
31941W        W45355   7.126  16.812  15.178 -0.0533  0.0897 -0.1162
31942W        W45356   8.303   4.631   2.718 -0.1409 -0.0551 -0.2315
31943W        W45357  13.681  15.444   1.481  0.2099  0.1317 -0.1606
31944W        W45358   0.866  13.732   0.999 -0.0340 -0.2392 -0.2757
31945W        W45359  10.967  12.129   6.270 -0.2977  0.0238 -0.4530
31946W        W45360   2.391   7.786   4.923  0.0781 -0.1001  0.1905
31947W        W45361  14.666   0.402   2.323  0.2765 -0.2103 -0.1248
31948W        W45362  13.534   7.531   4.515  0.0030  0.0873 -0.3089
31949W        W45363   3.359   5.175   2.365 -0.1105 -0.0967  0.2046
31950W        W45364  14.281   4.941   4.627 -0.0368 -0.2370 -0.0021
31951W        W45365   9.913   1.269  16.186  0.0474  0.0842 -0.0630
31952W        W45366  14.665  12.344  13.039  0.2106  0.3186  0.1246
31953W        W45367   6.338   7.208  11.528  0.1040  0.1981  0.2940
31954W        W45368   7.570  16.074  12.627 -0.0179 -0.1147  0.1732
31955W        W45369  11.734  17.233  13.137  0.1053 -0.2390 -0.0644
31956W        W45370   0.138   9.639  11.362  0.1485 -0.0625 -0.1513
31957W        W45371  14.673  12.198   1.237  0.1129 -0.0404  0.2056
31958W        W45372  13.229   4.462  13.715 -0.0536 -0.0476  0.0249
31959W        W45373   8.770  14.342  12.337  0.3088 -0.0405 -0.0726
31960W        W45374  10.080   4.757   3.428  0.0082  0.2950  0.1083
31961W        W45375   3.249   8.513   5.788 -0.0829 -0.2673 -0.0731
31962W        W45376   4.126   1.474   6.282 -0.1635 -0.0626  0.1388
31963W        W45377   4.723  14.677   4.175 -0.2226  0.2654 -0.0740
31964W        W45378  10.853   0.123  11.203 -0.0715 -0.4198 -0.0138
31965W        W45379  10.670  10.480   3.154  0.0512 -0.1668  0.0835
31966W        W45380   1.250  11.447   1.557  0.1019  0.0662 -0.2985
31967W        W45381  15.759   5.290   4.627  0.1634  0.0451  0.0163
31968W        W45382   2.546  13.996   4.061  0.0182  0.1214 -0.1316
31969W        W45383   9.231  12.112  11.752 -0.0289 -0.1627 -0.2370
31970W        W45384   3.543  12.903   1.578  0.0454 -0.2793  0.1483
31971W        W45385   9.644   7.338  11.486 -0.1175 -0.0296 -0.1368
31972W        W45386   7.597  17.146   2.936  0.0876 -0.0384  0.1944
31973W        W45387  11.037  15.549  13.153 -0.1013  0.3685 -0.0541
31974W        W45388  10.644   6.523   2.334 -0.3100 -0.2255  0.1415
31975W        W45389  10.119  11.013   9.937  0.0727 -0.0609 -0.0970
31976W        W45390  12.505   4.918   1.471  0.2347  0.3761  0.0927
31977W        W45391  16.640  10.996  10.779  0.2551 -0.1039  0.3843
31978W        W45392   7.436   5.692   1.635  0.4338  0.1579  0.0733
31979W        W45393  12.111  16.763   1.182 -0.0368 -0.2826  0.0348
31980W        W45394   8.431   6.769   4.459 -0.0899 -0.1704 -0.0607
31981W        W45395   0.921   0.454  10.174  0.0396 -0.0829 -0.1784
31982W        W45396  10.209  15.501   4.822  0.1787  0.1673 -0.0598
31983W        W45397  12.274  10.196  11.682 -0.0313 -0.0887  0.1679
31984W        W45398  16.057  13.755   5.263  0.0689  0.2367  0.3928
31985W        W45399   9.298   5.289   3.772 -0.1883  0.0095  0.3531
31986W        W45400   5.018  11.614   3.570  0.4170 -0.2204 -0.0849
31987W        W45401  12.409   7.614   4.484  0.0696 -0.0859  0.0959
31988W        W45402  16.793   3.647   1.599  0.1072 -0.0434  0.1663
31989W        W45403   2.913  14.858   4.074  0.2261  0.1323 -0.1453
31990W        W45404  12.835   1.538  12.734  0.0910  0.2251 -0.1222
31991W        W45405  15.214   3.548  13.004 -0.1053  0.3406 -0.1185
31992W        W45406  12.342   2.528  12.580  0.1758 -0.3707 -0.0239
31993W        W45407  13.611   0.631  13.884  0.0078 -0.0952 -0.0936
31994W        W45408   5.155  14.006  15.287  0.0477 -0.2501  0.0390
31995W        W45409  17.334   6.589  15.231 -0.2434  0.0654  0.3139
31996W        W45410   6.044  17.122   3.692 -0.0451  0.3905 -0.1520
31997W        W45411   6.446   0.197  13.016 -0.1056 -0.0344  0.1092
31998W        W45412  15.642   4.240  13.573 -0.2050 -0.0647 -0.1229
31999W        W45413   4.050  15.160   3.442  0.1049 -0.2010 -0.0091
32000W        W45414  10.128  16.458  13.328 -0.4339 -0.1219  0.0682
32001W        W45415  10.895  17.148  10.845 -0.2515  0.2154  0.0513
32002W        W45416   3.612   2.351  11.836 -0.4659 -0.0388  0.2092
32003W        W45417   7.365   1.313  15.777 -0.3231 -0.4192  0.2657
32004W        W45418   3.930  16.399   1.685  0.1087 -0.0898  0.0582
32005W        W45419   9.933   0.844   5.591 -0.0584 -0.0144 -0.0682
32006W        W45420   2.005  11.889  11.717  0.0629  0.1107 -0.0843
32007W        W45421  15.595  12.590   6.587  0.1972  0.3187  0.0881
32008W        W45422  11.580  14.566   1.531  0.1461 -0.2039 -0.2767
32009W        W45423  16.752   5.103  10.326 -0.1677 -0.1570  0.0631
32010W        W45424   5.883   0.777  13.201  0.1056  0.0866  0.0767
32011W        W45425  17.445  15.443   0.240 -0.4370  0.1790  0.1760
32012W        W45426   3.938  17.175  13.522 -0.0317  0.0171  0.1604
32013W        W45427  16.259   9.693  15.909  0.0394  0.0558 -0.1352
32014W        W45428  16.774   6.299  15.805 -0.3783 -0.0795 -0.0104
32015W        W45429  16.345  17.562   5.475  0.0195 -0.3645 -0.0437
32016W        W45430   9.374  11.518  13.321  0.0549 -0.1434 -0.1471
32017W        W45431  18.211  14.217  11.259  0.3114 -0.1076  0.2583
32018W        W45432  10.892   4.998  15.335 -0.2799 -0.2549  0.2245
32019W        W45433   5.688  16.511  14.199 -0.1573 -0.2829  0.2048
32020W        W45434  17.027  10.705   2.783 -0.3222  0.2989 -0.2684
32021W        W45435  11.400   8.240   4.841 -0.2499 -0.1410  0.2820
32022W        W45436   8.109   0.460  11.259 -0.1090  0.0111  0.2808
32023W        W45437  12.165   9.789   4.595  0.2298 -0.2880 -0.1820
32024W        W45438  12.346   7.823   0.525  0.0858  0.1321 -0.0830
32025W        W45439  12.370   5.513  10.746 -0.1284 -0.0244 -0.0165
32026W        W45440  10.791   7.938   3.002 -0.0547  0.4033 -0.1690
32027W        W45441  16.222  11.955  15.579 -0.0694  0.1351 -0.0041
32028W        W45442  11.766  14.101  11.545  0.2272  0.4715  0.0429
32029W        W45443  15.741   5.082  13.314 -0.0658  0.1982  0.0801
32030W        W45444   7.581   8.392  13.877  0.0326 -0.0245 -0.0156
32031W        W45445  10.979  17.362   4.419  0.0912  0.3422 -0.2992
32032W        W45446   7.913  16.724  13.189 -0.2195 -0.2006  0.1811
32033W        W45447   0.444  15.178  15.599  0.0709 -0.0201 -0.1772
32034W        W45448  14.112  13.185  13.918  0.3411  0.0203 -0.1429
32035W        W45449   3.396  11.202   0.868  0.2251  0.0595  0.5030
32036W        W45450   3.802   1.008  14.035  0.0367 -0.1610  0.1338
32037W        W45451  10.717   8.635   0.718 -0.1822  0.0624  0.0732
32038W        W45452  11.139  10.793   0.697 -0.1292 -0.0885 -0.4678
32039W        W45453  16.239  16.424   1.254 -0.1013  0.3731 -0.0965
32040W        W45454   0.627   8.726   1.851 -0.0227  0.1164 -0.0718
32041W        W45455  12.101  12.897  12.020  0.2785  0.0373  0.1217
32042W        W45456   4.954  13.590  13.159  0.0551 -0.0903  0.1501
32043W        W45457  13.080   4.273  12.872  0.0572 -0.1728  0.0184
32044W        W45458  17.369   4.203  10.638  0.1502 -0.3940 -0.0685
32045W        W45459  15.515  11.891  11.051  0.0190  0.3425 -0.4307
32046W        W45460   4.473   1.838   2.010  0.2605 -0.2553 -0.4223
32047W        W45461  13.938  14.431   3.435 -0.4092  0.1801  0.0857
32048W        W45462   5.190  10.634   6.116 -0.2310 -0.1506 -0.0934
32049W        W45463   0.993  16.781   5.633 -0.3429 -0.0509  0.1489
32050W        W45464   5.978   9.440  14.902 -0.1148 -0.0934  0.0210
32051W        W45465   3.908   7.780   3.453 -0.2098 -0.0095  0.4178
32052W        W45466  16.918  10.726  11.323  0.2085 -0.3437 -0.0808
32053W        W45467  11.310   7.388  14.198 -0.3329 -0.0653  0.2345
32054W        W45468   5.511   7.978  14.159  0.2511  0.0257 -0.0982
32055W        W45469   2.711  17.292   5.468  0.0376  0.2348  0.0615
32056W        W45470  10.459   4.519  14.095 -0.2614  0.0381 -0.0099
32057W        W45471   2.742  15.681  15.045  0.0263  0.1014 -0.1601
32058W        W45472  14.837  16.490   0.150 -0.1184 -0.1101 -0.2269
32059W        W45473  12.372  13.309   0.173 -0.0511 -0.1987  0.0914
32060W        W45474   1.131   4.653  15.017  0.1478  0.1736 -0.1398
32061W        W45475  17.375  11.670   1.219  0.2095  0.2535 -0.1014
32062W        W45476  10.573   3.344   2.568  0.0977  0.1210  0.1776
32063W        W45477  11.140  17.626   2.756  0.2675 -0.0638 -0.3879
32064W        W45478   3.849   0.403   0.134  0.0412  0.1002  0.0803
32065W        W45479  12.179  13.901  13.824  0.1885 -0.3164  0.1661
32066W        W45480   3.387  17.321   5.490  0.2734 -0.2321 -0.1043
32067W        W45481  16.845  18.237   0.346 -0.0693  0.0379 -0.2415
32068W        W45482  12.190  15.849  16.173  0.4114 -0.1166  0.1843
32069W        W45483  10.248  17.805  12.903  0.1690  0.0313 -0.1736
32070W        W45484  10.677  17.721   2.041 -0.2194  0.0235  0.4958
32071W        W45485   2.189  15.167   0.792 -0.1116  0.0780  0.1120
32072W        W45486  10.318   9.982  15.489  0.3387  0.0169  0.0171
32073W        W45487   1.318  14.915  11.589 -0.0236  0.1963  0.1800
32074W        W45488  15.659   1.122   4.625  0.2184  0.0087 -0.2232
32075W        W45489   7.575  11.187   5.519 -0.1565  0.1942 -0.3448
32076W        W45490  17.427  13.262   2.323  0.1222 -0.2397  0.1585
32077W        W45491  10.919  14.794  10.616  0.4223  0.2297  0.0561
32078W        W45492  10.330   1.236   5.556  0.2663 -0.2835  0.2515
32079W        W45493  11.821   8.889  12.092  0.2681  0.2248  0.2048
32080W        W45494   4.403  10.643  13.145 -0.1773 -0.3244 -0.1175
32081W        W45495  16.422   0.936  15.173 -0.5269  0.1138  0.0512
32082W        W45496   1.273   8.543   3.400 -0.1612  0.0934 -0.0007
32083W        W45497   1.910  13.693   2.130 -0.0675 -0.0130  0.3314
32084W        W45498   0.712  16.920  13.986 -0.0912  0.0754  0.4015
32085W        W45499   5.791   8.144  12.274 -0.0259  0.1967  0.0408
32086W        W45500  16.953   7.804  12.739 -0.1210  0.2643 -0.2919
32087W        W45501  14.647  15.548  14.125  0.1966  0.1510  0.1229
32088W        W45502  10.975  14.274  11.454  0.3516  0.0312  0.3272
32089W        W45503   6.431   1.139  15.997 -0.0060 -0.2276  0.1813
32090W        W45504  15.840  18.071  12.119  0.0966  0.1543  0.0394
32091W        W45505  16.136  16.456   3.798 -0.2755 -0.0880  0.1046
32092W        W45506   4.600  16.798  13.007 -0.0081  0.0597 -0.4178
32093W        W45507  18.104  13.285   1.171 -0.2709 -0.0809 -0.2050
32094W        W45508  11.020   6.443   4.775  0.0218 -0.1611 -0.0554
32095W        W45509   4.638  11.011   0.314  0.0797 -0.3014 -0.0836
32096W        W45510   7.853   2.713   0.974 -0.0097 -0.3795  0.1010
32097W        W45511  11.191   9.293  10.807  0.3316 -0.0730  0.1164
32098W        W45512  16.206   9.119  12.497 -0.0367  0.2851  0.1470
32099W        W45513  11.779  12.836  15.066  0.0387 -0.0740  0.0909
32100W        W45514  15.963  13.054  14.545  0.3742  0.1276  0.0255
32101W        W45515  14.384   9.710   3.591 -0.2595 -0.1322  0.0659
32102W        W45516  11.729   1.874   5.756 -0.1687 -0.3446  0.0796
32103W        W45517   9.847  13.764  11.844  0.2995 -0.5737 -0.2220
32104W        W45518   6.416   3.434   9.919  0.0686  0.0006 -0.1608
32105W        W45519   6.773  16.888   3.383  0.1993  0.1317 -0.2569
32106W        W45520   8.313  16.618   5.140  0.0244  0.2680 -0.2004
32107W        W45521  12.673   1.508  16.157  0.0623 -0.2218 -0.2932
32108W        W45522  12.147   8.326  12.965  0.0289  0.0516 -0.0140
32109W        W45523  10.009   1.665  15.870 -0.0495 -0.1805 -0.0083
32110W        W45524   7.860  16.286   3.680 -0.2277  0.2478  0.0738
32111W        W45525   5.117  10.302  10.668  0.1987  0.1809  0.1342
32112W        W45526   6.394  16.301   2.426 -0.0259 -0.2324  0.1503
32113W        W45527   8.764  13.904   1.318 -0.1386 -0.2228  0.2589
32114W        W45528  11.980   8.727  15.241  0.0589 -0.0533 -0.5498
32115W        W45529  15.139   8.006  15.080  0.0574  0.0124  0.3977
32116W        W45530  14.395   2.360  12.506  0.0860  0.1798 -0.1022
32117W        W45531  18.282   1.825  12.146  0.0886  0.0885 -0.1000
32118W        W45532   8.727   1.569  12.573 -0.0756 -0.3812  0.4052
32119W        W45533  16.166  10.407   0.182 -0.1053 -0.2866  0.1520
32120W        W45534   0.111   9.366   1.041 -0.1603 -0.0121 -0.1283
32121W        W45535  16.169   7.788  11.348  0.1265  0.2017  0.1330
32122W        W45536  10.975   0.323   9.669  0.1516 -0.0896  0.0259
32123W        W45537  17.135   8.345  14.279  0.1781 -0.1638  0.2476
32124W        W45538   6.390   2.952  10.782 -0.0642 -0.0672 -0.2926
32125W        W45539  14.776   5.788  13.322 -0.1128 -0.1278  0.1562
32126W        W45540  17.517  12.117   6.794  0.2479 -0.0038 -0.0829
32127W        W45541   0.540   0.381   1.769  0.1406 -0.3027 -0.1525
32128W        W45542  14.718   8.188   2.824  0.0867 -0.1019  0.0428
32129W        W45543   1.521   6.230  14.874  0.2129  0.0039  0.0229
32130W        W45544  14.608  16.134  14.846 -0.0367  0.2567 -0.0833
32131W        W45545  10.123  16.694  12.449  0.0665  0.3286 -0.2251
32132W        W45546   1.748  13.780  10.894 -0.0903  0.1228  0.0572
32133W        W45547   3.676  10.730  13.284  0.0319 -0.3146  0.1605
32134W        W45548   8.448   7.623   5.619  0.2138  0.3596  0.0644
32135W        W45549   7.055  10.594  12.571  0.0425 -0.1586 -0.0053
32136W        W45550   4.449   8.610   1.527  0.2301 -0.1301  0.0305
32137W        W45551  16.664   2.769   2.641  0.0822  0.1567  0.1409
32138W        W45552   9.437  10.429  12.496 -0.0896  0.0574 -0.1645
32139W        W45553   8.500   4.734  13.431 -0.2365  0.0610  0.0234
32140W        W45554   9.246  10.335  11.301 -0.0321 -0.0420  0.3823
32141W        W45555   7.997   7.735   2.502 -0.0441 -0.0360 -0.2901
32142W        W45556   2.346  17.220  15.486  0.3273  0.1722 -0.0037
32143W        W45557  16.865  12.910  12.121 -0.0434 -0.0240  0.0151
32144W        W45558  13.290   0.165  15.131  0.2674  0.1187 -0.0659
32145W        W45559   2.470   2.407  13.842  0.1067  0.0998  0.3065
32146W        W45560   6.538   2.315   0.322 -0.0690 -0.1374 -0.0188
32147W        W45561   4.010   8.432   4.557 -0.1967 -0.0707  0.2144
32148W        W45562  13.012   9.219  13.520 -0.1567 -0.3422  0.0593
32149W        W45563   4.673   9.260  14.040 -0.1889  0.1785  0.0819
32150W        W45564  17.155   8.664   3.113 -0.0993 -0.0890 -0.0134
32151W        W45565   5.932   5.075   5.771  0.1120 -0.2033  0.3061
32152W        W45566  18.153   2.744   0.372  0.1092  0.2696 -0.1614
32153W        W45567   6.808   3.235   2.048 -0.1452 -0.0547 -0.1283
32154W        W45568  17.851   9.906   0.628 -0.3671 -0.2529  0.1497
32155W        W45569   0.396  11.169  11.890  0.0896  0.1080 -0.0197
32156W        W45570  10.601  12.138  11.321 -0.1419 -0.0981 -0.0065
32157W        W45571  13.951   4.227   3.842  0.1299  0.1220  0.0135
32158W        W45572   5.713  18.139  10.794  0.1059  0.0572 -0.1612
32159W        W45573   2.052  10.641  11.339 -0.1176 -0.0447 -0.0565
32160W        W45574  11.084  10.848  13.339  0.0553 -0.0055 -0.2333
32161W        W45575  15.889   3.803  14.631  0.0509  0.0156  0.0055
32162W        W45576   1.642   6.510  14.527 -0.6416 -0.0144  0.1226
32163W        W45577   1.416   1.834  16.011  0.0609 -0.0557  0.0292
32164W        W45578  12.978   8.352   1.789  0.0450 -0.0376  0.0445
32165W        W45579   3.844   1.989  15.676 -0.5485 -0.0373  0.2041
32166W        W45580  13.509   6.321  15.298 -0.1900 -0.0508  0.1689
32167W        W45581  18.398  17.441   4.078  0.1201 -0.2429 -0.3209
32168W        W45582   5.873   7.989  11.805 -0.1118  0.0292 -0.0962
32169W        W45583   7.196   1.508  11.668  0.3258  0.1082  0.1925
32170W        W45584  15.077  18.301  13.285  0.2865 -0.3336 -0.0588
32171W        W45585  14.446  13.520  10.809  0.0168 -0.0377 -0.1902
32172W        W45586   5.739  13.759  14.412  0.0521 -0.0690  0.0469
32173W        W45587   5.289  16.433  16.153  0.0113  0.3426  0.0822
32174W        W45588  15.522   2.570   4.438  0.2435 -0.0950 -0.1127
32175W        W45589  17.603   1.667   4.597  0.0564 -0.2282 -0.0214
32176W        W45590   2.171  13.108  13.703  0.4520  0.0804 -0.2438
32177W        W45591  17.576   4.499   3.493  0.3663 -0.2937  0.1809
32178W        W45592  14.505   5.706  15.599 -0.1513 -0.0663 -0.0326
32179W        W45593  16.794   2.085   1.393  0.0287 -0.0674 -0.1187
32180W        W45594  10.284  13.633   2.380 -0.0225  0.1799  0.0459
32181W        W45595   0.220   7.595  11.247 -0.0136  0.2895  0.6100
32182W        W45596  12.492  12.435   1.836  0.1140  0.1316 -0.0463
32183W        W45597  17.066  10.659  12.886  0.1838  0.1239  0.2468
32184W        W45598  10.013  15.730   1.333 -0.0707 -0.2085  0.0552
32185W        W45599  12.117   0.896  15.684 -0.0609 -0.0585  0.3423
32186W        W45600   8.870   9.369   4.533  0.2168  0.0941 -0.0734
32187W        W45601  12.495  15.974  12.907 -0.1306  0.0586 -0.3885
32188W        W45602   9.207  14.595  11.966 -0.3767 -0.0903  0.1397
32189W        W45603   5.381  13.009   1.158  0.0013  0.2014  0.2490
32190W        W45604  12.662  11.529  13.270 -0.0111  0.0416 -0.1338
32191W        W45605  10.493   7.760   4.349  0.0814 -0.0190 -0.3100
32192W        W45606   9.802   6.156  12.501 -0.0524 -0.2161  0.0661
32193W        W45607  12.827   6.185   6.176 -0.0084  0.1204  0.1077
32194W        W45608   9.495   7.711   3.306 -0.1814 -0.1349 -0.1203
32195W        W45609   6.728   5.308   2.128 -0.0675 -0.1564  0.2670
32196W        W45610   5.345   6.988  14.055 -0.1046 -0.0900 -0.1372
32197W        W45611   5.708  13.566   1.062 -0.1048 -0.2755  0.1635
32198W        W45612   2.847  14.462  11.158 -0.0694 -0.0108  0.2130
32199W        W45613   1.865  10.175  11.222  0.1106 -0.1837 -0.0462
32200W        W45614  16.879   9.162   1.289 -0.3510 -0.3395 -0.2580
32201W        W45615   7.342   6.103  13.591 -0.0171 -0.1015  0.1795
32202W        W45616   1.897  16.631   4.301  0.0555  0.1174  0.1474
32203W        W45617   4.601  12.420  10.878 -0.0871  0.0963  0.2828
32204W        W45618   1.646   2.656  13.275  0.2793 -0.1982  0.2054
32205W        W45619   4.664   8.199   0.892  0.0818 -0.0142  0.0939
32206W        W45620   0.116  15.586  14.448  0.2043 -0.1681  0.1105
32207W        W45621  15.428   8.695   3.247  0.0963 -0.1217  0.3377
32208W        W45622   8.159  16.869  11.647  0.2239 -0.0931 -0.0121
32209W        W45623  10.151  15.301  11.917 -0.1011 -0.0885  0.1453
32210W        W45624   0.795   5.271  12.232 -0.0626 -0.0379  0.1895
32211W        W45625   3.031   4.570  10.921 -0.3768 -0.2951 -0.0628
32212W        W45626   9.702  13.693  16.144 -0.0740  0.2699  0.1180
32213W        W45627   9.786   1.411   0.420  0.1920  0.2042 -0.2107
32214W        W45628   0.624  10.735   0.791  0.0214 -0.1015 -0.0201
32215W        W45629   7.823  11.156  16.045 -0.1583 -0.1248 -0.1278
32216W        W45630   2.387   3.757   3.331  0.2459  0.2921 -0.0315
32217W        W45631  11.199   5.791   5.175 -0.0603  0.2896  0.0986
32218W        W45632  16.158   1.748   5.134 -0.2775 -0.0604  0.1841
32219W        W45633  16.748   1.709  13.982  0.3141  0.1858 -0.1613
32220W        W45634  17.798   9.376   6.178 -0.0651  0.3426  0.0712
32221W        W45635  15.379  12.568  15.854  0.1233 -0.2525  0.0407
32222W        W45636   4.555  10.807  15.753  0.0894  0.0328 -0.2479
32223W        W45637   0.221   5.732  11.826  0.1865  0.0667  0.1134
32224W        W45638   9.060   3.897  11.781 -0.3209  0.1926 -0.1179
32225W        W45639  10.828   4.103  11.228  0.1452  0.2167  0.0937
32226W        W45640  18.209   1.583   5.346  0.1918 -0.2591  0.1364
32227W        W45641  16.079   1.407   0.927  0.0864 -0.1213 -0.1763
32228W        W45642   5.823  17.542   4.034  0.3616  0.0208  0.2661
32229W        W45643   1.107  10.878  13.620  0.1623  0.0246  0.0553
32230W        W45644  18.510  17.966   2.650  0.0473  0.3309 -0.0795
32231W        W45645  15.685   0.360  12.352  0.1501  0.2518  0.1584
32232W        W45646  12.491  13.722   1.491 -0.0363 -0.1653  0.1794
32233W        W45647  13.560  10.767   0.878 -0.0219 -0.2212 -0.2546
32234W        W45648   2.039   9.415  11.057  0.2475 -0.1751 -0.1403
32235W        W45649  10.408  17.087  10.869 -0.0570 -0.1396  0.0082
32236W        W45650   7.810  12.091   4.813 -0.1847  0.3004  0.0424
32237W        W45651  10.308   2.124   2.643 -0.3527  0.3032 -0.1912
32238W        W45652  12.474  12.443  13.834  0.1094 -0.3615 -0.3390
32239W        W45653   4.820  13.958  13.512  0.0283  0.0409 -0.2537
32240W        W45654  10.781  14.262   4.820  0.0895 -0.0554  0.0824
32241W        W45655  17.434  16.543   5.311  0.1876 -0.3151 -0.0853
32242W        W45656  17.939  17.839  14.507 -0.1575 -0.1309  0.1127
32243W        W45657   6.979   1.586   4.793 -0.0442  0.1017  0.2683
32244W        W45658  18.125   4.016  13.426 -0.0831  0.1698  0.0720
32245W        W45659  13.455   4.509  13.221 -0.3232  0.1058 -0.0661
32246W        W45660   1.898  10.222   5.386 -0.0641 -0.4064  0.3166
32247W        W45661  16.735   8.933   3.718  0.1372 -0.3985  0.1089
32248W        W45662   6.401  10.140   4.043  0.2336  0.4999  0.2866
32249W        W45663   1.837  17.984   4.807 -0.0381  0.1441  0.0260
32250W        W45664   7.568   2.571   0.576  0.0164 -0.0241 -0.1521
32251W        W45665  11.989  17.620   3.212  0.1325  0.1631  0.0647
32252W        W45666   1.807  14.906   4.947  0.4977  0.1373 -0.0004
32253W        W45667   3.785  10.561   0.037 -0.2088  0.1173 -0.0303
32254W        W45668  15.117  10.630  10.580 -0.2047 -0.0943  0.1958
32255W        W45669   9.021  15.746   1.244 -0.1793  0.3407  0.1516
32256W        W45670  16.844  12.906  10.337  0.3658 -0.0816 -0.1443
32257W        W45671  14.449  12.184   4.155 -0.2967 -0.3113 -0.1649
32258W        W45672   2.134  16.900  15.108  0.0249 -0.0919 -0.0785
32259W        W45673   7.757   7.059  15.955  0.0732 -0.1340  0.2527
32260W        W45674   9.711  17.956   2.746 -0.1918 -0.0324 -0.0580
32261W        W45675  15.068  18.357  11.477 -0.2317  0.1010  0.2124
32262W        W45676  11.047   7.944   3.687 -0.1631 -0.0252 -0.3199
32263W        W45677  14.540  13.932  12.391 -0.0615 -0.0342 -0.0332
32264W        W45678   3.427  14.838   4.818  0.3447 -0.0667  0.1894
32265W        W45679  17.459   0.869   5.311 -0.2974 -0.3840 -0.2927
32266W        W45680  17.973   8.300  16.224 -0.2583  0.1959  0.1447
32267W        W45681  11.756   3.795  12.627 -0.1111 -0.0396  0.0497
32268W        W45682  11.757  16.160  16.246 -0.2855 -0.0475 -0.2275
32269W        W45683  17.470   4.549  14.184 -0.0122 -0.0240  0.1414
32270W        W45684  15.061  14.240  11.780  0.0011  0.0405  0.0727
32271W        W45685  12.062  11.360   4.249  0.0620  0.2303  0.3197
32272W        W45686  17.771  11.125   5.161 -0.0814  0.0124  0.1459
32273W        W45687   3.848  17.189   4.226 -0.2078 -0.1760  0.3007
32274W        W45688   5.275   1.097  11.042  0.0592 -0.0223 -0.0145
32275W        W45689   6.742  16.546   1.381  0.2273  0.0529  0.1066
32276W        W45690  15.006   6.286  10.225 -0.2770  0.1541  0.0853
32277W        W45691   2.411  10.464   1.954  0.0484 -0.1725  0.1225
32278W        W45692  13.308  14.024  11.432 -0.0977  0.0505  0.1327
32279W        W45693   1.328   1.707  15.463  0.0339  0.0576 -0.1088
32280W        W45694  15.041  11.105   4.398  0.1083 -0.0665 -0.1470
32281W        W45695   1.554   9.395  11.581 -0.2011 -0.2382  0.2806
32282W        W45696   6.654   1.845   0.165 -0.1783  0.2445 -0.0048
32283W        W45697  17.478  14.300   3.512  0.2264 -0.0433  0.1137
32284W        W45698   7.047   3.655  14.585 -0.3672  0.2639 -0.2255
32285W        W45699   2.581   2.780  11.774 -0.0466  0.0814 -0.0997
32286W        W45700  14.303  17.557   2.738 -0.0667 -0.0445 -0.1629
32287W        W45701   3.137  10.873   0.613  0.0849  0.0655 -0.0276
32288W        W45702   9.024   5.681   3.596 -0.3678  0.3362  0.1723
32289W        W45703  13.704  13.743  11.323 -0.2410 -0.2694 -0.1152
32290W        W45704   3.576   0.327   4.831  0.0804  0.3720  0.1251
32291W        W45705   5.571   4.541  14.860  0.0720  0.1184  0.2694
32292W        W45706  16.323   9.048  11.554  0.0939 -0.1140 -0.0465
32293W        W45707   4.765  13.181   4.735  0.1227 -0.0091  0.0740
32294W        W45708  10.412   1.727   1.790  0.2475  0.2805  0.0656
32295W        W45709  12.561   3.997   3.709  0.1868  0.1589  0.1864
32296W        W45710  14.285   9.680  14.594 -0.1580 -0.0644  0.2492
32297W        W45711   2.069   3.274  14.143  0.0153 -0.1739  0.0544
32298W        W45712  16.746   6.188   2.813 -0.0161 -0.2559  0.0229
32299W        W45713   3.739  17.215   0.547 -0.1171  0.2396 -0.0063
32300W        W45714  16.623   5.100   1.852  0.0890  0.3766 -0.2860
32301W        W45715   7.262   6.304   5.152 -0.3794 -0.2779  0.0038
32302W        W45716  17.619   4.026  12.206  0.1025 -0.3672  0.0236
32303W        W45717   5.185  11.854   5.559 -0.0607 -0.0597  0.0614
32304W        W45718   4.770   6.478   4.002  0.2156  0.0738  0.2739
32305W        W45719  16.810  10.248   3.986  0.0577  0.4854  0.0481
32306W        W45720   8.003  11.712  11.267  0.1637  0.0435 -0.3464
32307W        W45721   5.617   8.879   5.732 -0.0886 -0.0597  0.3580
32308W        W45722  10.354   0.882  16.010 -0.0200 -0.2458  0.0683
32309W        W45723  16.167   5.578  11.009  0.0193  0.3479  0.0482
32310W        W45724   2.547  15.230  10.999 -0.0864 -0.2791 -0.0941
32311W        W45725  13.296   1.389  12.049  0.0716 -0.0371  0.2823
32312W        W45726  16.561   1.833   3.413  0.1388 -0.2033  0.0404
32313W        W45727  17.838   5.754   4.644 -0.0726 -0.0750  0.1976
32314W        W45728   1.874   8.448   0.178  0.1618 -0.0074 -0.0729
32315W        W45729   8.961   9.972  15.599 -0.0287  0.2863  0.0021
32316W        W45730   3.769   6.932  10.519  0.0679 -0.3499 -0.2407
32317W        W45731  11.633  13.341   5.989  0.2313  0.0406  0.4581
32318W        W45732   7.893  13.341   4.646 -0.1336 -0.2106  0.0095
32319W        W45733  16.236  14.165  13.884 -0.1910  0.1810  0.1111
32320W        W45734  14.111   5.525   5.426  0.0777  0.0593 -0.3487
32321W        W45735  15.416  17.082   3.011 -0.0635 -0.2906 -0.0023
32322W        W45736  15.127   8.143  16.168 -0.3039  0.1643  0.1081
32323W        W45737  10.045  13.868   2.714 -0.0041 -0.0309 -0.1475
32324W        W45738  13.150   0.960   2.464  0.4170  0.0363 -0.1705
32325W        W45739   7.993   9.026   3.336 -0.0097  0.1976 -0.1641
32326W        W45740   9.204   7.164   0.288  0.1019 -0.4117 -0.3718
32327W        W45741  12.162  18.478  11.750 -0.0806 -0.0881  0.0203
32328W        W45742  15.872   6.972  13.818  0.2110 -0.2573  0.2621
32329W        W45743  17.364  10.323  12.593 -0.1364  0.2874 -0.0397
32330W        W45744   5.116  15.169  14.803 -0.0043  0.1043 -0.1778
32331W        W45745   9.256   8.173   5.551 -0.2116 -0.3442 -0.0758
32332W        W45746   0.170  12.874   3.844  0.0532 -0.3067 -0.2579
32333W        W45747   4.307  12.996  15.917 -0.1064 -0.0981 -0.0478
32334W        W45748   3.213  17.172   4.153  0.0808  0.1052  0.1376
32335W        W45749  10.999   7.267   5.328  0.2123 -0.3292 -0.2270
32336W        W45750   5.370  16.543   2.593  0.3563  0.0686 -0.3401
32337W        W45751  17.757  15.247  10.086  0.2377 -0.1742 -0.0380
32338W        W45752  16.546   6.133  12.643 -0.0050 -0.1176 -0.0751
32339W        W45753   3.837  18.454  15.108  0.2010  0.3300  0.2189
32340W        W45754   9.008  16.134  13.100 -0.0847  0.0940 -0.1226
32341W        W45755  18.171   1.124   0.793 -0.3192  0.0383 -0.1151
32342W        W45756   2.544  11.646   3.411 -0.1482  0.0149  0.0970
32343W        W45757  15.705   8.028   4.359 -0.1941  0.0869  0.0863
32344W        W45758  15.946   9.963  10.946  0.1717  0.1027  0.2128
32345W        W45759   0.300   3.797  14.319 -0.0591  0.2523  0.2902
32346W        W45760   8.864  15.098   4.531  0.0474 -0.1480  0.1701
32347W        W45761   0.047   6.401  13.147  0.0091 -0.0628 -0.2329
32348W        W45762   0.555  10.833   5.589  0.1850  0.0094  0.1116
32349W        W45763  12.154   8.820   5.416  0.0729 -0.1088  0.2176
32350W        W45764   3.549   8.088   9.963 -0.0007  0.3871  0.1533
32351W        W45765  15.297   4.361  12.849 -0.2889  0.0439  0.0815
32352W        W45766   3.500   8.282   0.553 -0.2586  0.0852 -0.2055
32353W        W45767   6.099  12.558   9.637 -0.2737  0.2266  0.4313
32354W        W45768   1.558   3.535   4.114  0.0903 -0.4541  0.5105
32355W        W45769  10.743   8.083  12.418  0.1774  0.3321  0.1512
32356W        W45770   9.376  16.279   4.327  0.1381 -0.3832  0.2169
32357W        W45771  12.233   7.671  15.575  0.1282  0.2743 -0.0668
32358W        W45772   4.163  13.633   2.213 -0.0182  0.0886 -0.1736
32359W        W45773  17.697  13.320   0.296 -0.0308 -0.1314 -0.2387
32360W        W45774   8.228   9.836  12.049  0.2073 -0.1247 -0.0929
32361W        W45775   9.626  11.711   2.128 -0.4896  0.1711  0.0730
32362W        W45776  11.836  16.301  11.335  0.0847  0.0087  0.0212
32363W        W45777  17.775  15.569   0.748 -0.0062 -0.4194  0.3205
32364W        W45778   4.798  17.154   5.426  0.1541  0.1737  0.2718
32365W        W45779  18.207   4.918  15.436  0.0804  0.0445 -0.1971
32366W        W45780   2.799  12.334  10.791 -0.3772  0.5142 -0.0907
32367W        W45781   7.710  16.297  14.243  0.1877 -0.2421 -0.1131
32368W        W45782   6.327   7.879  13.239  0.1865  0.0859  0.2165
32369W        W45783  13.923   2.236  12.289 -0.0550 -0.1092 -0.2769
32370W        W45784  12.801  15.014   9.728  0.0455 -0.1892  0.2651
32371W        W45785   6.664   5.455  12.315 -0.2603 -0.0339 -0.0263
32372W        W45786   5.452  12.990  14.928 -0.0934 -0.0172 -0.1419
32373W        W45787   8.534   3.280  13.820 -0.1473  0.0541 -0.0608
32374W        W45788  10.904  11.392   3.534 -0.3155  0.1398  0.1850
32375W        W45789   1.163   0.416   2.741  0.1265  0.1112  0.0091
32376W        W45790   6.581   5.266  11.242 -0.1361  0.1553 -0.3190
32377W        W45791   3.453   9.036  13.125 -0.1665 -0.2003  0.2087
32378W        W45792  17.895  17.265  15.292 -0.2108 -0.2623 -0.0354
32379W        W45793   5.086   6.390   0.660  0.2524 -0.0813  0.0836
32380W        W45794  18.281  17.134  10.432 -0.0912 -0.0743  0.0379
32381W        W45795  16.266   8.081   0.459  0.0085  0.1270 -0.4033
32382W        W45796  13.957  14.708  11.254  0.1088 -0.1869  0.0729
32383W        W45797   0.930   5.384  12.908  0.0242 -0.0045 -0.2265
32384W        W45798   4.822  15.989  10.098 -0.1641  0.1435 -0.1202
32385W        W45799   2.144   2.138  15.023  0.0122  0.2528  0.3353
32386W        W45800   7.087   8.064  14.715  0.0705  0.0095  0.0733
32387W        W45801   7.408   4.501   4.097 -0.1553  0.2849 -0.2664
32388W        W45802   7.208  17.655   1.391  0.1250 -0.0879 -0.1899
32389W        W45803   3.106   3.069  11.486  0.0558 -0.1857 -0.1630
32390W        W45804   1.229   7.986   2.265  0.1967 -0.2687  0.0439
32391W        W45805  13.956   9.289   1.563  0.2924 -0.0078  0.0270
32392W        W45806  18.309  14.578  11.601 -0.0592  0.1498 -0.0966
32393W        W45807   9.923   6.594  14.366  0.0238  0.0974 -0.0864
32394W        W45808   8.195  17.902  14.154  0.0138  0.3247 -0.4129
32395W        W45809  15.973   7.886  13.200  0.1078 -0.0604 -0.1107
32396W        W45810   6.482   7.739   1.543 -0.0195  0.0975  0.1171
32397W        W45811   6.168  15.634   3.396 -0.0040  0.2833  0.0151
32398W        W45812  14.307   5.673  10.675 -0.1261  0.2075  0.0967
32399W        W45813  18.100   2.133  15.007 -0.1959 -0.2363 -0.0805
32400W        W45814  18.393  10.055  13.570  0.1103  0.1435  0.2511
32401W        W45815  16.525  11.035  13.817 -0.1936  0.0705  0.0321
32402W        W45816  15.518  11.968  12.049 -0.0387  0.0504 -0.4100
32403W        W45817   4.473   1.306  14.470  0.2305  0.0180 -0.0770
32404W        W45818  15.950  16.482  14.509 -0.0649  0.1883  0.0355
32405W        W45819   4.026   5.425  10.971 -0.0033  0.0943 -0.1193
32406W        W45820  17.097  15.489   4.895 -0.0245  0.1026  0.0747
32407W        W45821  11.151   8.471  14.617 -0.1821 -0.4080  0.2458
32408W        W45822   0.549  17.127   2.265  0.0487  0.2139 -0.0360
32409W        W45823   1.734  15.719   3.164  0.0741 -0.1332  0.1825
32410W        W45824   1.976  12.742  11.734  0.1563 -0.0133 -0.0730
32411W        W45825  15.675   7.678  14.862 -0.2443 -0.0953  0.4880
32412W        W45826  12.343  14.966   0.959  0.0058  0.1563  0.0893
32413W        W45827   2.773   9.038   2.413  0.0186 -0.1603 -0.1218
32414W        W45828  16.646   3.257  14.116 -0.0695 -0.0766 -0.1077
32415W        W45829  17.817  16.919  10.272 -0.3004  0.0907  0.0917
32416W        W45830   6.546   5.950  14.814  0.0777 -0.0700 -0.0431
32417W        W45831   0.927   3.978  13.755  0.0752  0.2908 -0.2123
32418W        W45832   0.355   8.680  15.166  0.3628 -0.2708 -0.0104
32419W        W45833  16.620   2.822   6.120 -0.0076 -0.0310  0.2365
32420W        W45834   1.505   9.587   6.295 -0.1909 -0.2648 -0.0304
32421W        W45835  14.451   5.806  14.101 -0.0732 -0.2034 -0.2260
32422W        W45836   4.257   2.725  15.559 -0.1252 -0.4609  0.3694
32423W        W45837   4.774   7.170  13.331 -0.2512 -0.3092  0.2247
32424W        W45838   6.746  18.402   5.352 -0.0627  0.5106  0.1420
32425W        W45839   4.927   0.776  11.043 -0.0619  0.2773  0.1583
32426W        W45840  12.159   6.484  10.930  0.0088 -0.2965 -0.2282
32427W        W45841  10.998   6.486  10.198  0.0893 -0.0489 -0.4615
32428W        W45842   7.710  17.112  11.691 -0.0798  0.0165  0.0260
32429W        W45843   3.448   2.882  14.904  0.2997 -0.1345 -0.2664
32430W        W45844  15.534  16.810  12.726 -0.0790  0.0834 -0.2525
32431W        W45845   6.842  11.002  11.646  0.0945 -0.2034  0.2697
32432W        W45846   5.696  11.527  15.277  0.2747 -0.0473  0.2937
32433W        W45847   3.729   6.248   4.491  0.0838 -0.2088  0.0720
32434W        W45848  17.701   4.102  10.151 -0.1690  0.1349  0.5242
32435W        W45849   3.262   5.496   1.425 -0.0963 -0.3573 -0.1476
32436W        W45850   4.603  10.189   9.611  0.1451 -0.0366 -0.2605
32437W        W45851  12.009  16.719   3.867 -0.2992 -0.1256 -0.1266
32438W        W45852   6.386   5.915   9.985  0.1716 -0.0065  0.0684
32439W        W45853  13.872   5.663   0.399 -0.0084 -0.1411  0.3226
32440W        W45854   9.970   7.936  13.862  0.0392 -0.0025 -0.2685
32441W        W45855   6.973  14.832  11.988 -0.0427  0.0270  0.0313
32442W        W45856  12.732   8.077   3.719 -0.0947  0.3706  0.0897
32443W        W45857   4.201   1.646  10.842 -0.0605 -0.0542  0.0424
32444W        W45858  10.227  17.175   2.747  0.2542 -0.3762 -0.0553
32445W        W45859   1.789   7.293   4.902 -0.0252  0.0057  0.2285
32446W        W45860  10.153   8.606  14.574  0.3666  0.0500 -0.2458
32447W        W45861   6.067  11.016   2.612 -0.1230  0.2624 -0.0955
32448W        W45862  10.576  16.099  11.490  0.1997  0.4154 -0.1811
32449W        W45863  11.789  10.379   1.939 -0.3189  0.2909  0.2572
32450W        W45864   8.766  10.943  13.270  0.0060 -0.1744 -0.1260
32451W        W45865   2.858   7.908   0.135 -0.0823  0.1043  0.0742
32452W        W45866  15.749  13.865   0.888  0.3314 -0.1361 -0.0349
32453W        W45867  13.379  13.326  15.086  0.0208 -0.0049 -0.2435
32454W        W45868  12.545   9.217   2.535 -0.0983  0.1311  0.1033
32455W        W45869   1.080   0.034   5.004  0.0984  0.0630  0.1394
32456W        W45870  17.994  14.520   1.141  0.0787  0.0219  0.0581
32457W        W45871  11.594   4.621  11.753 -0.1757  0.1728 -0.2438
32458W        W45872  17.990   4.200  12.485  0.0085 -0.3105  0.3034
32459W        W45873  12.860  14.294   3.221 -0.0786 -0.0252 -0.4605
32460W        W45874   5.877   1.607   3.290 -0.2035  0.2516  0.1079
32461W        W45875   0.163  11.030  15.366 -0.0304  0.1937  0.1560
32462W        W45876   4.723  18.450   0.593  0.0647  0.2816  0.2091
32463W        W45877   6.678   2.216   6.226 -0.3070 -0.2232  0.0571
32464W        W45878   5.569  16.997   2.494  0.0640  0.0148  0.1945
32465W        W45879   2.299   1.716   4.587 -0.1812  0.2701  0.0092
32466W        W45880   1.191   7.417   6.035  0.1439 -0.2144 -0.1255
32467W        W45881  15.704   1.987  12.965  0.0377  0.0053  0.0939
32468W        W45882   1.755   9.448   4.141  0.1276 -0.2856  0.1151
32469W        W45883  14.651  16.016  16.177 -0.2907  0.1432 -0.2807
32470W        W45884   3.553  15.774   4.973  0.0242  0.1425 -0.2295
32471W        W45885   2.280   4.919   6.595 -0.1190  0.2384 -0.2695
32472W        W45886  10.078   6.767  15.643  0.0699  0.1023 -0.0525
32473W        W45887   3.074   8.747  11.353  0.0404  0.1700  0.1442
32474W        W45888  18.199   3.087   2.150 -0.3331 -0.0501 -0.1469
32475W        W45889   1.911   5.179   5.779  0.2839  0.0009 -0.2143
32476W        W45890   7.696   5.616  12.868 -0.1087  0.0988  0.0061
32477W        W45891   6.894   2.313  10.381 -0.1905 -0.1205 -0.0550
32478W        W45892   7.340  18.374  10.867 -0.0492  0.0306  0.2689
32479W        W45893   2.430  18.335  11.667 -0.0014 -0.0956  0.2820
32480W        W45894   8.962  16.228   1.304  0.2053 -0.0439  0.1815
32481W        W45895   9.549   0.093  14.449  0.0212  0.1645 -0.1300
32482W        W45896  14.929  16.549  15.142  0.2104  0.0666  0.0425
32483W        W45897   7.476   8.676   3.442  0.3640  0.0026  0.1541
32484W        W45898  11.737  13.375   2.133 -0.0780  0.0483  0.0345
32485W        W45899  18.402   2.309  11.821 -0.0110 -0.0619 -0.1017
32486W        W45900   9.203   5.080  11.295  0.0253 -0.0797 -0.0448
32487W        W45901  14.286   5.455  11.244 -0.1160 -0.1949  0.0192
32488W        W45902   0.113  16.518  11.177  0.0830  0.3195 -0.2159
32489W        W45903   6.252   8.248  14.170  0.0825  0.2057  0.2705
32490W        W45904   3.547  11.334   4.510  0.0540  0.0773  0.1929
32491W        W45905  17.290  11.087  13.013 -0.1385 -0.1983 -0.0627
32492W        W45906  12.133   6.210  11.982 -0.0145 -0.0539  0.0608
32493W        W45907   0.148  17.791  12.844 -0.1185 -0.0398 -0.3478
32494W        W45908  15.351  13.535   0.716 -0.1608  0.0601  0.1249
32495W        W45909   2.871   9.220  13.257  0.2655  0.0509 -0.0087
32496W        W45910   2.048   9.861  14.397  0.0406  0.0457  0.1479
32497W        W45911  13.659  18.079   3.138 -0.0324 -0.0528 -0.0772
32498W        W45912   5.127  10.604   2.204 -0.3030  0.1447  0.0985
32499W        W45913  10.417  10.437  15.374  0.0825  0.1014  0.3229
32500W        W45914   5.652   4.084  10.755  0.0114 -0.1000 -0.0441
32501W        W45915  16.628   6.825  10.235  0.0452  0.1212  0.0089
32502W        W45916   9.646   6.768   2.153  0.1204  0.3098  0.1950
32503W        W45917  12.838   9.676  13.937 -0.2311 -0.0805 -0.2358
32504W        W45918  13.767  13.195  14.767  0.0763 -0.2485  0.0237
32505W        W45919   3.843   7.057   2.985  0.1467 -0.0211  0.0836
32506W        W45920  14.814  18.119   0.473 -0.0598 -0.1408 -0.2329
32507W        W45921  16.384   4.340  15.576  0.0415 -0.0283 -0.3359
32508W        W45922  11.584  14.663  15.396  0.1048  0.0308  0.0067
32509W        W45923  16.268   6.389  13.745  0.0600 -0.0996 -0.0688
32510W        W45924   8.960   7.477  12.890  0.0237  0.0235  0.0706
32511W        W45925  16.474   8.013  15.333 -0.0921  0.2547 -0.3725
32512W        W45926   3.394   5.900  12.267  0.0190  0.1961 -0.0734
32513W        W45927  12.944   3.103   2.776 -0.0914 -0.2903 -0.2479
32514W        W45928   1.936  11.120  14.321 -0.3664  0.4255 -0.2136
32515W        W45929  14.854  12.601  15.473 -0.1934  0.0635 -0.0898
32516W        W45930  14.463  12.768  15.696 -0.1681 -0.0879  0.1712
32517W        W45931   8.499   4.848   3.186  0.2464  0.0011  0.1519
32518W        W45932  12.364   7.156  15.879 -0.1104  0.1301  0.2343
32519W        W45933  18.490  13.065  13.895  0.0008 -0.0060  0.1854
32520W        W45934   0.339   5.375  15.925  0.0442  0.0476 -0.1123
32521W        W45935  12.893   1.174   3.315 -0.0691 -0.4706 -0.3460
32522W        W45936  17.404   4.721  10.672  0.0935  0.2303  0.1129
32523W        W45937  10.133  12.646  13.265 -0.1794 -0.2620 -0.1146
32524W        W45938  10.584   4.194   1.618 -0.2477 -0.1189 -0.0388
32525W        W45939  17.246   2.592   4.817  0.2217  0.5508  0.0609
32526W        W45940  16.198   3.384  11.630 -0.3687 -0.2552  0.1636
32527W        W45941  16.564  13.877  15.747  0.2264 -0.1797  0.0545
32528W        W45942  12.843   1.791   0.470 -0.0008 -0.1686 -0.3376
32529W        W45943   8.916   2.625  13.205 -0.3397 -0.1283 -0.3477
32530W        W45944   2.470   5.432  11.173  0.2057  0.1523  0.2235
32531W        W45945   9.989  14.437  13.085  0.1493  0.0016  0.1121
32532W        W45946  13.296  14.430  13.417  0.1411  0.0638  0.1974
32533W        W45947   3.627  16.335  13.870 -0.3099 -0.2463 -0.1789
32534W        W45948   9.092  11.326   1.365  0.0860  0.0482  0.0900
32535W        W45949   9.456  10.165  13.468 -0.2396  0.1243  0.1987
32536W        W45950   8.688   4.290  13.596 -0.1170  0.1860 -0.0177
32537W        W45951   4.740   1.569   1.490  0.0876 -0.1493 -0.1114
32538W        W45952  14.435  15.219  13.747 -0.0481 -0.0138 -0.0659
32539W        W45953   8.413  15.948  13.957 -0.2111 -0.1570 -0.4146
32540W        W45954   2.153  13.055  16.059 -0.1403 -0.0406  0.0957
32541W        W45955  13.285   5.055  13.248  0.0899  0.3121  0.0715
32542W        W45956   6.689  13.226  13.745  0.1161 -0.1036 -0.2143
32543W        W45957  12.520   4.669  13.445 -0.0043  0.0925  0.2557
32544W        W45958   6.065  13.991   1.156 -0.5760  0.1300  0.1230
32545W        W45959  14.134  13.141   3.699  0.1023  0.0677 -0.3133
32546W        W45960   2.301  11.553   6.302 -0.0778  0.2604 -0.1105
32547W        W45961   4.295   0.840   3.697 -0.0944  0.3899 -0.0423
32548W        W45962   3.151  11.198  13.988 -0.3189 -0.1080 -0.2397
32549W        W45963   1.661   1.277   3.513 -0.0187 -0.4114 -0.0221
32550W        W45964  12.702   2.647  13.914 -0.0312  0.3694  0.0610
32551W        W45965   0.032   1.590  13.058 -0.1484 -0.1975 -0.0849
32552W        W45966   4.179   4.157   1.337 -0.1018  0.0145 -0.1015
32553W        W45967   0.565   6.329   0.438 -0.1718 -0.0106  0.3521
32554W        W45968  13.005   9.497   3.645 -0.3389 -0.0693 -0.3126
32555W        W45969  14.640   6.792   2.539  0.2362 -0.0506  0.1240
32556W        W45970  12.107  18.164  12.617  0.2892 -0.2148 -0.1059
32557W        W45971  10.673   7.727  13.796  0.0387 -0.1510 -0.0679
32558W        W45972  17.817  11.462  11.555 -0.4299  0.1603  0.0240
32559W        W45973   4.440   8.715   4.432 -0.1469  0.2856  0.0467
32560W        W45974  13.817   4.192  13.464  0.2301  0.0403  0.0487
32561W        W45975   7.281   2.294  11.641  0.3487  0.1160  0.0836
32562W        W45976  14.326  11.690   2.471 -0.0047  0.1286 -0.2620
32563W        W45977   7.778  13.151   5.121  0.0514 -0.1689 -0.1248
32564W        W45978   4.256  12.412  13.223 -0.1047 -0.2384 -0.0615
32565W        W45979   2.898   4.987  13.145  0.2877  0.0712 -0.0920
32566W        W45980   3.140   0.501   4.558  0.1674 -0.1378  0.2577
32567W        W45981  12.026  15.473   1.467  0.1406  0.2529 -0.0114
32568W        W45982  13.645   3.799   4.030  0.1800 -0.1584  0.0119
32569W        W45983   6.882  14.802  15.481  0.0061 -0.3042 -0.2481
32570W        W45984   6.329  16.143  13.330 -0.1235  0.5033 -0.0394
32571W        W45985  17.908   5.451  14.892  0.0883  0.1755  0.3720
32572W        W45986   9.887  14.272   0.393  0.1604 -0.1045 -0.5007
32573W        W45987  11.056  13.080   5.116 -0.0266 -0.2276 -0.3971
32574W        W45988  14.833   2.310   0.926  0.0679 -0.2326  0.1651
32575W        W45989   4.599   3.912  12.388  0.4668  0.0756  0.0882
32576W        W45990  18.007   9.356  10.928  0.1395  0.2741 -0.1550
32577W        W45991  14.293   6.565  10.757  0.1524  0.0369 -0.0004
32578W        W45992  17.077   9.753   4.032  0.0637  0.0965  0.0663
32579W        W45993   4.643   9.061  14.491 -0.2406 -0.0428 -0.2302
32580W        W45994   6.169  11.955  16.214  0.3055  0.2559 -0.1474
32581W        W45995  10.519   5.587  11.392  0.0618  0.2246  0.1272
32582W        W45996  15.983  14.244   5.015  0.1831 -0.1419  0.0630
32583W        W45997  14.572  16.632  11.946  0.0541 -0.0133  0.0810
32584W        W45998   4.499  16.092   1.355  0.0486 -0.3344 -0.3649
32585W        W45999  13.087   2.088  11.394  0.0508  0.1361  0.1071
32586W        W46000   8.241  12.084   0.578  0.1152  0.0761 -0.2443
32587W        W46001  11.896  11.227   6.816 -0.0944  0.0845  0.1836
32588W        W46002  10.163  11.693   2.627  0.1158 -0.0681 -0.1321
32589W        W46003  10.192   1.349  12.072  0.0223 -0.0279  0.3120
32590W        W46004   5.761   1.289  12.954  0.2410  0.2108 -0.4632
32591W        W46005   2.497  16.325  12.567 -0.2031  0.0206 -0.0516
32592W        W46006  12.657  14.834  13.915  0.4360  0.1800  0.6011
32593W        W46007  17.637   7.946  12.162  0.1624  0.1617 -0.0980
32594W        W46008  12.708  13.724  13.568  0.2945 -0.0463 -0.0358
32595W        W46009  17.950   3.788  13.818 -0.1514 -0.2834 -0.1556
32596W        W46010   4.584  10.243   5.539  0.2817 -0.0609  0.2196
32597W        W46011   6.369   9.985  11.628  0.0969 -0.0571  0.2075
32598W        W46012  10.598  10.892  11.703 -0.2929 -0.1985  0.1081
32599W        W46013  13.641  13.567   4.518 -0.0205 -0.2293 -0.2237
32600W        W46014  12.841  14.065   6.087 -0.2867 -0.1115 -0.2107
32601W        W46015   1.007  12.760  10.442 -0.0722  0.1291  0.4219
32602W        W46016  11.531   1.185  12.730 -0.0544 -0.0515 -0.2576
32603W        W46017  15.853   2.689  14.251 -0.2810  0.0080 -0.1497
32604W        W46018   5.407  13.444  15.200  0.1364  0.0490 -0.1181
32605W        W46019   3.590   9.684   5.770 -0.0325 -0.1053  0.3288
32606W        W46020  11.553   3.953  16.246  0.0695 -0.0136 -0.1172
32607W        W46021   2.509   3.298   5.327  0.0878  0.1325 -0.3571
32608W        W46022  15.956   2.253   2.788  0.2257 -0.2264 -0.2592
32609W        W46023   6.663  12.970   2.300 -0.0368 -0.1520 -0.1919
32610W        W46024   7.340  14.376  11.978 -0.0199  0.0553  0.2037
32611W        W46025   6.569  14.997   1.546 -0.0872 -0.0376  0.2541
32612W        W46026  14.866  15.637   1.332 -0.1070 -0.1734  0.0367
32613W        W46027   5.250   3.199   4.565  0.2275  0.3123  0.0024
32614W        W46028  12.185   6.555  12.864 -0.2685  0.0877 -0.1714
32615W        W46029  10.807  11.275  12.036  0.1315 -0.2062  0.0650
32616W        W46030  10.734   3.095   3.401  0.2666  0.0065 -0.1302
32617W        W46031   3.554   5.322  13.943  0.2029 -0.4410 -0.0974
32618W        W46032   8.276  13.137   4.359  0.1183  0.1117 -0.0979
32619W        W46033  18.063   2.665   5.718 -0.3364 -0.0825 -0.2108
32620W        W46034  10.902  10.518   5.486  0.0942 -0.1395  0.0767
32621W        W46035  14.282   4.713   2.574 -0.2174  0.1376  0.1495
32622W        W46036   3.747   2.501   4.736 -0.0630  0.2891  0.0396
32623W        W46037  13.848   3.144   4.918  0.2817 -0.1450 -0.0238
32624W        W46038   2.193  12.402   0.939 -0.1750  0.1260  0.1293
32625W        W46039  15.584  10.194  11.279 -0.0411 -0.1487  0.2651
32626W        W46040   1.464  10.635  14.929 -0.0846 -0.0362 -0.1369
32627W        W46041   1.098  10.910  15.804  0.0797  0.1100 -0.0545
32628W        W46042   1.458   1.002  12.837  0.2027 -0.0808  0.2029
32629W        W46043   0.960  13.296   1.299  0.1050  0.2374  0.1755
32630W        W46044   2.048   8.739   5.855  0.0092  0.0743  0.0066
32631W        W46045  17.793  16.745   4.484  0.0264  0.1173 -0.3952
32632W        W46046   4.339   8.487   1.040  0.1388  0.1482 -0.0773
32633W        W46047  18.046   1.864   1.195  0.2829  0.2034  0.0775
32634W        W46048   7.687   0.727   1.380 -0.0024  0.1612 -0.0296
32635W        W46049  17.291   5.465  11.707  0.4430 -0.3972  0.2969
32636W        W46050  10.807  14.055   1.206  0.0660  0.1191 -0.2154
32637W        W46051   6.499  15.700   4.795  0.0296 -0.0113 -0.0898
32638W        W46052  15.615  15.954  10.559 -0.0271  0.0188 -0.2473
32639W        W46053  18.169  17.106   3.642 -0.1005  0.0761  0.4158
32640W        W46054   6.074   6.210   4.589  0.0426 -0.0868  0.0207
32641W        W46055   2.141   6.240  15.636  0.2203  0.1717 -0.1405
32642W        W46056   7.252  11.034   3.552 -0.0285 -0.0118  0.1009
32643W        W46057   9.613   7.559   1.478  0.0277  0.0930  0.0177
32644W        W46058   3.639   2.079   3.843  0.1743  0.1121  0.0221
32645W        W46059  11.520   6.016  15.204  0.0447  0.0480 -0.1614
32646W        W46060   8.607   3.615  14.182 -0.1288 -0.0664  0.1599
32647W        W46061   9.141   0.195   0.056 -0.0201  0.2392  0.2959
32648W        W46062   0.752  12.420  12.965  0.3431 -0.1103 -0.0478
32649W        W46063   2.947  14.797  10.400  0.5563 -0.2391 -0.1398
32650W        W46064  11.831   6.332   0.964 -0.1754  0.0827  0.4921
32651W        W46065   4.793   7.035   4.663 -0.1596  0.2876 -0.1685
32652W        W46066   3.513  14.539   4.247 -0.1891 -0.0869 -0.0110
32653W        W46067  12.935  17.632  16.010  0.2227 -0.2061  0.1107
32654W        W46068   8.674   9.488   5.799 -0.2329  0.0668 -0.0140
32655W        W46069  12.929  17.350  12.749  0.2698  0.0371 -0.0045
32656W        W46070   4.064   2.383   2.567  0.2967 -0.4490 -0.0366
32657W        W46071  14.336   4.013  12.931  0.1134  0.1237  0.0328
32658W        W46072  13.086  14.053  13.674 -0.2520 -0.0134  0.2056
32659W        W46073  16.696  16.907  13.885  0.1032 -0.1395  0.0084
32660W        W46074   3.526   7.234   9.885 -0.1707  0.0167 -0.0016
32661W        W46075   5.295  15.830  13.635  0.3366 -0.1018  0.2988
32662W        W46076   1.294  15.242  15.349 -0.2187  0.3620 -0.0736
32663W        W46077   7.797  10.050   5.030  0.0408  0.0243  0.1274
32664W        W46078   9.434   8.104   2.445  0.1498 -0.1395 -0.0141
32665W        W46079   0.111  10.977  15.873  0.2869 -0.0339 -0.2274
32666W        W46080  17.692   3.356   5.041  0.0338  0.0692 -0.0374
32667W        W46081  16.872  11.496   3.144 -0.0581  0.1764  0.1523
32668W        W46082  12.602  13.596   1.018  0.0353 -0.0101  0.0592
32669W        W46083   6.283   7.761  15.801 -0.1248 -0.1990  0.0240
32670W        W46084   9.569   6.801  11.711  0.1516  0.1297 -0.2681
32671W        W46085   6.867   2.004   0.634  0.0871 -0.0374 -0.0762
32672W        W46086   7.481  17.994   2.279  0.0862 -0.2697 -0.1758
32673W        W46087   5.502   3.541   0.965  0.2631  0.0520 -0.3575
32674W        W46088   3.902   2.937   2.841 -0.0107 -0.1658 -0.0884
32675W        W46089   6.727  17.246  10.033  0.0974  0.1079  0.0129
32676W        W46090  12.142   5.071  13.425 -0.0188  0.2116 -0.1902
32677W        W46091   2.494   9.258   0.025 -0.1514  0.1132  0.1156
32678W        W46092  14.979  16.590   2.031 -0.0516 -0.0466  0.3233
32679W        W46093  10.067  11.914  15.850 -0.1963 -0.2679  0.0001
32680W        W46094   6.547  11.486   3.296  0.1583 -0.0042 -0.1058
32681W        W46095  12.617  10.382  15.699  0.0705 -0.0066 -0.0795
32682W        W46096  14.461  16.539  10.453 -0.2261  0.4263 -0.1230
32683W        W46097  11.950  11.721   5.410 -0.1001  0.0326 -0.1180
32684W        W46098   6.679   9.743  12.858 -0.0744  0.1638  0.0320
32685W        W46099   0.807  11.626   4.715 -0.2886  0.0828 -0.2059
32686W        W46100  10.755  11.018  11.258  0.0385  0.2447 -0.0205
32687W        W46101  12.908  15.640  14.601 -0.2099 -0.0296 -0.0235
32688W        W46102   8.929   5.972   3.130 -0.1720 -0.2477 -0.0289
32689W        W46103   5.040   2.607  12.986 -0.1641  0.0120  0.1501
32690W        W46104  13.839  10.302   4.403 -0.1531  0.1230 -0.0464
32691W        W46105  16.530   6.785   0.977  0.3264 -0.1754 -0.0819
32692W        W46106  12.781  15.013  12.130  0.1345 -0.0919  0.3179
32693W        W46107   3.594  18.072  14.075  0.0497 -0.1990 -0.0449
32694W        W46108  13.656   1.872   0.220 -0.1369  0.2053  0.0537
32695W        W46109  11.841  16.627  10.282 -0.0007 -0.4234 -0.0523
32696W        W46110   3.459   2.409  15.147  0.0434 -0.0807 -0.1814
32697W        W46111   8.776   2.010   4.289 -0.0768 -0.0822 -0.1184
32698W        W46112  15.459  16.357   0.154  0.2346 -0.0481  0.2439
32699W        W46113  17.365   3.077   4.740  0.0395 -0.2034 -0.2854
32700W        W46114  10.475   6.843   5.409  0.0346 -0.1575 -0.1147
32701W        W46115  14.233  11.717   0.276  0.0106  0.1573 -0.3933
32702W        W46116  16.361   0.181  10.521  0.2809  0.0564  0.1707
32703W        W46117  13.399  12.531  16.194  0.3476  0.0058 -0.1012
32704W        W46118  13.470   6.323  14.556 -0.1424 -0.2967 -0.3267
32705W        W46119   0.259   4.112   4.016 -0.0739  0.0570 -0.0441
32706W        W46120  12.304  17.874  15.316  0.1488 -0.0907 -0.0058
32707W        W46121   4.722   6.814   0.693 -0.0214  0.2148  0.0217
32708W        W46122   9.714  18.515   4.839  0.2473 -0.1234  0.1206
32709W        W46123   9.539   6.908   0.663  0.0887 -0.1038  0.1240
32710W        W46124  10.970   3.710   0.333  0.0720 -0.0574 -0.0296
32711W        W46125   5.378   1.667   5.164  0.2052  0.1686 -0.3704
32712W        W46126   0.361   0.089  15.927 -0.1022 -0.0833  0.2483
32713W        W46127   8.529   5.572  15.282  0.2141 -0.1138  0.0303
32714W        W46128  14.478  11.242  12.752 -0.1502 -0.1532 -0.0527
32715W        W46129   3.662  11.128  14.220  0.1601  0.1954 -0.1497
32716W        W46130   3.450  13.839  15.354 -0.2232 -0.0897 -0.1934
32717W        W46131   1.698  11.514  14.501 -0.0644 -0.3820 -0.0150
32718W        W46132   0.609  16.151  10.458  0.2232  0.0714 -0.0833
32719W        W46133  17.697   0.587  14.535  0.2652 -0.0428 -0.2360
32720W        W46134   7.014   6.307  11.288 -0.0035  0.2254  0.1016
32721W        W46135   0.952  18.348  12.784  0.3116 -0.0258 -0.0202
32722W        W46136   8.640   9.214   3.745  0.3250 -0.1624 -0.0065
32723W        W46137  18.391  16.360   5.912 -0.0185 -0.0787  0.1599
32724W        W46138   0.963   8.395  14.613 -0.2535 -0.1152  0.0048
32725W        W46139  16.004  10.927  14.283 -0.1085  0.1056 -0.5348
32726W        W46140   5.261   6.276   4.362  0.3385 -0.1210  0.0948
32727W        W46141   7.977  12.596  15.149 -0.2462  0.1123  0.2104
32728W        W46142   3.166   5.402   2.772 -0.2734  0.2741 -0.4204
32729W        W46143  15.343  14.365   1.407 -0.5430 -0.2106 -0.0511
32730W        W46144  15.954   8.276   1.709  0.0718  0.2645  0.1241
32731W        W46145  16.920   2.267  10.843  0.2523  0.0604 -0.0784
32732W        W46146   4.094   5.439   0.293  0.0993  0.2116  0.1183
32733W        W46147   2.774  15.393  12.219 -0.0608  0.2649  0.0561
32734W        W46148  12.148   0.726   4.585 -0.1469  0.2657  0.0442
32735W        W46149   4.839  10.250   1.893  0.1830  0.0560  0.2035
32736W        W46150  18.191   0.431   5.842  0.1432 -0.0000  0.1551
32737W        W46151   5.669  12.952  12.715  0.1284  0.2177  0.0911
32738W        W46152   9.103  13.711   0.768 -0.2366 -0.1126 -0.2259
32739W        W46153   8.305  15.048  12.974  0.0213 -0.1598  0.1778
32740W        W46154   9.979   1.389   2.604  0.0114  0.0636  0.2335
32741W        W46155   4.303   9.139   1.644 -0.2136  0.3640  0.0650
32742W        W46156  11.638   0.442  16.235 -0.1828 -0.3103 -0.3583
32743W        W46157  13.601   7.651  11.521  0.1540  0.1044 -0.0917
32744W        W46158   3.505   5.662   4.975 -0.4780 -0.1477 -0.2541
32745W        W46159   6.236  11.445  11.125  0.0187  0.1043 -0.0016
32746W        W46160   3.960  17.023   2.476  0.2551  0.1983  0.0882
32747W        W46161   8.475   8.198   0.963  0.1777  0.2004  0.1387
32748W        W46162  11.393   5.534  10.691 -0.2531 -0.0264  0.1992
32749W        W46163  12.125   9.859  13.436 -0.1432 -0.1773  0.1668
32750W        W46164  11.320  15.647   2.536  0.2811 -0.1265  0.0765
32751W        W46165  16.941   7.150   3.136 -0.1213 -0.0965  0.3268
32752W        W46166   3.317   3.218   4.734 -0.0228  0.0300  0.0983
32753W        W46167   9.177  11.306  10.739  0.0065 -0.0300  0.0258
32754W        W46168   6.219  10.452   0.189  0.3140  0.3881  0.4071
32755W        W46169  12.497   9.418   3.689 -0.4481 -0.0626 -0.0282
32756W        W46170  12.447   7.779   5.788  0.0499  0.0363  0.0567
32757W        W46171   0.661  14.360   1.431  0.1343  0.2641 -0.0435
32758W        W46172  15.947  12.843  10.958  0.2359  0.1300 -0.1914
32759W        W46173  12.353   0.232  15.967  0.1680  0.0495 -0.1226
32760W        W46174  18.442  10.635  15.188  0.1682  0.1894 -0.0413
32761W        W46175  11.099   8.951   9.931 -0.1231  0.0148  0.4060
32762W        W46176   6.329  11.437   4.260  0.0185  0.0640 -0.4078
32763W        W46177  11.732   5.636   3.781 -0.1422  0.1017 -0.0817
32764W        W46178  18.174   2.807   3.907 -0.1436 -0.1106  0.3195
32765W        W46179   6.423   9.721   3.606  0.1404 -0.1266 -0.0898
32766W        W46180   4.283   6.965   0.527 -0.1769  0.0798 -0.0033
32767W        W46181  17.581   6.953   5.017 -0.0150  0.2473  0.2009
32768W        W46182  12.124   8.674  10.054  0.1370  0.1138 -0.4017
32769W        W46183   6.395   4.345  13.351 -0.3535 -0.0385 -0.3381
32770W        W46184  13.763   5.751   2.859 -0.2517  0.0400 -0.1101
32771W        W46185   8.188  18.368  13.971  0.2779  0.3038  0.1343
32772W        W46186   5.619  16.046  10.301 -0.0767 -0.2951  0.1302
32773W        W46187   3.011  14.590  15.608  0.0459  0.0609 -0.1278
32774W        W46188   0.484  16.765   0.946  0.2430 -0.0089 -0.0717
32775W        W46189   3.184   4.487  13.075 -0.0377  0.2255 -0.2345
32776W        W46190   7.844   6.075   0.873  0.0708 -0.0220  0.0878
32777W        W46191   2.522   5.766   2.287 -0.2151 -0.0361  0.0327
32778W        W46192   2.894  12.828   2.142  0.2637  0.2289  0.2087
32779W        W46193   9.300  18.163   4.190  0.3059  0.0239  0.1011
32780W        W46194   0.440   3.973   3.539  0.3401 -0.1976 -0.0035
32781W        W46195  15.314   8.570   9.900 -0.2224 -0.3091  0.3084
32782W        W46196  10.251  14.619  16.017  0.3627  0.1451 -0.0701
32783W        W46197   8.868   8.588  16.019  0.1900  0.6164  0.3824
32784W        W46198  11.194  16.434   0.699 -0.2346  0.0425 -0.0905
32785W        W46199  13.338  10.730  10.729 -0.1586  0.2255 -0.2186
32786W        W46200  12.689   8.951   4.512  0.1301 -0.0309  0.0380
32787W        W46201   6.500  17.060   0.696  0.0285  0.1881  0.1093
32788W        W46202  16.010  16.941  12.800 -0.1885  0.1295  0.0446
32789W        W46203   4.829   4.090   0.681  0.1891  0.5021 -0.4049
32790W        W46204   8.068  15.038   0.098 -0.1317  0.1217  0.0277
32791W        W46205  15.466  14.636   3.797  0.0430 -0.2612 -0.0167
32792W        W46206  17.902  14.179   0.752 -0.2334 -0.0519  0.3218
32793W        W46207   8.501  17.760  14.578 -0.2400 -0.1688 -0.2151
32794W        W46208   1.680  13.041  16.150  0.2356 -0.0973  0.1740
32795W        W46209   5.914   5.034   2.587  0.2544 -0.1111 -0.0926
32796W        W46210  11.746   8.710   2.435 -0.1073 -0.2454  0.0057
32797W        W46211  14.541   8.717  12.594  0.0102  0.2941 -0.2237
32798W        W46212   4.306  16.908  12.012  0.2440 -0.0734  0.0152
32799W        W46213   0.474   2.212  14.176  0.4383  0.2779 -0.0493
32800W        W46214  16.369   4.739  13.983 -0.1146 -0.1688  0.0416
32801W        W46215   0.435   7.174  13.383  0.1248  0.3135  0.0668
32802W        W46216   7.372   3.981  14.360  0.0398  0.4126  0.0917
32803W        W46217  15.504   1.894  10.553 -0.0058 -0.0855  0.0382
32804W        W46218  14.703  18.051  10.262 -0.0509 -0.1622  0.0158
32805W        W46219  16.279  10.851   3.575  0.3762 -0.1789 -0.0615
32806W        W46220  10.644   7.032   2.320 -0.0184 -0.0447  0.0167
32807W        W46221  10.144   8.720   0.712 -0.0539 -0.0712 -0.0515
32808W        W46222  13.530  14.550   1.297 -0.0431 -0.2702  0.2384
32809W        W46223   6.601   9.242  12.465  0.0925  0.0621 -0.0021
32810W        W46224   3.165   9.584  12.516 -0.0404  0.0808 -0.2293
32811W        W46225  10.954   2.448  12.044  0.0445  0.0448 -0.0682
32812W        W46226   5.009   2.930   0.457 -0.0050 -0.2356  0.1390
32813W        W46227   8.789  14.513  10.778  0.1848  0.0656  0.0760
32814W        W46228   7.352   1.049  12.097 -0.0768  0.0287  0.1918
32815W        W46229  12.479  12.322  10.775 -0.2336 -0.1356 -0.0001
32816W        W46230  18.342   0.410   1.252  0.4354  0.3795 -0.1810
32817W        W46231   9.300  15.832   0.477  0.0582 -0.2404 -0.2070
32818W        W46232   7.710   5.778   4.349  0.1383 -0.1214  0.0813
32819W        W46233  14.987  17.984   5.302 -0.0572 -0.1406  0.2543
32820W        W46234  13.692  18.335   3.603 -0.2669  0.0783 -0.1538
32821W        W46235   8.362   0.583   2.122 -0.0238 -0.2567  0.0849
32822W        W46236  11.827   8.111   1.057 -0.3362 -0.0762  0.5094
32823W        W46237  17.874  14.610   2.668 -0.1421 -0.1257 -0.1219
32824W        W46238   3.274   3.961   5.169 -0.2933  0.3001 -0.2046
32825W        W46239   9.027  14.707   4.257 -0.0058 -0.0208  0.2466
32826W        W46240  10.029  16.873   3.548  0.1888  0.2144  0.1276
32827W        W46241  12.552   9.352   3.182  0.0203  0.0232 -0.4772
32828W        W46242   7.702   7.283   2.989 -0.1827 -0.0303 -0.2978
32829W        W46243   6.345   3.747   3.781  0.0002 -0.4061  0.0705
32830W        W46244   1.676  15.351  15.773 -0.2764  0.1505 -0.1004
32831W        W46245  12.344  11.470  13.999 -0.1177 -0.3305 -0.0501
32832W        W46246  17.192  16.333   2.916 -0.1000 -0.1161 -0.0285
32833W        W46247   2.116  15.841   4.779  0.2446  0.0565 -0.0563
32834W        W46248   8.873  16.517   0.884 -0.3566  0.2392  0.0089
32835W        W46249  16.114  13.751  15.410 -0.0097  0.0914  0.0750
32836W        W46250   5.660  14.188  14.051  0.1677 -0.1004 -0.2592
32837W        W46251   4.392  11.975  14.082  0.1920 -0.3677 -0.2761
32838W        W46252  11.311  11.707   3.460 -0.3312 -0.0836  0.0853
32839W        W46253   4.220   0.900   4.819  0.1027 -0.3166 -0.2345
32840W        W46254   6.022  10.541   4.057 -0.0908 -0.2049  0.1204
32841W        W46255  16.426  10.855   0.134 -0.0724 -0.2889 -0.1321
32842W        W46256   0.991  15.013  10.585  0.0717 -0.1021  0.3533
32843W        W46257   4.906   4.846   0.309 -0.3672  0.0322  0.3744
32844W        W46258  12.094   7.738  14.758 -0.0625  0.3273  0.2512
32845W        W46259   3.213  10.977   1.482  0.0750  0.3775  0.0603
32846W        W46260   5.421  13.342  14.503 -0.0985 -0.0879  0.4686
32847W        W46261  11.542   7.801  11.358 -0.0296 -0.1004 -0.0832
32848W        W46262  15.290   5.545  12.551  0.0129 -0.0951  0.1723
32849W        W46263  13.560  15.599   3.842  0.2126  0.0061  0.1983
32850W        W46264   5.847  12.782   3.519  0.2749  0.1581  0.4933
32851W        W46265  10.008   2.554  15.264  0.1268  0.2496 -0.0583
32852W        W46266   9.363   6.645   4.145  0.0006 -0.2268  0.1211
32853W        W46267   4.623   3.532   5.658 -0.3278 -0.0920  0.1100
32854W        W46268   5.249  14.210  13.310  0.0919 -0.0309  0.3614
32855W        W46269  12.134   0.659   2.906 -0.1292  0.0371 -0.0389
32856W        W46270  11.818   6.808  11.153 -0.0339  0.0649 -0.1198
32857W        W46271   9.409   7.687  13.611  0.0204  0.1538 -0.1300
32858W        W46272   3.190   2.139   1.152  0.0669  0.2070 -0.0283
32859W        W46273   4.328  10.305  12.739  0.0951 -0.2654  0.1318
32860W        W46274  15.707   8.136   6.048  0.3007 -0.1533 -0.1807
32861W        W46275   6.134  15.671  12.414  0.2280 -0.0323 -0.0931
32862W        W46276   0.547  10.278  15.265 -0.1733 -0.0376  0.1484
32863W        W46277  13.632  12.816  14.071 -0.1438  0.0175 -0.0296
32864W        W46278   6.765  17.227   4.744  0.1916  0.0708  0.1493
32865W        W46279  11.931   0.639  15.175  0.1752  0.1695  0.0872
32866W        W46280  17.890  12.462   1.085 -0.0022 -0.0506  0.3014
32867W        W46281  17.443  11.593   3.203 -0.0797 -0.0676 -0.0794
32868W        W46282   9.779   2.778   2.552  0.1672  0.0049  0.0273
32869W        W46283  16.537   5.244  10.756  0.2730  0.1480 -0.2595
32870W        W46284   7.235  14.993   2.919  0.1050 -0.1009  0.0110
32871W        W46285   5.081  10.942  13.799 -0.3498  0.2315  0.2035
32872W        W46286   0.899  12.549   2.358 -0.0922 -0.0333  0.0799
32873W        W46287   0.113  13.314  12.879 -0.0646 -0.0869 -0.0400
32874W        W46288  12.048  11.582  15.834  0.1034 -0.1191  0.5187
32875W        W46289   9.522  13.712   3.389 -0.2587  0.0045 -0.1399
32876W        W46290  17.173  11.443  14.216 -0.0431  0.0425 -0.2828
32877W        W46291   3.850  17.094  11.892  0.0448 -0.0199  0.2790
32878W        W46292   2.483   6.807  12.136  0.1552 -0.1609 -0.0400
32879W        W46293   7.692   3.513  13.717  0.0571 -0.0472  0.0368
32880W        W46294  14.740  13.589  15.620  0.2879  0.1474  0.0139
32881W        W46295   2.939  13.319   2.343  0.1336  0.0514  0.0108
32882W        W46296  11.136   8.474   5.999  0.0119 -0.0307  0.5086
32883W        W46297  11.344   9.828  14.670  0.0141 -0.0673  0.1554
32884W        W46298  10.026  11.373  10.886 -0.0494  0.0912 -0.0155
32885W        W46299  18.173  14.145   2.030  0.0279 -0.0287 -0.0807
32886W        W46300   8.891   6.780   2.273 -0.0105  0.1434  0.1308
32887W        W46301  12.730   2.909  12.532 -0.2937  0.1204  0.0567
32888W        W46302  14.112  11.149  15.734  0.1095 -0.1186  0.3140
32889W        W46303  18.265   0.233   5.370  0.0389  0.3636 -0.0525
32890W        W46304   1.834  11.437   2.317  0.0655  0.0108  0.1845
32891W        W46305  17.219  13.365   3.285  0.0615  0.1015  0.0858
32892W        W46306   1.501   8.086  10.591 -0.1518 -0.0785 -0.1239
32893W        W46307   7.575  15.593  10.840  0.0213 -0.1142 -0.0962
32894W        W46308   0.016   8.777   0.352 -0.0703  0.1115  0.0485
32895W        W46309  13.743   6.821  10.976 -0.1967  0.1288  0.0623
32896W        W46310  11.800   7.725  15.255 -0.0771 -0.1221  0.1685
32897W        W46311   1.623   4.150   4.655  0.2557  0.0391 -0.3606
32898W        W46312  14.711   3.358  11.806 -0.2026 -0.0146 -0.0469
32899W        W46313   3.201   2.564   0.235 -0.2027  0.0079  0.0721
32900W        W46314  18.023  15.851  12.479  0.0378  0.1920 -0.0274
32901W        W46315  12.651  12.242  11.412 -0.2003 -0.1309 -0.2782
32902W        W46316   8.632   6.523   5.632  0.2755 -0.1360  0.1285
32903W        W46317   2.880  18.007   0.330 -0.2658 -0.3847 -0.2427
32904W        W46318   0.926  13.986  15.807  0.0399  0.2163 -0.2242
32905W        W46319   4.279   2.243  12.919 -0.1507  0.0189 -0.0143
32906W        W46320  15.986  12.055   4.082 -0.1151  0.0977 -0.3250
32907W        W46321  17.302   4.299   0.110  0.0068  0.0570  0.3046
32908W        W46322   8.245  15.665  12.190  0.2529  0.0281  0.0982
32909W        W46323   0.258  16.421   4.495 -0.0338 -0.2732  0.4124
32910W        W46324  18.394   7.720   5.828  0.1717  0.1291 -0.0970
32911W        W46325   0.195   9.839  14.099 -0.0062 -0.2130 -0.2172
32912W        W46326   6.797  17.990  13.658  0.0077  0.3859 -0.0241
32913W        W46327  11.139   0.249   4.458 -0.0328 -0.4065 -0.0182
32914W        W46328  16.588   2.568   1.629  0.0356 -0.1340 -0.3464
32915W        W46329  16.413  17.468  16.046 -0.0799  0.1656  0.3801
32916W        W46330  12.959  13.179   3.774  0.1189  0.3708 -0.4028
32917W        W46331  12.322   4.987   2.776 -0.3377  0.3610  0.0229
32918W        W46332  10.877  10.906   3.995 -0.0235  0.1560  0.1168
32919W        W46333  15.699   4.345  12.493  0.0091 -0.0284  0.1595
32920W        W46334   2.591   1.483   4.211  0.0196 -0.0092 -0.0144
32921W        W46335   2.956   7.639   4.742  0.0057 -0.1416  0.1762
32922W        W46336   3.043  17.652   3.852 -0.3185  0.2225  0.3703
32923W        W46337  13.571   1.693   5.429 -0.2130 -0.1650 -0.2006
32924W        W46338   8.258  12.915   2.197  0.4302 -0.0935  0.5072
32925W        W46339   0.306  12.226  16.099  0.0877  0.1957 -0.1596
32926W        W46340  15.588   7.171   2.730 -0.2181 -0.0266  0.0200
32927W        W46341  13.873  13.859   5.394 -0.0506 -0.2039  0.0039
32928W        W46342   8.208   3.964  12.271 -0.1409 -0.1990 -0.0928
32929W        W46343   4.568   3.898  10.636 -0.0988  0.0776  0.1154
32930W        W46344   9.390  12.139  12.814  0.1939  0.1730 -0.2560
32931W        W46345   4.475   8.446  13.957  0.0342 -0.2086  0.3692
32932W        W46346  17.074   0.899   4.694 -0.1901 -0.1325  0.1459
32933W        W46347  12.368  18.500   4.109 -0.3781 -0.1962 -0.0298
32934W        W46348   5.648   8.563   2.875  0.1443 -0.3994 -0.1429
32935W        W46349   8.936   8.980   1.442 -0.3114  0.0052  0.0477
32936W        W46350   8.494  11.237   0.727  0.1447 -0.2426 -0.0348
32937W        W46351   2.358   9.286   1.706  0.0773  0.1345 -0.0046
32938W        W46352   7.483  10.542  11.886  0.3209  0.0703  0.0134
32939W        W46353   7.824  14.066  13.012 -0.1391 -0.0099 -0.1769
32940W        W46354  10.651   0.785   5.548  0.0802  0.0133  0.1299
32941W        W46355  16.818   2.232   3.241  0.3331 -0.3665 -0.1511
32942W        W46356   3.892  13.334  15.934 -0.4874 -0.5622  0.1036
32943W        W46357  13.217  15.722  12.046  0.2495 -0.0500 -0.0231
32944W        W46358   8.248  11.048  12.559  0.1174  0.2641  0.0593
32945W        W46359   3.119   7.598  10.578 -0.0268 -0.2062 -0.0156
32946W        W46360  11.744  12.675  11.707  0.0274 -0.0150  0.0470
32947W        W46361  10.600  17.839   9.487 -0.2950 -0.0855 -0.1826
32948W        W46362  11.184  14.494   4.930 -0.0230 -0.0662 -0.1084
32949W        W46363  11.346  15.942  15.515  0.1099  0.0245 -0.2855
32950W        W46364  16.904  13.906   4.773  0.0788  0.0005 -0.1355
32951W        W46365   2.156   0.121   0.467  0.1953 -0.1306 -0.0816
32952W        W46366   0.165  17.196  14.989 -0.1555  0.4996 -0.0694
32953W        W46367   2.832  12.280   5.005 -0.0978 -0.0268 -0.0580
32954W        W46368   2.524  10.173  13.441  0.2798  0.0643  0.0283
32955W        W46369   5.199   6.028  13.845 -0.0533  0.0780 -0.4605
32956W        W46370   0.228  10.116   4.103 -0.2928  0.0409 -0.2216
32957W        W46371  17.621  10.622  13.104  0.1261 -0.0543  0.0094
32958W        W46372  17.876  15.011  13.734 -0.0704  0.0028  0.0746
32959W        W46373   0.469   3.230  11.481  0.0375  0.1290 -0.2035
32960W        W46374   6.304   9.239  15.291  0.2069  0.1618  0.1205
32961W        W46375  18.388  15.380  16.242 -0.2539  0.3302  0.1838
32962W        W46376   6.171   2.608   3.271 -0.2586 -0.1121  0.1830
32963W        W46377   9.069  11.821   4.338  0.2918  0.3339  0.2604
32964W        W46378   1.203   9.739  12.448 -0.2494 -0.0260  0.1945
32965W        W46379   9.923  12.196   2.134 -0.1488 -0.1573 -0.1419
32966W        W46380   0.197   2.589   5.567 -0.0945  0.0192 -0.1123
32967W        W46381   3.876   2.008   5.129  0.3616  0.0878  0.0661
32968W        W46382   0.565   1.914  12.777 -0.1730  0.1266  0.1531
32969W        W46383   7.849  13.717   1.510  0.1943  0.1776  0.0550
32970W        W46384  11.247   6.493  12.697  0.0446  0.0744  0.1494
32971W        W46385   2.477   4.089  12.292 -0.3011 -0.3908 -0.3483
32972W        W46386   4.077  12.936   1.518  0.3053 -0.1402 -0.0801
32973W        W46387   0.724   8.092   3.037  0.2163  0.0967 -0.1049
32974W        W46388   9.327   7.507  12.260 -0.3042 -0.0883 -0.1407
32975W        W46389  13.436   6.252   3.689  0.1005  0.0907 -0.0040
32976W        W46390   1.291   2.845  12.659  0.1604 -0.1963 -0.1550
32977W        W46391   1.587  10.298  15.446 -0.1833  0.1944  0.0295
32978W        W46392   4.908  10.301  14.222  0.3194 -0.0411 -0.0894
32979W        W46393  12.507  10.115  14.102 -0.2515  0.4074  0.2871
32980W        W46394  18.517  17.464   0.341  0.0659  0.1433 -0.1884
32981W        W46395   9.406   0.071  11.546 -0.1257  0.0445  0.0241
32982W        W46396   9.568  11.689  14.229  0.0568 -0.0394 -0.0533
32983W        W46397   9.225  14.692   9.685  0.1622  0.3712  0.2213
32984W        W46398  15.523   2.530   0.530 -0.0407 -0.1739 -0.0169
32985W        W46399  11.972  10.986   0.373 -0.2371 -0.0917  0.1456
32986W        W46400  17.827   1.029   6.071 -0.1599  0.1188  0.2842
32987W        W46401   0.345   2.576  12.691  0.0077 -0.0672  0.0996
32988W        W46402   3.110   0.507   2.990  0.0416 -0.2583  0.1417
32989W        W46403   5.042  17.965   9.951  0.0866  0.2904  0.0601
32990W        W46404   1.761   5.877   0.208 -0.0701  0.0007  0.1279
32991W        W46405  15.128  10.736  13.481  0.1950 -0.0114  0.0910
32992W        W46406   5.849   7.061   1.134 -0.5012 -0.0214  0.1187
32993W        W46407  16.945   5.537   0.348  0.2171 -0.1733 -0.2316
32994W        W46408   6.237  12.231  13.027  0.4085  0.0469 -0.2930
32995W        W46409  18.166  17.666   1.263  0.1371 -0.1309  0.3994
32996W        W46410  10.600   6.003   0.495  0.1394  0.3153  0.0764
32997W        W46411   6.983  10.434   0.727  0.2119  0.1564 -0.0607
32998W        W46412  13.674   4.514  14.388  0.0821 -0.3169 -0.3560
32999W        W46413  16.703  10.501   2.514  0.1310 -0.3970 -0.1429
33000W        W46414   3.168   2.779   5.528  0.2456 -0.5372  0.2484
33001W        W46415   1.220  16.793  12.460 -0.2437 -0.2819  0.1452
33002W        W46416   6.373   0.767   4.445  0.1427  0.2838 -0.2808
33003W        W46417  15.136  12.298   5.982  0.1464 -0.1242 -0.1260
33004W        W46418  12.153   3.347   0.505  0.3760  0.0169 -0.0269
33005W        W46419   4.682   1.183   3.077 -0.0315  0.1276 -0.0286
33006W        W46420  11.997   2.316   1.494  0.1879  0.3753  0.1837
33007W        W46421   7.517   7.326  10.357  0.1683 -0.2748  0.3061
33008W        W46422  11.107   3.006   1.585 -0.2038 -0.0307  0.0779
33009W        W46423  10.603  12.016  15.913 -0.1544 -0.1922  0.0588
33010W        W46424  15.451  12.776   0.557 -0.1555 -0.1793 -0.0496
33011W        W46425  12.202  17.158   3.293 -0.4480 -0.2968 -0.1876
33012W        W46426   2.632  15.881   1.512  0.2257  0.1044 -0.1491
33013W        W46427   9.055   4.861   6.642 -0.1386  0.3865  0.0018
33014W        W46428  12.333  13.119  11.047 -0.2788  0.0523 -0.0704
33015W        W46429  11.293  17.663  14.563  0.4554  0.0747  0.0095
33016W        W46430   9.770  11.959  11.712 -0.0013 -0.0458 -0.1551
33017W        W46431  17.656   5.923  12.591  0.4279  0.0783  0.0172
33018W        W46432  17.040   2.397   1.820 -0.0225  0.1413 -0.0159
33019W        W46433  12.700   4.570  12.752 -0.1597  0.4147  0.0295
33020W        W46434  11.984   6.661  15.277 -0.0791 -0.2641 -0.0015
33021W        W46435   7.353  18.523  10.358 -0.0750 -0.0941 -0.1346
33022W        W46436   0.897   5.472   1.164  0.0115  0.0602  0.1156
33023W        W46437   9.131   1.062   1.660  0.0310  0.0478  0.2539
33024W        W46438   0.087  11.117   6.571 -0.0593  0.0008  0.1989
33025W        W46439   7.374   9.706   2.764 -0.0061  0.0956  0.1690
33026W        W46440  14.413  14.463  11.745 -0.0345 -0.0606 -0.0503
33027W        W46441  14.246   9.335  15.040 -0.2380  0.0807  0.1386
33028W        W46442  11.314  11.235  15.504 -0.5117 -0.0679 -0.0644
33029W        W46443   1.344   3.022  13.587  0.1614 -0.2253  0.1005
33030W        W46444   0.473  13.905  11.709 -0.0143 -0.1636  0.2216
33031W        W46445   9.357  14.568   5.301 -0.0568  0.0553 -0.0558
33032W        W46446   0.492   8.720  14.595 -0.1056 -0.1163 -0.4949
33033W        W46447  16.340  10.978  11.495  0.3222  0.1294  0.0229
33034W        W46448   2.979   8.536   1.480  0.1650 -0.2252 -0.2872
33035W        W46449  13.859   0.963  16.237 -0.0847  0.0438 -0.3317
33036W        W46450  13.201   3.892  14.364  0.0156  0.1110 -0.2259
33037W        W46451   6.954  10.073  16.062  0.0077 -0.0614 -0.1176
33038W        W46452   3.180  12.109   3.305 -0.3721  0.2848  0.1139
33039W        W46453   2.182   1.280  13.588  0.2839 -0.1658 -0.2176
33040W        W46454  17.017  11.076   1.917  0.2591 -0.0660  0.1129
33041W        W46455  16.307   8.807  15.421 -0.1427  0.0838 -0.4182
33042W        W46456   7.205  17.079  10.990 -0.4796  0.0266 -0.0593
33043W        W46457   1.903   8.007  16.113  0.0936  0.1145  0.2608
33044W        W46458  11.231  13.123  15.670 -0.0982  0.0357 -0.1048
33045W        W46459  16.715  15.897   5.183  0.2336  0.1381  0.1507
33046W        W46460  15.960  11.134   2.331  0.0459 -0.0024  0.2249
33047W        W46461  14.208   7.142   5.692  0.0650  0.0548 -0.1907
33048W        W46462  16.875  12.054   2.443 -0.0893  0.1417  0.2854
33049W        W46463  13.648   7.693   1.616  0.2738  0.2330 -0.2272
33050W        W46464   3.687   1.383   0.430  0.2348 -0.0553  0.0812
33051W        W46465  13.872   1.595   2.490  0.1069 -0.2565  0.0929
33052W        W46466  10.054   7.176   2.759 -0.0096  0.1815  0.2928
33053W        W46467   2.860   4.278   6.130 -0.0613 -0.1297 -0.0339
33054W        W46468   4.477  12.718   1.099 -0.2202  0.0564 -0.1911
33055W        W46469  14.091   9.281   0.221 -0.1587  0.1028  0.1083
33056W        W46470  11.874  16.060   3.283  0.0986  0.2099 -0.1561
33057W        W46471  14.644  12.226   0.281 -0.3576 -0.0137 -0.1864
33058W        W46472  13.252   1.966  15.620 -0.0767 -0.0159 -0.0524
33059W        W46473  15.398   0.795  14.064 -0.1515 -0.0719  0.0398
33060W        W46474   7.946  18.233  10.772 -0.0574  0.0620  0.0058
33061W        W46475  18.483  17.377   2.788 -0.1926 -0.1322 -0.2533
33062W        W46476  10.105  10.990   0.683  0.1861 -0.3049 -0.1685
33063W        W46477   8.232   3.057  16.142  0.1634 -0.1240 -0.1811
33064W        W46478   0.550  14.832   2.166  0.2078 -0.0337 -0.0696
33065W        W46479  17.470   0.834  12.553  0.1013 -0.0526  0.1034
33066W        W46480   9.056  15.824   2.644 -0.1058  0.3157  0.1549
33067W        W46481  11.627  17.298   5.259  0.0647  0.0823  0.1632
33068W        W46482  11.442   2.375  12.930 -0.0856  0.1300 -0.0335
33069W        W46483  14.980  14.062   3.373 -0.0180  0.2003  0.1805
33070W        W46484   4.180  14.442  12.104  0.2329 -0.0737  0.0064
33071W        W46485  13.629   9.594   3.285 -0.0339  0.0692  0.0596
33072W        W46486   8.168  12.950  12.261 -0.3563  0.0658  0.0241
33073W        W46487  14.840  16.759  10.723  0.2557  0.0911 -0.1062
33074W        W46488   4.164  16.501   5.112 -0.1627  0.1318 -0.1723
33075W        W46489  12.551   6.423  11.782  0.1216  0.1831 -0.1560
33076W        W46490   4.503   1.880   4.370  0.2264 -0.0630 -0.0791
33077W        W46491  17.740  14.377   1.719  0.1434 -0.1442  0.2309
33078W        W46492  16.169   4.769  12.626  0.1193  0.1385  0.0368
33079W        W46493  14.843   2.560   2.350 -0.0125  0.1790 -0.1696
33080W        W46494   4.318  13.409   2.833  0.0427 -0.0202  0.3001
33081W        W46495  17.580   3.043  15.887  0.2900  0.1738 -0.3098
33082W        W46496   0.808   8.295   2.074 -0.1899 -0.3286 -0.0154
33083W        W46497   1.482   6.488   5.664  0.2704 -0.0908  0.3857
33084W        W46498  13.700   4.473  12.574  0.0557  0.2098 -0.1368
33085W        W46499  17.328  16.088   3.396  0.0728  0.2531  0.1314
33086W        W46500  10.950   0.649   4.067  0.2782 -0.2002  0.1542
33087W        W46501  16.487   9.758  15.259 -0.0091 -0.1165 -0.2526
33088W        W46502  13.604   1.408  10.753 -0.2050  0.0781  0.1900
33089W        W46503   3.182  16.780  15.513 -0.2334  0.0550  0.0192
33090W        W46504   0.745   7.664   6.138  0.0334 -0.1754 -0.0855
33091W        W46505   3.006  14.598   4.764  0.0387 -0.1380 -0.1423
33092W        W46506   4.368  15.744   6.029 -0.2327 -0.0103 -0.4663
33093W        W46507   8.453  11.883  13.387 -0.2881  0.2287  0.1290
33094W        W46508  17.510   1.006   2.764  0.0381 -0.2238  0.1575
33095W        W46509   5.699   5.967  16.012 -0.0279 -0.0112 -0.1428
33096W        W46510  18.209   3.718   0.299 -0.0828 -0.3693 -0.2705
33097W        W46511  13.695  14.966   5.144 -0.0856  0.0994 -0.2815
33098W        W46512  11.887   7.232   0.248  0.1583 -0.1480  0.0701
33099W        W46513   3.106  11.239   2.315  0.0950 -0.0143 -0.0376
33100W        W46514   7.646  17.077  14.472  0.0721  0.0711 -0.2041
33101W        W46515  13.596   5.261   6.306  0.0411  0.1182  0.1841
33102W        W46516   1.363   3.634   1.173 -0.4215 -0.0873 -0.1774
33103W        W46517   7.088   3.770   4.705 -0.0536 -0.1795 -0.2278
33104W        W46518   3.007   7.278  13.811  0.0639 -0.1733  0.0954
33105W        W46519   8.608  15.516   2.593 -0.0867  0.1956 -0.3018
33106W        W46520   1.755  11.614  12.636  0.1913  0.2917 -0.2032
33107W        W46521  10.258   7.780   2.205 -0.1675 -0.0551 -0.1918
33108W        W46522  12.465   3.502   1.764  0.2779 -0.0806 -0.1996
33109W        W46523  11.618   1.281  10.982  0.0130 -0.0777  0.0021
33110W        W46524  14.521   1.381  15.657 -0.1178  0.0123  0.0128
33111W        W46525  18.136  18.185  13.303 -0.0387 -0.2982 -0.1037
33112W        W46526   7.289   4.900   1.373 -0.0660  0.0704  0.0832
33113W        W46527   8.496  15.378  15.011 -0.0029  0.3853  0.3755
33114W        W46528   7.820   5.298   4.112 -0.1157 -0.1907 -0.1022
33115W        W46529  11.926  11.430  14.954  0.1141 -0.0960 -0.0052
33116W        W46530  12.615  12.168   1.005 -0.0959 -0.0307 -0.0764
33117W        W46531   1.448  10.685  10.773 -0.2738 -0.0096 -0.1409
33118W        W46532   4.119   3.596  12.295 -0.1640 -0.0479 -0.0153
33119W        W46533   2.710  10.566  14.348  0.0295  0.2528 -0.3577
33120W        W46534   7.265   1.887  14.192  0.1213  0.0397 -0.1979
33121W        W46535  15.322   4.042   3.535 -0.0559 -0.1383 -0.1698
33122W        W46536   3.000  13.551  12.241 -0.0254 -0.1776 -0.2849
33123W        W46537  10.895   0.082   3.502  0.1031 -0.0581 -0.0909
33124W        W46538  14.851   3.598  12.665  0.2864 -0.1099 -0.1451
33125W        W46539   3.647  12.228   4.404 -0.1638 -0.0660  0.0047
33126W        W46540   4.239  15.876  11.322  0.0931 -0.1029  0.0406
33127W        W46541  17.435   6.954  11.185 -0.1312  0.1256 -0.3557
33128W        W46542  17.205   6.850   2.780  0.0008  0.1429 -0.0176
33129W        W46543  17.704  13.215  11.893 -0.1119  0.5015  0.0712
33130W        W46544   7.552   3.937  15.052  0.0386  0.1369 -0.0685
33131W        W46545   9.108  15.901  14.513 -0.0571  0.1662 -0.1632
33132W        W46546   8.883  11.919   1.123  0.2288 -0.1589 -0.2053
33133W        W46547  10.472   9.707   1.732  0.0856  0.3657 -0.0883
33134W        W46548  12.261   9.494  10.786  0.2130 -0.0541 -0.0257
33135W        W46549  11.403  18.519  10.619  0.2422  0.2977 -0.0626
33136W        W46550  18.422   5.622  15.434  0.2680 -0.2539  0.0034
33137W        W46551   8.931  17.443   1.338  0.1453  0.0322 -0.1734
33138W        W46552   0.959  17.006   3.252  0.0062 -0.0497  0.2192
33139W        W46553   1.640  11.535   0.798 -0.0623  0.0423  0.0164
33140W        W46554   5.752   9.395  14.445  0.1094 -0.0169 -0.0422
33141W        W46555   9.471  15.971   1.301 -0.2134  0.2391  0.0090
33142W        W46556   8.664   5.593   3.278  0.2184 -0.1512  0.2100
33143W        W46557  16.768   3.709   4.824 -0.2461  0.3059 -0.2354
33144W        W46558  11.978   2.302   4.510 -0.0697 -0.3280  0.1309
33145W        W46559   7.847  16.963  15.370  0.0395  0.0367 -0.1261
33146W        W46560   6.677  14.952   5.087 -0.1365  0.0806  0.3089
33147W        W46561  14.352   4.865  13.041 -0.2412  0.0940 -0.0045
33148W        W46562  16.840   3.357  13.457 -0.0875  0.2258  0.0790
33149W        W46563   1.229   1.231   4.861  0.1162 -0.3159  0.0272
33150W        W46564   7.359   2.358  13.365  0.0261  0.2399 -0.5715
33151W        W46565  11.538  14.448   4.186  0.0957  0.0666  0.1673
33152W        W46566  17.594  10.430   1.266 -0.2749 -0.0808 -0.0375
33153W        W46567  14.660  14.548  12.617  0.2873 -0.0308 -0.0044
33154W        W46568   9.677   0.049   4.189 -0.1489  0.0443 -0.0749
33155W        W46569   1.340   9.689   4.748  0.1018 -0.0981 -0.1607
33156W        W46570  12.275   3.437   2.298 -0.1123 -0.0242 -0.1090
33157W        W46571  15.716  15.699   1.513  0.0463  0.0859  0.2147
33158W        W46572   3.354   6.641   0.731  0.1701  0.0191  0.0524
33159W        W46573  10.267   4.211   0.354 -0.0902 -0.1110  0.2428
33160W        W46574   7.603   3.666   4.724  0.1666  0.3224 -0.0825
33161W        W46575   5.366   1.390  14.914  0.2034 -0.2780  0.0300
33162W        W46576   5.451  15.787  12.296 -0.4806 -0.1268 -0.3906
33163W        W46577   8.205  16.031   2.567 -0.1387 -0.0433  0.4228
33164W        W46578  11.303   6.828  14.456 -0.1007  0.0783  0.1026
33165W        W46579   3.762   5.961   3.990 -0.1433  0.0613 -0.0790
33166W        W46580  17.139   4.462  15.257  0.0005 -0.0023 -0.1101
33167W        W46581   5.546   4.476  12.865 -0.0158 -0.0592 -0.1287
33168W        W46582  16.795   5.693  13.545  0.1008 -0.0540 -0.2091
33169W        W46583   3.825  11.241  11.010  0.0062  0.0579  0.0099
33170W        W46584  10.073   3.242  15.959 -0.2334  0.2136 -0.2753
33171W        W46585  11.844  12.050  15.881 -0.2334 -0.0760 -0.1504
33172W        W46586   2.428  15.992   3.177  0.0271 -0.2949 -0.0916
33173W        W46587  15.535  18.058  11.729  0.1383 -0.0999 -0.1527
33174W        W46588   1.104  16.075   5.411 -0.1187  0.2102  0.0165
33175W        W46589   3.902   9.608  11.297  0.2090  0.3030 -0.2388
33176W        W46590  18.425   3.966   2.056 -0.1481 -0.0479  0.0724
33177W        W46591   2.019  14.249  14.608 -0.2171 -0.0259  0.2054
33178W        W46592   4.370  16.991  10.584 -0.1785 -0.2331 -0.0372
33179W        W46593   3.912  14.021   1.839 -0.1994  0.2319 -0.1139
33180W        W46594   5.267   1.701   3.876 -0.2067 -0.1464 -0.0141
33181W        W46595   6.414  11.376   1.822 -0.3763  0.1247 -0.1527
33182W        W46596   2.307   9.095   2.228 -0.0432  0.1366  0.0098
33183W        W46597   2.208   2.561  13.074  0.0836  0.2424  0.0659
33184W        W46598   5.861   1.031   2.102 -0.2463 -0.2958 -0.1252
33185W        W46599   1.172   5.175   0.773  0.1247  0.1746  0.0024
33186W        W46600  15.396   6.669  14.259  0.3668 -0.0176  0.7089
33187W        W46601  16.029  13.047   5.252  0.0354  0.1904 -0.0510
33188W        W46602   7.316  17.142   0.035 -0.3371 -0.3220  0.3580
33189W        W46603   2.844   0.317   3.767  0.1407  0.1488 -0.0492
33190W        W46604  14.373  10.280  12.450 -0.1094 -0.3345  0.1606
33191W        W46605  17.685   7.292   5.574  0.2438  0.4026  0.1878
33192W        W46606   2.178   8.288   9.938  0.2601  0.3282 -0.0206
33193W        W46607   1.876   8.441  12.994 -0.0997  0.1551 -0.0869
33194W        W46608   3.823   1.668   4.263 -0.0141 -0.0077 -0.4412
33195W        W46609  15.069   5.564   3.377 -0.2369 -0.1399 -0.4636
33196W        W46610   6.745   7.878  10.363  0.1891 -0.1075 -0.2401
33197W        W46611  15.823   7.360  15.260  0.1130 -0.0760  0.4987
33198W        W46612   8.922   9.789  13.759  0.0619  0.0624  0.0311
33199W        W46613   8.848  14.880   1.456 -0.2174 -0.1055 -0.2202
33200W        W46614  13.047  18.284   4.872  0.1277 -0.0430  0.0223
33201W        W46615   1.281   9.109  10.436  0.0444  0.0549 -0.1643
33202W        W46616   0.861   3.762   5.897 -0.0417 -0.4772 -0.3054
33203W        W46617  13.171  17.313   0.739  0.0557 -0.1022  0.0182
33204W        W46618   6.849  11.618   0.810  0.0945 -0.3085  0.0756
33205W        W46619   2.225  12.743   4.880  0.0755 -0.0552 -0.0610
33206W        W46620  13.612   1.879  12.066  0.2267  0.1165  0.1778
33207W        W46621   5.548  14.277  14.548  0.1675 -0.1579  0.4246
33208W        W46622   5.745   9.351  10.786 -0.1873 -0.1215 -0.1149
33209W        W46623  14.204  11.955  10.836 -0.0278 -0.2232 -0.0986
33210W        W46624   3.749  13.949   0.266  0.1401 -0.0921  0.0404
33211W        W46625  16.506  17.576   3.577 -0.1294  0.1414  0.0903
33212W        W46626  17.327  12.304   5.419 -0.0236 -0.0109 -0.1520
33213W        W46627   9.797  17.761  11.167  0.1443 -0.0489 -0.0490
33214W        W46628   2.787   8.283   5.651  0.0060 -0.1046 -0.4100
33215W        W46629  12.962   4.229   4.107 -0.1145 -0.2972 -0.1637
33216W        W46630   4.933  17.922   4.799 -0.1034 -0.0477  0.1771
33217W        W46631   5.422   0.267   9.593 -0.2107  0.0174  0.1008
33218W        W46632   2.063  17.258  12.334  0.0680 -0.0921  0.3359
33219W        W46633   8.281  13.965  14.785 -0.0123  0.1759  0.0468
33220W        W46634  12.354   3.787   0.475 -0.0989 -0.0088  0.2552
33221W        W46635  17.954  16.180   4.441  0.3137 -0.1235 -0.0440
33222W        W46636   1.223  13.568   2.276 -0.2912  0.0993  0.3470
33223W        W46637  15.505   9.530   3.903 -0.1746 -0.1142  0.1125
33224W        W46638   6.030  15.891   1.291 -0.0509  0.1741 -0.0713
33225W        W46639  13.393  11.412   2.600 -0.1799 -0.0929  0.1089
33226W        W46640   8.183   7.737  12.119  0.0183 -0.3133  0.3826
33227W        W46641  13.720  11.993  14.599  0.0181  0.2450  0.0040
33228W        W46642  18.355   6.143   2.722 -0.2138  0.1084 -0.0151
33229W        W46643   1.220  16.782   0.933  0.1975 -0.0782 -0.0604
33230W        W46644   3.915  12.092  11.952 -0.0930 -0.1781  0.2407
33231W        W46645   6.973   0.163   3.116  0.0519  0.4136  0.0673
33232W        W46646   6.873  18.518  14.938 -0.0402  0.3071 -0.0997
33233W        W46647  15.632   4.260  10.439  0.2186  0.0742 -0.2775
33234W        W46648  17.492   3.575  13.858 -0.1076 -0.2318 -0.1884
33235W        W46649  12.414   6.982  13.079 -0.2700  0.2003  0.1149
33236W        W46650   9.016   8.237   4.653 -0.3012 -0.4003 -0.1575
33237W        W46651  17.466   0.468   1.039 -0.0426  0.0866 -0.0905
33238W        W46652  18.005  13.786  10.641  0.0396  0.0840  0.0524
33239W        W46653  16.014  11.607   4.261 -0.0005 -0.3187 -0.2738
33240W        W46654  17.053   5.338   1.597 -0.1619 -0.2143  0.2091
33241W        W46655   3.728   3.471  13.027  0.0004 -0.3823  0.2607
33242W        W46656   0.388   9.583  14.584  0.0974  0.1216 -0.1286
33243W        W46657   7.042  14.240   1.733 -0.1020 -0.0970 -0.0576
33244W        W46658  15.291   2.003  11.561  0.1585  0.0494  0.0006
33245W        W46659   0.331  12.805  13.659 -0.0039  0.0660  0.2070
33246W        W46660   9.331   7.238  13.835  0.1758 -0.1490 -0.1561
33247W        W46661   6.256   1.437   2.964 -0.1137  0.3118 -0.1048
33248W        W46662   5.030   5.899  14.777 -0.2930 -0.0261  0.1478
33249W        W46663   0.608   6.043   0.988 -0.0503  0.1574  0.0285
33250W        W46664   2.530   3.509   0.692  0.2239 -0.0544  0.2904
33251W        W46665   2.428  13.430   1.022 -0.2134  0.0145  0.2789
33252W        W46666   5.180  17.521   3.701 -0.1089 -0.1937 -0.0618
33253W        W46667   2.112   3.696  11.619  0.0164 -0.0747 -0.1493
33254W        W46668  13.496  12.709   1.661 -0.0749 -0.3888  0.2227
33255W        W46669  16.169   7.854   5.944  0.0923  0.3683  0.0377
33256W        W46670   5.669  11.785   3.515  0.0772  0.0288  0.0971
33257W        W46671   2.982  18.163   3.873 -0.1639 -0.4761  0.1909
33258W        W46672  10.866  11.079   1.678  0.0635  0.0870  0.2333
33259W        W46673   9.132   4.502  12.843 -0.3035 -0.3325 -0.0157
33260W        W46674   9.961   0.416  10.492 -0.0184 -0.0280  0.1215
33261W        W46675  15.385  14.247  12.834 -0.2254  0.1010 -0.1438
33262W        W46676  10.813  14.965  14.776  0.0846 -0.1542 -0.1211
33263W        W46677  15.649   3.213  15.211  0.0611  0.3386 -0.2355
33264W        W46678   6.510   9.801  14.034  0.0346  0.0431  0.2677
33265W        W46679   3.548   4.181  10.928 -0.1544 -0.1399  0.1972
33266W        W46680   5.217   8.236   2.644 -0.2742 -0.1037  0.1496
33267W        W46681  16.521   4.709   4.878  0.1600 -0.4904 -0.2182
33268W        W46682   3.881  18.012  10.469  0.2043  0.1874  0.3277
33269W        W46683  14.011   8.993  15.351 -0.0058 -0.3143  0.0719
33270W        W46684  13.633   8.628  12.525  0.1567  0.1931  0.0434
33271W        W46685   9.122  10.486   2.359  0.1811  0.0069 -0.5575
33272W        W46686  14.039   6.766   2.577 -0.2845 -0.4233  0.1207
33273W        W46687   3.098  16.404   5.180  0.5315  0.0412 -0.1072
33274W        W46688   6.500   1.718  14.805  0.2353  0.0418 -0.2846
33275W        W46689  12.203  10.636   1.798  0.2683  0.1438 -0.2307
33276W        W46690  13.482  18.447   2.739 -0.2163 -0.2748  0.0040
33277W        W46691  10.020  16.010   5.672 -0.3873  0.1185 -0.0431
33278W        W46692  13.973   2.120  15.703  0.1996  0.0140  0.1338
33279W        W46693   3.454  15.509   3.980 -0.2598 -0.0347  0.0773
33280W        W46694  14.232  12.768   1.085 -0.0856  0.0573 -0.0284
33281W        W46695   5.477   7.684  10.613 -0.0814 -0.1905 -0.2490
33282W        W46696   6.439   7.214   5.712 -0.0449 -0.0280 -0.1629
33283W        W46697   4.467   8.859   3.052  0.0218 -0.2265  0.0530
33284W        W46698   2.849   9.820   3.750  0.0397 -0.1454  0.4169
33285W        W46699   2.436   4.002   3.889 -0.0157  0.0445 -0.1670
33286W        W46700  17.686  18.015  12.837 -0.0649  0.0298  0.2325
33287W        W46701  17.514   9.914   1.261  0.0594  0.0346  0.5682
33288W        W46702  17.723   5.294   4.555  0.2598  0.2403 -0.1121
33289W        W46703   2.334  14.812  15.193  0.1687 -0.0581  0.0670
33290W        W46704   2.458  17.000   0.533 -0.0963  0.2869 -0.1946
33291W        W46705  12.696   9.762   6.579 -0.0483 -0.0866 -0.2673
33292W        W46706  18.505   4.160  12.446 -0.1940 -0.1759 -0.0451
33293W        W46707  10.568  12.497  16.153 -0.1718 -0.2783 -0.3544
33294W        W46708  15.174  18.179  10.914  0.0490 -0.1652 -0.0900
33295W        W46709   3.328   2.708   4.514 -0.2353  0.1094 -0.3955
33296W        W46710  17.786   9.520   1.458 -0.1479  0.2231 -0.0541
33297W        W46711   9.647   4.718  13.252 -0.0924  0.4054  0.0184
33298W        W46712   0.381  14.647  12.418 -0.1236 -0.2900 -0.0596
33299W        W46713  13.274  17.218   2.843 -0.1213  0.3421  0.1758
33300W        W46714   9.236   0.745   5.335  0.1179 -0.0883  0.0159
33301W        W46715   3.350   0.895   0.365  0.2902 -0.6564  0.1877
33302W        W46716  10.789  12.782  15.309  0.3443 -0.4481  0.0966
33303W        W46717  14.970   0.554   3.488  0.0793  0.0268  0.0265
33304W        W46718  15.118  15.441   3.642  0.0238 -0.0114  0.0103
33305W        W46719   6.106   4.681   2.237 -0.1899  0.2236  0.0337
33306W        W46720  17.498   2.452   2.032 -0.0669  0.2202  0.1028
33307W        W46721   5.144  16.723   3.616  0.0899  0.1095  0.0472
33308W        W46722   9.660   7.515   0.519  0.1516  0.1567 -0.1683
33309W        W46723   9.103  10.803   1.305  0.1154  0.0672 -0.2940
33310W        W46724   4.149   6.561   0.718 -0.0958 -0.0712 -0.0136
33311W        W46725  15.261  13.356  11.109  0.1742  0.0893  0.0954
33312W        W46726   1.728   9.433   5.040 -0.0349  0.0505  0.0523
33313W        W46727  14.841  12.262  12.563 -0.0568 -0.1131  0.0368
33314W        W46728  11.650   6.019   6.355 -0.1085 -0.0768 -0.0762
33315W        W46729  18.454  16.748   1.693  0.3055  0.0133  0.1979
33316W        W46730   9.286  17.672  11.426 -0.1442  0.2401  0.0744
33317W        W46731  17.871   3.605  12.516 -0.0447 -0.3829 -0.0169
33318W        W46732   5.858  11.137  11.371 -0.1458  0.0949 -0.0118
33319W        W46733  11.981  10.421  14.849 -0.2311 -0.1256  0.2170
33320W        W46734   1.714   5.330  11.559  0.0887  0.0915 -0.0759
33321W        W46735  15.107   6.720  16.179 -0.0796  0.2764 -0.2390
33322W        W46736   3.553   8.868  10.068 -0.2519 -0.2666 -0.1718
33323W        W46737   9.112   6.860  12.932  0.3181  0.2673 -0.2137
33324W        W46738   0.995   2.692   5.090  0.0351 -0.0953  0.1355
33325W        W46739   0.484   7.801   2.615 -0.1378 -0.0674  0.2970
33326W        W46740  15.458   8.233   2.983 -0.2051 -0.1761  0.1349
33327W        W46741   8.937  17.244  11.577 -0.0336  0.1401 -0.0427
33328W        W46742   5.330  14.516   1.151 -0.0322  0.4300  0.0036
33329W        W46743   2.204   5.290   1.776 -0.0491  0.1863 -0.0989
33330W        W46744   0.733   1.713  13.772 -0.3903 -0.3872  0.1918
33331W        W46745  14.368   7.718  12.895 -0.0476 -0.1064  0.1089
33332W        W46746   2.893   8.598  15.169  0.0674 -0.2541 -0.2388
33333W        W46747   7.190   0.396  11.409  0.0906 -0.1499  0.2501
33334W        W46748   4.149   8.008  14.465  0.0576  0.1228 -0.1938
33335W        W46749  16.459  17.549   4.690  0.1379  0.1240 -0.3258
33336W        W46750   0.052  15.945  11.122 -0.2144 -0.1398  0.2293
33337W        W46751   3.457  15.868  14.106  0.4312 -0.0730  0.0779
33338W        W46752  15.112   4.444  13.832  0.0289 -0.0757 -0.1114
33339W        W46753   8.109   6.443  10.802  0.0659 -0.1746 -0.0620
33340W        W46754   8.861  10.490  14.287  0.0688  0.1576 -0.0193
33341W        W46755   8.626   3.506   4.602  0.2070  0.2068  0.2400
33342W        W46756   4.502  10.277  15.881 -0.0825 -0.1012  0.0829
33343W        W46757   9.260  12.866  13.805  0.1138  0.2637  0.0324
33344W        W46758  14.454  14.952  13.000 -0.1051  0.0097 -0.0960
33345W        W46759  11.088  10.672   2.941 -0.0200  0.3402  0.4253
33346W        W46760  10.208  12.290   4.945  0.3154 -0.1551 -0.0953
33347W        W46761   6.045   7.139  12.660  0.0942  0.0852  0.1133
33348W        W46762   5.791   4.798   1.317 -0.0579  0.6401  0.0614
33349W        W46763   0.862  14.450   4.007  0.1637 -0.0352  0.0013
33350W        W46764  18.041   0.101  12.311 -0.1467  0.1270 -0.1547
33351W        W46765  14.563  14.967   4.322  0.0131  0.1446 -0.0036
33352W        W46766   6.198   7.861  15.292  0.1648 -0.1202  0.2023
33353W        W46767  14.407   6.093  10.948  0.0211  0.3139 -0.2203
33354W        W46768   2.766   5.671   2.856  0.0340  0.3069 -0.1512
33355W        W46769   6.897  17.706  14.429  0.3572 -0.0695  0.1656
33356W        W46770   1.069   4.558   5.730 -0.2690  0.2390  0.1986
33357W        W46771   6.952   8.881  10.012  0.0428  0.2201  0.0841
33358W        W46772  12.447   7.185  12.131  0.2881  0.0924  0.0947
33359W        W46773  12.359   0.135  11.047  0.0291 -0.3302 -0.0773
33360W        W46774  16.085   3.851  14.161  0.0265 -0.3435  0.0987
33361W        W46775   4.218  11.913  12.346 -0.1016 -0.0086 -0.2913
33362W        W46776  14.044  16.400  14.977  0.0243  0.0672  0.0137
33363W        W46777  12.827   4.623  14.336 -0.0993 -0.1652 -0.0013
33364W        W46778   5.335  17.309   0.573  0.2842 -0.0731  0.0022
33365W        W46779  14.482   0.422   1.132 -0.3652 -0.0430  0.0456
33366W        W46780  14.939   8.490   6.017  0.1995 -0.2722 -0.0231
33367W        W46781  17.566  12.238  15.466  0.0587  0.2404 -0.0819
33368W        W46782   7.855   2.362   4.924 -0.2649  0.0288 -0.1799
33369W        W46783  14.931  15.126  12.015 -0.2376 -0.0341  0.0359
33370W        W46784  17.442  17.133  13.176 -0.4235  0.3640 -0.2549
33371W        W46785   0.478   6.244  15.194  0.0111  0.2001  0.4738
33372W        W46786  17.352  14.239  14.888  0.2242  0.2325 -0.1529
33373W        W46787   5.692   0.639  11.767  0.1221 -0.0996  0.1646
33374W        W46788   0.716  16.521  15.384  0.0282 -0.1860 -0.1216
33375W        W46789   1.465   6.203   4.350 -0.1497  0.2686  0.0784
33376W        W46790   6.556  17.948   3.440 -0.0756  0.1824  0.0225
33377W        W46791   5.153   5.521  13.817 -0.0501  0.4109  0.0460
33378W        W46792  15.103   6.389  10.700 -0.0831 -0.0124  0.0630
33379W        W46793  10.106   3.549   0.665 -0.2560  0.2740 -0.2291
33380W        W46794  17.117   0.646   5.760 -0.1868 -0.2542  0.2084
33381W        W46795  12.697   7.476  15.609 -0.0356 -0.0349 -0.0754
33382W        W46796   9.522   9.954   2.872  0.2883 -0.2387  0.3149
33383W        W46797   2.546  14.032   2.016 -0.0196  0.0702 -0.1268
33384W        W46798   9.909   1.168   1.484 -0.0721  0.3260 -0.0243
33385W        W46799   6.393   3.616   0.803 -0.1518 -0.0817 -0.2394
33386W        W46800   7.949  10.763   2.937  0.0451  0.1893 -0.0989
33387W        W46801  10.412   0.508   5.881 -0.2054 -0.1688 -0.0019
33388W        W46802  13.034  18.158   2.680  0.0511 -0.1339  0.1565
33389W        W46803  10.441   4.777  13.671  0.2618 -0.0344  0.1124
33390W        W46804   5.736  17.548   1.098  0.1765 -0.0155  0.0598
33391W        W46805   5.370   7.204   1.487 -0.1537  0.2208  0.0240
33392W        W46806  14.907  10.399   3.881  0.2415  0.1097  0.2791
33393W        W46807   3.158  10.270   5.297  0.2387  0.1046  0.0458
33394W        W46808   2.578   4.192   3.004 -0.0229  0.1024  0.1799
33395W        W46809   2.582   6.717   4.599  0.0967 -0.0577 -0.2597
33396W        W46810  12.544   9.544  15.455 -0.0989 -0.1386  0.2138
33397W        W46811   9.712   7.251  16.226 -0.2808  0.1453 -0.0962
33398W        W46812  17.588   9.911   5.282  0.2854 -0.4340 -0.1532
33399W        W46813   1.062   8.886   5.199 -0.1462  0.2598 -0.0048
33400W        W46814   2.129  10.085  12.287 -0.0233 -0.0649 -0.0196
33401W        W46815   3.977  18.210   5.295  0.2173  0.1741 -0.3442
33402W        W46816   8.839  17.676   4.535 -0.1978  0.1457 -0.2601
33403W        W46817   5.988   5.004   3.260 -0.3230  0.1805 -0.4238
33404W        W46818   4.293   0.436   5.101  0.2590  0.0444  0.1614
33405W        W46819  13.433  15.222  12.254 -0.0915  0.0700  0.0028
33406W        W46820   2.121  10.119   1.157  0.0318 -0.1067 -0.1702
33407W        W46821   4.629  12.278   1.348 -0.0573  0.0363 -0.1162
33408W        W46822   1.435   7.476  11.957 -0.1717  0.2296  0.3869
33409W        W46823  18.244   3.358  14.553 -0.0987  0.1914  0.0000
33410W        W46824   9.157  15.957  12.649 -0.2337 -0.0742  0.2769
33411W        W46825  12.269  15.748  11.081 -0.2264  0.0826 -0.0242
33412W        W46826   5.373   6.676   5.106  0.0359 -0.0461 -0.1551
33413W        W46827   4.265   8.876   4.854  0.0301 -0.0719  0.1410
33414W        W46828   5.192   1.441   0.761 -0.0230  0.1594 -0.1752
33415W        W46829  12.416   1.601  12.973  0.0758  0.2018  0.2377
33416W        W46830   8.832   4.722   0.152 -0.1003 -0.1131 -0.1470
33417W        W46831   8.159   3.453   2.888  0.1699  0.1074  0.2389
33418W        W46832   4.100   4.429   4.403  0.0159  0.1800  0.0974
33419W        W46833  12.445   3.479  16.174 -0.0438 -0.0703 -0.0453
33420W        W46834   2.772  15.480   0.038 -0.1708 -0.1753  0.3579
33421W        W46835   8.751   2.964  12.740 -0.1255  0.0483  0.3815
33422W        W46836   3.800   6.372   3.662 -0.1021  0.2588 -0.0734
33423W        W46837  13.564  10.151   0.499  0.2294 -0.0636 -0.1815
33424W        W46838  14.633  17.495  11.772  0.3446 -0.0856  0.0670
33425W        W46839   7.244   7.397   6.220  0.0349 -0.0395 -0.2377
33426W        W46840   7.945  12.790   1.379  0.4385  0.1620  0.1958
33427W        W46841   1.413  18.522  11.112 -0.0293  0.1128  0.0793
33428W        W46842   1.282  16.620  13.977 -0.1637 -0.3315  0.1505
33429W        W46843   8.719  12.911   4.062 -0.2460 -0.0509  0.0740
33430W        W46844   1.527  11.246   2.766  0.0487 -0.2281  0.0004
33431W        W46845   6.892  10.813   6.113  0.0963 -0.1148  0.1021
33432W        W46846   0.599  15.430   4.766 -0.0325 -0.0227 -0.0236
33433W        W46847   6.650   4.231   3.035  0.1008 -0.1298  0.1355
33434W        W46848  16.905   1.231  15.122 -0.0528  0.0571 -0.0414
33435W        W46849   4.214  12.544  16.108 -0.1591 -0.0570  0.4320
33436W        W46850  14.568  10.560   1.639 -0.0516 -0.0953  0.0796
33437W        W46851  16.145  14.994   1.464 -0.2398  0.0422 -0.0620
33438W        W46852   3.159   7.388  14.274  0.0247 -0.0321  0.0075
33439W        W46853   6.144  11.399  13.297 -0.3879  0.1138 -0.0542
33440W        W46854  11.948   3.721   2.827 -0.2306  0.0914 -0.2173
33441W        W46855  10.063  17.496  14.782  0.1165  0.4802 -0.1867
33442W        W46856   4.179   9.547  14.838 -0.0157  0.2934 -0.0190
33443W        W46857  14.390   0.001   0.511  0.2846  0.3230  0.1577
33444W        W46858  12.826   2.923  15.300  0.0523 -0.0593  0.3552
33445W        W46859  15.764   1.379  14.196 -0.0214 -0.1187 -0.1846
33446W        W46860   3.148  18.432  13.889  0.0113  0.0720  0.0921
33447W        W46861  11.551  12.354  12.472  0.0175 -0.1167 -0.1629
33448W        W46862   5.761   7.265  13.297  0.3004 -0.2912 -0.0019
33449W        W46863   6.183   5.318   5.033  0.2844 -0.0539  0.0554
33450W        W46864   8.793  16.268  15.952 -0.1229 -0.3697 -0.0230
33451W        W46865   7.121   7.716   6.565 -0.1296 -0.0219  0.1459
33452W        W46866   3.749  17.255   3.417 -0.1834 -0.2509  0.1670
33453W        W46867   7.879   2.634  12.756  0.0099  0.3647 -0.0364
33454W        W46868  18.203  12.952  11.249 -0.0434 -0.0159  0.1707
33455W        W46869  12.690  11.037   4.667  0.0681 -0.1603  0.0042
33456W        W46870   6.835  13.139   3.413 -0.0739 -0.0240  0.2540
33457W        W46871   7.174  16.979   5.132 -0.0813  0.2511  0.0779
33458W        W46872  10.229  17.260  13.734  0.0688  0.0148  0.1424
33459W        W46873   3.404   8.947  11.055 -0.1941 -0.2150  0.1361
33460W        W46874   6.308  11.349   3.778 -0.2626  0.2547  0.0253
33461W        W46875   6.637   0.635   0.391  0.3825 -0.0339 -0.2953
33462W        W46876   5.149   6.256   3.295  0.0375  0.0568  0.1285
33463W        W46877   0.518   3.428   5.755  0.0143  0.0551 -0.0736
33464W        W46878  10.872   0.779   9.923  0.1080 -0.0210 -0.2615
33465W        W46879  16.923   1.628   0.300  0.0138 -0.1826  0.0244
33466W        W46880  15.292  17.176   5.271  0.4635 -0.1040  0.2399
33467W        W46881  13.737   8.682  10.617 -0.1440  0.3195 -0.1953
33468W        W46882  18.504   6.572   2.743 -0.1749 -0.3586  0.3546
33469W        W46883  16.999  17.106   0.930  0.2700  0.2809 -0.2363
33470W        W46884  17.797  12.413   0.130  0.0999  0.0086  0.0238
33471W        W46885  18.087   3.223  13.882  0.1371  0.0607  0.1418
33472W        W46886  16.487   3.865  10.984  0.0210  0.0380 -0.1889
33473W        W46887   5.828  12.508   5.432  0.3439 -0.1251  0.0884
33474W        W46888   1.341   2.442   5.422 -0.3794  0.2222  0.1114
33475W        W46889  10.097  17.840   1.161 -0.0840 -0.0480  0.0047
33476W        W46890   6.986  15.945  11.405 -0.1440 -0.1158  0.0298
33477W        W46891   1.723   2.970   4.769  0.3845 -0.0474 -0.1825
33478W        W46892   3.609  17.273   1.056  0.0788  0.1010  0.0820
33479W        W46893  13.313   2.673   4.621  0.2473 -0.0834 -0.1846
33480W        W46894  10.117   3.664   1.149 -0.0784 -0.0530  0.2815
33481W        W46895   4.325  17.132  14.525 -0.0010  0.3765  0.2682
33482W        W46896   8.732   9.032  10.564  0.0859 -0.0050 -0.0359
33483W        W46897   2.184  11.095   0.292 -0.1152 -0.0310 -0.0475
33484W        W46898   5.764  11.146  16.001 -0.0800  0.0034  0.0761
33485W        W46899  15.644   1.696  13.662 -0.2319  0.3200  0.0606
33486W        W46900  16.220  11.181  13.384 -0.0718 -0.1825  0.2481
33487W        W46901   7.815  16.860   3.992  0.3614 -0.2340  0.1988
33488W        W46902   9.133   8.309   2.841 -0.0283 -0.2244 -0.0604
33489W        W46903   2.465   3.055   3.405  0.0572 -0.1573 -0.2104
33490W        W46904  12.878   4.761  13.848  0.0428 -0.1256 -0.4036
33491W        W46905   5.144   3.773   9.877  0.0210 -0.1433  0.3771
33492W        W46906  12.650   3.172   6.899  0.3244 -0.1129 -0.3655
33493W        W46907  18.380  10.400   5.163 -0.4644  0.0878 -0.2390
33494W        W46908  15.496   6.437   1.348  0.2682  0.0999 -0.0829
33495W        W46909   0.514   6.472   1.410  0.2337 -0.1909  0.3015
33496W        W46910   3.153   2.430   2.277  0.1445  0.1365 -0.1859
33497W        W46911  16.546   5.234  13.637  0.1896 -0.2560  0.0662
33498W        W46912   1.344  17.678  11.198  0.1119 -0.5093  0.0405
33499W        W46913  12.834  12.825   4.127  0.0056 -0.1459 -0.0268
33500W        W46914  12.415  14.949  15.240 -0.1216  0.0897 -0.0518
33501W        W46915   6.436   6.809  14.155 -0.2062 -0.1796  0.4433
33502W        W46916   9.351   2.880  13.524  0.1126 -0.0095  0.1028
33503W        W46917   6.233   1.217   5.243  0.1767 -0.0315  0.0276
33504W        W46918  10.707   6.827   4.476  0.2422 -0.0302  0.0619
33505W        W46919   9.181   5.761   4.279  0.0493 -0.0168 -0.0724
33506W        W46920  14.027  10.044   5.921 -0.1886 -0.1869 -0.4662
33507W        W46921   6.062  16.728   0.861  0.2754  0.0248  0.1611
33508W        W46922   2.152  14.041   3.154 -0.3183 -0.1141 -0.0771
33509W        W46923  16.773   3.365  11.868  0.0699 -0.1568 -0.1495
33510W        W46924  13.684  17.013  13.508 -0.2779 -0.1547  0.2155
33511W        W46925   3.218  11.577  13.547 -0.3644 -0.0611  0.0218
33512W        W46926   1.588   4.114   3.293 -0.2277 -0.1036  0.2794
33513W        W46927   6.619  15.241  15.509  0.0848 -0.0762  0.1515
33514W        W46928   6.543  11.982   0.574 -0.1264  0.3683  0.0083
33515W        W46929   4.592  14.397  14.638  0.0513 -0.1447  0.0370
33516W        W46930  14.245   6.268  13.866  0.1301 -0.3507 -0.0201
33517W        W46931   6.673   2.871   3.098  0.2166 -0.0287  0.2756
33518W        W46932  17.610   6.487  13.894  0.0846  0.0433  0.1349
33519W        W46933   0.037   5.225   5.087  0.0485 -0.2638  0.0919
33520W        W46934   6.112   6.879  15.728  0.3692  0.1055  0.0619
33521W        W46935  12.888  15.720  13.745 -0.3542 -0.0725 -0.2583
33522W        W46936   5.252   7.701   5.679 -0.1317  0.0658  0.1772
33523W        W46937  15.749  17.384  14.647 -0.0449 -0.1383  0.2429
33524W        W46938   2.375   3.562  14.462 -0.1723 -0.0204 -0.2068
33525W        W46939  12.938  18.452   5.759  0.0672  0.0055  0.2754
33526W        W46940   4.629   5.529   1.433  0.0263 -0.1764  0.2739
33527W        W46941   5.126   4.825   6.250 -0.1429 -0.4360  0.0525
33528W        W46942   5.068   7.495   4.472 -0.0114  0.0753 -0.1699
33529W        W46943  16.365   7.237   2.344 -0.1206 -0.1877 -0.0092
33530W        W46944  14.329  17.089   2.942 -0.3387 -0.0460 -0.0233
33531W        W46945  13.042   6.403   1.909 -0.1458  0.0280 -0.0832
33532W        W46946   4.844  16.825  14.297 -0.0906 -0.2448  0.1295
33533W        W46947   4.739   9.181   3.277 -0.0163 -0.0760 -0.0333
33534W        W46948  17.113   3.981   5.616  0.2661  0.4516  0.0756
33535W        W46949  14.447   2.816  11.823  0.1858  0.0421  0.0621
33536W        W46950   0.712   8.555   3.229  0.1983 -0.1192  0.1842
33537W        W46951  13.557  17.266  12.914 -0.2133 -0.4426  0.0607
33538W        W46952   2.885  15.549  11.766  0.0133  0.0415  0.2880
33539W        W46953   6.705   6.307   1.450 -0.2447 -0.0186  0.1763
33540W        W46954  11.695  16.661   0.244 -0.0077  0.1780 -0.2121
33541W        W46955  14.284   6.901  10.425 -0.1117 -0.1165  0.1061
33542W        W46956  13.519   1.095  11.102 -0.4333  0.1793  0.1661
33543W        W46957  17.684  13.665   2.426  0.1164  0.1519 -0.2284
33544W        W46958  14.884   2.323   0.139 -0.2872 -0.4135  0.2681
33545W        W46959   3.398   7.337  13.470 -0.0810  0.0054  0.1966
33546W        W46960   3.917   4.976   1.081 -0.0426 -0.2731 -0.1762
33547W        W46961  10.188   0.797   4.638 -0.1584 -0.0799 -0.0185
33548W        W46962  14.625  17.418   3.116 -0.3148 -0.1569 -0.2956
33549W        W46963   0.703   5.732  13.191  0.1838 -0.0735 -0.0202
33550W        W46964   9.670  11.806   5.686  0.0316  0.1571 -0.0516
33551W        W46965   3.288  13.416   4.019  0.1350  0.0440 -0.4026
33552W        W46966   6.309   8.075  10.701 -0.2696  0.0349  0.1074
33553W        W46967   3.582   6.888  11.004 -0.0146 -0.0335 -0.0118
33554W        W46968  14.396  16.206   5.252  0.0994 -0.1546 -0.0760
33555W        W46969  17.589   4.214  15.174  0.5145  0.0612  0.1608
33556W        W46970   4.809   3.957  11.749  0.0789  0.0775 -0.1228
33557W        W46971   2.643   5.133  12.721 -0.1091  0.1594  0.0529
33558W        W46972  14.544   4.229  14.874 -0.2442  0.1183 -0.2359
33559W        W46973  10.611   2.712  13.318 -0.2085  0.1839 -0.0633
33560W        W46974   0.760   9.377  11.005  0.0251 -0.1928 -0.1636
33561W        W46975  16.629  14.455  13.568  0.1675  0.1405  0.1675
33562W        W46976   3.106  10.045   4.244 -0.2173 -0.1253 -0.0050
33563W        W46977  18.102   5.353   0.514 -0.0282  0.2270 -0.0096
33564W        W46978   2.656   0.295  12.947 -0.2345 -0.2672  0.3899
33565W        W46979  14.244  17.014  11.787 -0.3068 -0.2065 -0.1828
33566W        W46980   7.977   1.460  10.279 -0.1476  0.0756  0.2050
33567W        W46981  16.367   6.661  12.526 -0.3079  0.1341 -0.2738
33568W        W46982   2.934  12.972  13.064  0.0754 -0.0425 -0.1683
33569W        W46983  18.198  17.854  12.315 -0.3024 -0.1677 -0.1017
33570W        W46984   7.083  10.370  11.149 -0.0799  0.2049  0.3380
33571W        W46985   3.705   7.991   1.203 -0.1397 -0.0347  0.0213
33572W        W46986   6.586  18.489  13.817  0.4610  0.0703 -0.2752
33573W        W46987   4.379   4.818   5.572 -0.3586 -0.0588 -0.4065
33574W        W46988  11.177  17.909   4.735 -0.4705  0.1934 -0.0210
33575W        W46989  18.499   8.414  12.427 -0.1309 -0.1713 -0.1220
33576W        W46990   5.429  12.688  13.381 -0.2255  0.1154  0.1270
33577W        W46991   3.335   5.072   0.065  0.1271 -0.2240 -0.1921
33578W        W46992  12.595  16.613   0.238 -0.3697  0.2197 -0.0309
33579W        W46993   2.858   0.865   1.566 -0.1109 -0.0004  0.2293
33580W        W46994   8.193  14.043  11.018 -0.2159 -0.2299 -0.1239
33581W        W46995   8.310  11.108  15.782  0.1781 -0.2887  0.0196
33582W        W46996   1.141  11.708  11.930  0.1868  0.1840 -0.2890
33583W        W46997  17.786   7.875  13.636 -0.3081  0.1208 -0.1097
33584W        W46998   9.262   4.098   1.184 -0.1981  0.0481  0.0081
33585W        W46999  10.758  14.941   2.783  0.3120  0.0429 -0.0853
33586W        W47000   4.896  18.510   5.354 -0.0780 -0.2097  0.2015
33587W        W47001  15.155   0.672   3.975  0.0150  0.1312  0.1360
33588W        W47002  13.322  10.264   4.320  0.0708  0.1030 -0.0527
33589W        W47003   8.685  14.646  13.738  0.0890  0.0822 -0.2525
33590W        W47004   9.751  17.383   2.754 -0.0074  0.2241 -0.0092
33591W        W47005   0.797   3.662  15.340  0.3312  0.0192 -0.1000
33592W        W47006  16.862  16.379  11.340  0.1481  0.1898 -0.5820
33593W        W47007  14.388  15.163  10.124 -0.1068 -0.3617 -0.0806
33594W        W47008  18.507   8.965   5.864  0.2087 -0.0093 -0.0286
33595W        W47009  14.705   8.469  15.718 -0.1131 -0.1908  0.0712
33596W        W47010  11.557   7.531   1.081  0.3144 -0.1914  0.3045
33597W        W47011  12.718  17.885  10.637 -0.3123  0.2464  0.0890
33598W        W47012  17.580  16.140   5.723  0.0039  0.2519  0.0637
33599W        W47013   4.139  11.492   3.034 -0.0020 -0.0041  0.2757
33600W        W47014  15.016   5.257   0.785  0.0430 -0.0899 -0.0349
33601W        W47015  13.313   2.976   3.629  0.2831  0.2792 -0.1768
33602W        W47016  11.949   4.655  12.140  0.2543 -0.3466  0.0558
33603W        W47017   8.480  17.624   1.021  0.0279  0.0336 -0.0820
33604W        W47018   6.568   2.484   9.965  0.2045 -0.0988  0.0618
33605W        W47019  16.435   3.172  16.240 -0.0756 -0.1222 -0.3157
33606W        W47020   5.663  12.180  14.509  0.2092 -0.0661 -0.0759
33607W        W47021  11.107   1.040  14.820  0.0227  0.0183 -0.0362
33608W        W47022   3.777   5.919  15.575 -0.1252 -0.2343  0.0055
33609W        W47023  15.995   5.704   1.599 -0.1713 -0.0268  0.1260
33610W        W47024   6.411  10.541   2.458  0.3343 -0.0333  0.1556
33611W        W47025  16.359  17.338   1.111 -0.0307  0.2346  0.0782
33612W        W47026  10.086   8.455   0.187  0.2218 -0.0394  0.0790
33613W        W47027   0.561  11.222  15.041  0.2382 -0.1268 -0.1286
33614W        W47028   7.901   1.796  13.008  0.2737  0.1142  0.0468
33615W        W47029  11.906   5.270  15.384 -0.1175 -0.1185 -0.2643
33616W        W47030  10.832  14.741   4.651 -0.0372  0.0336  0.4206
33617W        W47031  14.167  10.508   2.041  0.0160 -0.0374  0.3502
33618W        W47032  18.047  14.672   2.192 -0.1667  0.1262 -0.1004
33619W        W47033  13.335  17.983  11.573  0.0700 -0.0379  0.2975
33620W        W47034   8.566   2.920   3.359 -0.1140 -0.1834 -0.1265
33621W        W47035  14.390  16.256  11.688 -0.4948 -0.1538 -0.0896
33622W        W47036  17.006   4.517   2.746 -0.2903 -0.4083  0.0336
33623W        W47037   3.659  15.718   1.224  0.1109 -0.0486  0.0133
33624W        W47038  12.284   2.803   6.596  0.0363  0.1264 -0.0517
33625W        W47039  12.717   9.969   1.556 -0.0646 -0.0975  0.0155
33626W        W47040  16.438   0.107   3.289 -0.0083  0.0119 -0.3873
33627W        W47041   6.416   9.382   3.110 -0.3289  0.3518  0.0020
33628W        W47042  14.556   3.189   0.895  0.1873  0.1183  0.1720
33629W        W47043   1.613   1.123   2.233 -0.1946  0.0220 -0.2778
33630W        W47044   5.067  14.560  15.981  0.1325 -0.2820 -0.1950
33631W        W47045  17.755   0.308   2.095  0.0107 -0.1944  0.1172
33632W        W47046   5.135   0.263   0.692 -0.0381  0.2990  0.1710
33633W        W47047  18.180  17.568   1.805 -0.2482 -0.3383  0.0534
33634W        W47048  17.549   4.579  13.023  0.0945 -0.3897 -0.0445
33635W        W47049  14.678   8.482  11.675  0.2477  0.3555  0.2556
33636W        W47050   4.031   0.454  12.572  0.4027 -0.1943  0.0237
33637W        W47051   4.980   8.187  14.033 -0.2330 -0.1809  0.0197
33638W        W47052   3.296  14.985   4.344 -0.2155 -0.0567 -0.0700
33639W        W47053   0.425   4.807  15.741  0.2017 -0.0004  0.0478
33640W        W47054  11.722  16.641  13.335  0.0318 -0.0549  0.1826
33641W        W47055   4.203   5.553   1.791 -0.2281  0.2732  0.0638
33642W        W47056   2.842  10.697  14.825 -0.2708 -0.1497  0.0157
33643W        W47057   7.600   6.675   1.706  0.2212 -0.0220  0.4022
33644W        W47058   9.491  14.073   3.023  0.0413 -0.0382  0.1810
33645W        W47059  15.947   2.034  13.452 -0.3532 -0.3094  0.0283
33646W        W47060   7.646   1.026   4.548 -0.1519  0.2856 -0.0661
33647W        W47061  18.288  15.718  15.497  0.0200  0.2010  0.2424
33648W        W47062  16.850   8.960   5.265  0.2401 -0.0059 -0.1170
33649W        W47063  13.811  16.710  14.018  0.2692  0.2537  0.0643
33650W        W47064  11.334  11.222   3.118  0.0142 -0.4499 -0.0271
33651W        W47065  14.478  17.161   0.709  0.1105 -0.0883 -0.1179
33652W        W47066   5.231   5.044   4.313 -0.0356 -0.3008 -0.2495
33653W        W47067   6.274  15.286  12.717 -0.1619 -0.2253 -0.0166
33654W        W47068  12.114  13.971   1.171  0.2374  0.4449  0.1217
33655W        W47069  18.203   0.202  14.567 -0.3877  0.2132  0.0816
33656W        W47070   1.454  10.701  14.401 -0.0539 -0.1397 -0.0684
33657W        W47071  14.379   5.079  14.053 -0.0270  0.0207  0.1338
33658W        W47072  11.088   9.260   2.259 -0.3248  0.0052 -0.1528
33659W        W47073  13.700   7.038  11.893 -0.1937  0.1704 -0.4716
33660W        W47074  11.831   9.373  13.818 -0.1739  0.2885  0.0383
33661W        W47075  15.600   0.331  15.687  0.1202  0.0046 -0.1134
33662W        W47076   7.588   0.241  10.974  0.0468  0.1400 -0.0356
33663W        W47077   0.121   2.094   0.891  0.1822 -0.1438  0.2108
33664W        W47078   5.256   2.432  12.523  0.2549 -0.1456 -0.1612
33665W        W47079  18.048  17.915   3.073  0.0352  0.1464  0.2556
33666W        W47080   1.696   1.524  12.983 -0.2608  0.2710 -0.3078
33667W        W47081   6.955   0.170  10.887  0.2018  0.0684  0.2596
33668W        W47082  17.174  14.353  13.726  0.3628  0.0607 -0.0409
33669W        W47083  17.260   9.512   4.605 -0.1433  0.0466 -0.0020
33670W        W47084   4.021   0.551   3.376 -0.2810  0.0889  0.1034
33671W        W47085   4.985  12.997   4.182 -0.1020 -0.0452  0.0380
33672W        W47086   0.886  16.596  12.134  0.1445 -0.1311  0.3166
33673W        W47087  16.277  10.410   6.024 -0.0552 -0.0140  0.2396
33674W        W47088   7.736  12.673  12.442  0.0065  0.1796  0.2144
33675W        W47089   2.449   3.093   0.335 -0.1115  0.4714  0.0396
33676W        W47090   6.221  18.507   1.844  0.3812  0.1936  0.0397
33677W        W47091  15.249   2.973  11.403 -0.0261  0.1843  0.2704
33678W        W47092   0.610   8.429  11.527  0.0326 -0.3381 -0.1025
33679W        W47093  11.068   3.794   2.834 -0.0273 -0.0812 -0.2159
33680W        W47094   2.908   4.093  13.134  0.2338 -0.1939  0.0969
33681W        W47095  11.413   8.526  13.698 -0.0501  0.2873 -0.1157
33682W        W47096  17.612  16.924   4.022 -0.0233 -0.0903  0.1752
33683W        W47097   4.822  17.133  14.736 -0.2278  0.3538 -0.2200
33684W        W47098   4.845  12.422  14.693 -0.0449 -0.1075  0.1049
33685W        W47099  16.186  13.859   2.766  0.1530  0.1362 -0.0812
33686W        W47100  11.668   9.291  15.918  0.0435 -0.2965  0.1282
33687W        W47101  10.817   2.418   2.284 -0.2522  0.2669 -0.2889
33688W        W47102  16.918   4.704  10.009 -0.2836  0.0238 -0.1078
33689W        W47103   1.627   0.020   4.992 -0.1537  0.3789  0.1549
33690W        W47104   1.280   9.003  12.647 -0.0236 -0.0151 -0.1494
33691W        W47105   2.991   9.502  13.676 -0.3606  0.2440  0.2439
33692W        W47106   4.746   0.064   0.083  0.1855  0.0800  0.0582
33693W        W47107   6.847  13.177  16.207  0.2733 -0.0644 -0.0838
33694W        W47108   5.957   0.240   2.230  0.0501 -0.0466 -0.2038
33695W        W47109  10.300   6.327  15.606  0.0268 -0.2245  0.1583
33696W        W47110  15.776  14.272  14.272  0.1595 -0.1505  0.0704
33697W        W47111  15.263   4.622  15.988 -0.0482 -0.0503 -0.0048
33698W        W47112  11.336   0.633   2.455 -0.3120  0.0179 -0.1703
33699W        W47113   1.333  11.448   0.395 -0.1106  0.0332 -0.2510
33700W        W47114  13.200   7.420  15.679  0.0371 -0.1984  0.0369
33701W        W47115   4.193  18.233  15.933 -0.1540 -0.0309  0.0348
33702W        W47116   5.096   8.093   0.336 -0.1856 -0.0403  0.0490
33703W        W47117  12.383  11.161   3.106 -0.1603  0.0510  0.0619
33704W        W47118   4.594   0.539   4.067 -0.1093 -0.1518 -0.3570
33705W        W47119  16.011  15.190   5.307 -0.0389 -0.1595 -0.1828
33706W        W47120   8.757   8.097  15.914 -0.0239 -0.1805  0.3039
33707W        W47121  13.477   8.971   1.278 -0.3699  0.2505 -0.2361
33708W        W47122  10.328   7.522  10.711 -0.2717  0.0593 -0.0105
33709W        W47123  15.549   7.893   0.077  0.0377  0.1255 -0.2448
33710W        W47124  14.663  17.666  16.126  0.1206 -0.0577 -0.1361
33711W        W47125   8.636   0.950   1.246  0.0526  0.0308  0.2830
33712W        W47126  14.983   7.755   4.808 -0.2158  0.1778  0.1989
33713W        W47127  10.464   8.282   2.847  0.1224 -0.0300  0.2323
33714W        W47128   6.081  15.602  11.409  0.1410  0.1760 -0.0108
33715W        W47129  10.001   1.908   5.093  0.3276  0.1303  0.0179
33716W        W47130   9.084  17.520   5.012  0.0334  0.0500  0.0519
33717W        W47131  16.048   3.870   2.216  0.1905 -0.1089  0.2096
33718W        W47132  14.332  13.893   6.304  0.0380 -0.0273  0.1235
33719W        W47133   6.009   6.419   3.342 -0.0558 -0.1429  0.2397
33720W        W47134   0.108  11.902   6.089  0.2169 -0.0987 -0.0384
33721W        W47135   0.554  18.167  13.560  0.0107  0.1926  0.2306
33722W        W47136  17.605  13.194   1.266 -0.0349 -0.5472 -0.1174
33723W        W47137   6.564   8.762  12.688 -0.0722  0.2558  0.0980
33724W        W47138   8.672   4.561   3.577  0.0997 -0.3866  0.0036
33725W        W47139  15.963   0.114  15.306  0.0008  0.2266 -0.0894
33726W        W47140  10.131   2.259   1.085 -0.0952  0.0595 -0.0487
33727W        W47141  12.748  16.371  14.252 -0.0156  0.1086 -0.0512
33728W        W47142   9.518   3.569  13.952 -0.3234 -0.1897 -0.2730
33729W        W47143  15.920   8.843  13.846  0.0773  0.1786  0.3270
33730W        W47144   2.854  14.160   3.271 -0.1170  0.0473  0.2206
33731W        W47145  15.291   3.200   2.924  0.1778 -0.0524 -0.1422
33732W        W47146  10.950   7.092  15.863  0.2428  0.2821 -0.1619
33733W        W47147  14.211   0.358  12.694  0.2303  0.0615 -0.0897
33734W        W47148  14.500   3.856   5.073 -0.1467  0.3709  0.2582
33735W        W47149  15.061   9.456  15.111 -0.3085 -0.2348  0.0383
33736W        W47150   5.617  10.390  11.053  0.1683  0.3369 -0.0414
33737W        W47151   5.811   9.857  13.329 -0.1255  0.1152 -0.1000
33738W        W47152  17.485   1.895   2.236  0.1478  0.0518 -0.0698
33739W        W47153  17.263   7.788  13.582 -0.0434 -0.0814  0.4389
33740W        W47154  13.669  15.850   3.000 -0.0219 -0.0106  0.0447
33741W        W47155   3.182  14.624  11.514  0.0468 -0.2441  0.0504
33742W        W47156  12.565  10.592  13.351  0.0518  0.0655 -0.2202
33743W        W47157   5.633  17.353   3.564 -0.4277  0.0577  0.1545
33744W        W47158  15.118   9.852   2.828  0.4723  0.0419  0.1089
33745W        W47159   4.936  16.999   0.380  0.0353  0.0960 -0.1153
33746W        W47160   6.492  12.921  10.030  0.1020  0.1568 -0.1537
33747W        W47161   8.529  16.230   4.196  0.0159 -0.3171  0.1407
33748W        W47162  10.901   1.238  13.905 -0.0828  0.0757 -0.1992
33749W        W47163  12.528  11.950   2.638  0.3108 -0.0063 -0.3097
33750W        W47164   8.920  16.459   3.889 -0.2259  0.0311  0.3334
33751W        W47165   6.443  15.308   2.475 -0.1369 -0.0593  0.2055
33752W        W47166  11.123  15.896  14.316  0.1124  0.3611 -0.1928
33753W        W47167  14.565   2.729   4.963  0.0923 -0.0197 -0.1614
33754W        W47168   1.348   5.301  11.951 -0.2987 -0.0475  0.5231
33755W        W47169   9.508   0.015   5.600  0.3903 -0.0248  0.0790
33756W        W47170  13.771   0.352   2.436  0.2996  0.0020  0.0032
33757W        W47171   8.399  13.652  16.055  0.0809 -0.0565  0.0324
33758W        W47172   7.115   5.840   5.422  0.1177  0.0953 -0.0965
33759W        W47173   6.628  12.623  13.172 -0.0195 -0.1186  0.1080
33760W        W47174   1.190   5.609   3.345  0.2329  0.2355 -0.1022
33761W        W47175   6.259  16.391   0.376  0.2799 -0.0028  0.2179
33762W        W47176  11.015  15.225  10.394  0.1403 -0.1757  0.0126
33763W        W47177   0.629   3.816  14.738  0.1424  0.1099 -0.0881
33764W        W47178  14.101   2.741  12.654 -0.0500 -0.2652  0.0664
33765W        W47179  12.213  11.599  13.542 -0.1354  0.0646 -0.1298
33766W        W47180  15.149  14.063   4.885 -0.0134 -0.3116  0.0104
33767W        W47181  16.865  14.005  11.497 -0.1039 -0.0597  0.1012
33768W        W47182  12.808   3.600   0.327  0.2986 -0.3123  0.0239
33769W        W47183   8.323  12.684  16.243  0.1451  0.3335  0.0282
33770W        W47184  15.604   8.077  14.522  0.1452 -0.0552 -0.0552
33771W        W47185   2.264   7.698  11.700 -0.4138  0.0243  0.1315
33772W        W47186  14.641  12.072   3.234 -0.4229 -0.0430  0.0985
33773W        W47187  11.483   3.497   2.912 -0.1025 -0.0718 -0.0834
33774W        W47188   1.347   6.104  12.343  0.3491  0.0908 -0.2182
33775W        W47189   5.029   7.931  12.918 -0.2421 -0.1512 -0.2290
33776W        W47190   7.354   5.889  14.410  0.1777  0.1469 -0.0324
33777W        W47191  13.458  13.792   2.892  0.2103 -0.1612 -0.2472
33778W        W47192  12.073   9.931  15.159  0.1307 -0.1185  0.1412
33779W        W47193   9.565  14.568   2.380 -0.0788 -0.0026  0.0329
33780W        W47194   4.826  16.995   1.951 -0.3277  0.0280 -0.1200
33781W        W47195   8.232  13.159  14.499 -0.0779 -0.1451  0.0265
33782W        W47196   1.103   7.680  11.152  0.0670  0.0097 -0.1977
33783W        W47197  13.064  17.871  13.607  0.4337 -0.0669  0.0696
33784W        W47198  17.612  15.110  11.986 -0.0805 -0.2520 -0.1892
33785W        W47199   8.343  11.173  13.810  0.0012 -0.0399  0.1453
33786W        W47200  14.259   2.674  15.022  0.1602 -0.3510  0.1216
33787W        W47201   2.172   8.097  14.618  0.1307 -0.0295 -0.1262
33788W        W47202   9.977   5.770   2.394 -0.0955  0.0481  0.1615
33789W        W47203  17.310   0.779  14.274 -0.1196 -0.1520  0.0921
33790W        W47204   6.005  10.371  10.187 -0.1352  0.0022  0.2536
33791W        W47205   6.859  16.176   4.126 -0.1247  0.2559  0.3624
33792W        W47206  16.742   2.704   3.416  0.0746 -0.0366  0.3064
33793W        W47207   4.717  11.744   1.052 -0.0755  0.2830  0.3211
33794W        W47208  10.201  17.470   3.286 -0.2181  0.0253 -0.0908
33795W        W47209   2.519   8.337  14.882  0.1850 -0.4261 -0.0254
33796W        W47210   7.029   8.285   3.298 -0.2978  0.1383 -0.1025
33797W        W47211   1.814   1.890  15.341  0.1833 -0.2149 -0.2746
33798W        W47212  15.335  11.487  11.482 -0.0863  0.0142 -0.1506
33799W        W47213   2.716  13.288   1.458  0.2926  0.4016  0.1195
33800W        W47214   3.610  12.197   3.704  0.0771  0.3523  0.2762
33801W        W47215   9.249  15.035  14.408 -0.0427 -0.0964 -0.0515
33802W        W47216  14.357   5.953   4.556 -0.0021 -0.0495 -0.1082
33803W        W47217   6.073   3.686   1.741  0.0755 -0.0484 -0.0627
33804W        W47218   3.820   0.701   4.627  0.0658 -0.1237 -0.0785
33805W        W47219  13.586   7.393  13.253 -0.4297 -0.0334  0.0381
33806W        W47220   4.817   7.335  15.286 -0.3295 -0.2472  0.2788
33807W        W47221   2.045  12.410  12.162 -0.0389  0.2693 -0.2652
33808W        W47222   8.924   3.063   3.706  0.1884 -0.1539 -0.1533
33809W        W47223   8.532  17.126   4.448 -0.0775  0.0701 -0.0954
33810W        W47224  10.381  17.180   0.271  0.1819 -0.0857  0.1221
33811W        W47225  15.029  11.808  11.093  0.0330 -0.1303  0.1941
33812W        W47226  12.919  11.964  15.874 -0.0691  0.1056 -0.2999
33813W        W47227   7.153   6.440   0.635  0.3562 -0.2325 -0.1900
33814W        W47228   9.211  13.246  15.348  0.0075  0.2440  0.1134
33815W        W47229  11.399  12.906   0.836  0.0377  0.1277 -0.2542
33816W        W47230   0.614  12.334  15.589  0.0228  0.0290  0.2335
33817W        W47231  17.279  11.904   2.107  0.2940 -0.2345 -0.0150
33818W        W47232   9.217  11.372   2.631 -0.3032 -0.0055 -0.0788
33819W        W47233   3.630  14.369  12.163 -0.1113 -0.3789 -0.0897
33820W        W47234  11.979   6.807   0.729  0.1788 -0.0858 -0.1622
33821W        W47235   3.433   7.570  16.011 -0.2989  0.1397 -0.1391
33822W        W47236   7.422   4.102   4.886 -0.3751  0.1023 -0.0442
33823W        W47237  10.855   0.452   1.635 -0.0242  0.0347 -0.0825
33824W        W47238   8.303   0.707   3.542 -0.1867 -0.3638 -0.1378
33825W        W47239  18.301   6.894   5.203 -0.1713  0.1533 -0.2273
33826W        W47240  14.687  15.186  10.994  0.1450  0.0725 -0.2158
33827W        W47241  13.077   7.839  10.034 -0.1366  0.0532 -0.0293
33828W        W47242   1.185   0.654  10.918 -0.0713 -0.0771  0.0697
33829W        W47243   9.075  17.473   3.945  0.1087 -0.1626 -0.5603
33830W        W47244   8.892   7.020   4.859 -0.0260 -0.0532  0.1077
33831W        W47245   2.220  13.641  13.928 -0.1405  0.1330  0.0042
33832W        W47246  16.009   7.442  13.921 -0.2086  0.0932  0.2241
33833W        W47247  14.539   0.088   4.748 -0.3934 -0.1495 -0.0296
33834W        W47248  11.755  10.456   0.567  0.1988  0.0266  0.1486
33835W        W47249  11.314  13.776  13.101 -0.1445 -0.1236  0.2477
33836W        W47250   7.749  17.350   0.253 -0.3290 -0.1818 -0.2541
33837W        W47251  12.790   6.664   2.725  0.0296 -0.1664  0.0483
33838W        W47252  13.693  10.960  10.954  0.1233 -0.1868 -0.1763
33839W        W47253   7.060  13.248   0.357 -0.0873  0.1465 -0.0962
33840W        W47254   3.709   1.431   5.785 -0.3117 -0.0128 -0.0170
33841W        W47255  14.173  11.063   3.814  0.3148  0.1887  0.0344
33842W        W47256   2.286  16.140  13.057  0.3266  0.1218 -0.0565
33843W        W47257  17.842   0.855  12.104 -0.1045 -0.0138 -0.1439
33844W        W47258   6.926   0.665   4.385 -0.1707  0.1032  0.0840
33845W        W47259  11.613   8.819  10.168  0.0755  0.2290 -0.0701
33846W        W47260   0.152   2.100  16.103  0.3939  0.0819  0.1543
33847W        W47261   9.739  13.539   4.020  0.0177 -0.4042  0.0711
33848W        W47262  12.128  14.372  14.435  0.3573  0.2413 -0.0675
33849W        W47263   1.283  11.103   3.183 -0.2731 -0.3889 -0.0103
33850W        W47264   3.683   4.211   5.697  0.0587  0.3201  0.0190
33851W        W47265   5.144   0.933  16.091 -0.2953  0.1567  0.5311
33852W        W47266  16.441   9.028  12.979 -0.0138 -0.0406  0.3391
33853W        W47267  16.426   7.861   4.571 -0.0762  0.0027  0.0150
33854W        W47268   0.843  10.782   3.528 -0.2245 -0.2934  0.5229
33855W        W47269   6.360  10.049  10.354  0.1592  0.0917  0.0033
33856W        W47270  11.438   0.310  11.073  0.0598 -0.0874  0.3447
33857W        W47271   3.179  15.392   5.001 -0.2285 -0.0018  0.1244
33858W        W47272   3.639  11.801  11.123 -0.0918  0.0359  0.0361
33859W        W47273   3.506   0.223  15.639 -0.2658  0.3135 -0.3301
33860W        W47274   9.198   1.233  15.572 -0.2579 -0.0133 -0.2093
33861W        W47275  12.732   5.820  10.951 -0.0636 -0.0721  0.1266
33862W        W47276   7.642  12.576  15.520  0.2114  0.0133  0.2790
33863W        W47277   7.962   4.558  14.551  0.1060 -0.3622  0.0007
33864W        W47278   5.421   0.203  11.570 -0.1206 -0.0478 -0.2368
33865W        W47279  18.429   9.620  15.350 -0.3570  0.3337 -0.1499
33866W        W47280  15.706   3.481  13.788  0.0160  0.3488  0.2487
33867W        W47281  14.032   0.411  13.616  0.0292 -0.0823  0.4561
33868W        W47282   3.558   5.603   2.470 -0.1364 -0.5050 -0.1933
33869W        W47283   6.279   8.749   5.615  0.1491 -0.0255  0.0933
33870W        W47284  10.130   6.951   3.246 -0.2985 -0.0505  0.3784
33871W        W47285  15.670  13.398   5.148 -0.0071 -0.0400 -0.2152
33872W        W47286  11.292  18.120   5.816  0.0792  0.0580  0.1237
33873W        W47287  17.016  15.507  12.849  0.2068 -0.0389 -0.1587
33874W        W47288   4.850  11.330  11.917  0.1333  0.0142  0.2629
33875W        W47289  15.087   2.744  10.395 -0.0522 -0.2576 -0.1164
33876W        W47290  10.001  16.233   0.025  0.1745 -0.1105  0.0760
33877W        W47291   8.845   2.548  14.525 -0.0085  0.1822 -0.0742
33878W        W47292  14.534  10.976  14.449 -0.0419 -0.1023  0.0668
33879W        W47293  16.447  16.219   3.489  0.0652  0.0565  0.4030
33880W        W47294   9.909  17.016   0.253 -0.4369 -0.0922  0.0676
33881W        W47295   8.695   5.144   3.570  0.3540  0.0931 -0.2782
33882W        W47296   3.357   1.667   1.298  0.2093 -0.0638  0.1110
33883W        W47297   5.670  12.827  15.415  0.0749  0.0481 -0.2901
33884W        W47298   8.971  14.119  14.621 -0.0613  0.1792  0.0783
33885W        W47299   1.793  10.837  10.339 -0.0954 -0.1838  0.1364
33886W        W47300  12.572  10.392   5.387  0.3984  0.0130 -0.2874
33887W        W47301  15.164   9.009  14.590  0.0728  0.0065  0.2549
33888W        W47302   3.347  12.346  14.869 -0.2060  0.1529  0.1578
33889W        W47303   4.530   8.130   1.411  0.0686  0.1180 -0.3927
33890W        W47304  11.677  13.209  11.934 -0.1049 -0.1538  0.0053
33891W        W47305  13.291   9.626   0.284 -0.0337 -0.2246  0.0388
33892W        W47306   5.047  10.540   3.476  0.2758 -0.1235 -0.1824
33893W        W47307  17.242  16.966  11.835 -0.2102 -0.2639 -0.0057
33894W        W47308  17.263  13.860   9.996  0.2158  0.1464 -0.0731
33895W        W47309   5.630  16.505  11.701  0.0273  0.2070 -0.0507
33896W        W47310   3.773   1.287  14.764  0.0945  0.3617 -0.1755
33897W        W47311   1.954   1.423   2.600  0.0504 -0.0401 -0.2276
33898W        W47312   9.360  15.192  13.911 -0.2001  0.0797 -0.0289
33899W        W47313   5.088   8.975  12.757 -0.2333  0.0592 -0.0147
33900W        W47314   9.302   2.721  14.630 -0.3868  0.1735 -0.2112
33901W        W47315  12.321  10.461  12.326  0.1491  0.3006  0.0406
33902W        W47316   6.304  13.721  14.956  0.1384  0.0517  0.2727
33903W        W47317   2.321   8.344  10.617  0.0144 -0.0707  0.2826
33904W        W47318   7.320  17.136   3.373 -0.1089  0.0074  0.5280
33905W        W47319   6.310   0.914   2.975 -0.2848  0.1354 -0.2923
33906W        W47320  12.633   3.327   0.691  0.2943  0.4475 -0.1455
33907W        W47321   0.315  13.343   5.865 -0.0082  0.0750 -0.2165
33908W        W47322   3.225   8.111   1.463 -0.2567 -0.0913  0.0692
33909W        W47323  17.778  15.103   4.934 -0.2610  0.0894 -0.2784
33910W        W47324   4.649   7.693   2.374 -0.0165  0.0614  0.1751
33911W        W47325   9.200  10.941   0.828 -0.2392 -0.0060 -0.0003
33912W        W47326   4.276   8.345  13.323 -0.1439  0.1205 -0.2314
33913W        W47327  11.628  18.123  11.948  0.2267  0.1253  0.3854
33914W        W47328  14.030   1.035   3.955 -0.1183 -0.1166 -0.1365
33915W        W47329   2.495   0.413  11.444 -0.0341 -0.1356  0.0380
33916W        W47330   6.764  17.671  12.760  0.1921 -0.0939  0.0629
33917W        W47331  17.205   7.056   3.887 -0.0750  0.1058 -0.0901
33918W        W47332   4.950  17.831  10.470  0.1837  0.3921  0.1532
33919W        W47333   0.766  18.127   2.237 -0.1990  0.1547 -0.3829
33920W        W47334   9.665   4.737  15.850  0.2238 -0.0341  0.1435
33921W        W47335   1.045   0.035  10.652  0.1907  0.0526 -0.4945
33922W        W47336  13.286  10.761   4.216 -0.2897  0.1198  0.0994
33923W        W47337   6.147  15.703  10.903 -0.4860  0.0262  0.2450
33924W        W47338   0.016   9.740  12.843 -0.1596  0.2849  0.4476
33925W        W47339   3.035   8.645   2.146  0.2952 -0.0004 -0.2393
33926W        W47340  10.853   1.541   1.620 -0.0953  0.0637  0.0367
33927W        W47341  13.373   9.301  13.148  0.2488  0.0289  0.2762
33928W        W47342  15.060   6.303   3.266  0.1448  0.2507  0.0759
33929W        W47343   0.347   4.565  12.621 -0.0607  0.1839  0.0517
33930W        W47344  15.040  16.767  12.225 -0.5338 -0.1227 -0.1297
33931W        W47345  12.312   9.548  14.802  0.2418  0.1419  0.0140
33932W        W47346   7.892  15.467  13.135 -0.2050 -0.0039 -0.2509
33933W        W47347  11.666  13.589   4.033 -0.0553  0.1960  0.2236
33934W        W47348   5.776  16.120  14.955  0.1268  0.1763  0.2742
33935W        W47349   2.869   3.529   6.341 -0.2053  0.1825  0.2296
33936W        W47350  15.941  15.027   2.934 -0.2241 -0.1136 -0.1373
33937W        W47351  10.095  15.474   3.375 -0.0531 -0.1807 -0.2567
33938W        W47352  18.178  16.364   1.818  0.1767 -0.0187  0.2343
33939W        W47353  16.584  16.786  10.096  0.2600 -0.2985 -0.1358
33940W        W47354  11.081   8.317  10.698  0.0256  0.1392  0.0954
33941W        W47355   6.087   3.614   3.318  0.0530  0.0377  0.2187
33942W        W47356  11.418  11.500  10.787  0.0500 -0.1011 -0.3216
33943W        W47357   1.726  14.530   1.312 -0.0083  0.0046  0.0550
33944W        W47358  17.184   5.044   3.026  0.0163  0.3830 -0.2211
33945W        W47359   4.467   5.748  12.117  0.0056 -0.1448 -0.2111
33946W        W47360   0.402   8.261  13.333 -0.1677  0.0201 -0.0784
33947W        W47361  15.192   3.935  13.685  0.1977  0.0016 -0.1783
33948W        W47362   9.691   9.695  15.590 -0.1031  0.1698  0.0271
33949W        W47363   9.319   7.828   5.175 -0.0375  0.2525  0.0915
33950W        W47364  14.875   6.298  11.991 -0.2078  0.0319 -0.0889
33951W        W47365   2.469   8.165   2.407 -0.0802  0.1476 -0.1186
33952W        W47366  13.226   0.454  12.293  0.1918  0.0565  0.0501
33953W        W47367  11.600   3.240  13.308  0.1520 -0.0593  0.1379
33954W        W47368  16.788   2.861   5.071  0.1352 -0.0069  0.1348
33955W        W47369  12.750   3.731   5.593  0.1568  0.0661  0.1041
33956W        W47370  11.464  17.198   4.283  0.1922  0.1618 -0.0336
33957W        W47371  16.067   1.967  15.386 -0.3028  0.1476 -0.1424
33958W        W47372  14.697  16.947   1.085  0.0862  0.1852 -0.1205
33959W        W47373   5.549  16.695  13.135  0.2934  0.1676 -0.1721
33960W        W47374   4.390   3.647  15.714 -0.0306  0.0709 -0.0585
33961W        W47375   1.731   9.831  12.434 -0.0254  0.1185 -0.2048
33962W        W47376  11.742  10.442   4.393  0.1758 -0.3151  0.0198
33963W        W47377   4.471   7.277   2.025  0.1000 -0.1455  0.0049
33964W        W47378   8.022  12.243  12.456 -0.1016 -0.1437  0.0223
33965W        W47379  17.111   7.572   3.963 -0.1534  0.3502 -0.0246
33966W        W47380   3.339  18.295  15.832  0.0203  0.2744  0.0648
33967W        W47381  16.718   1.390  11.061 -0.1339 -0.0422  0.0411
33968W        W47382  18.326   8.488  10.605 -0.3558 -0.2025  0.1794
33969W        W47383   2.425   3.337   4.413 -0.1030  0.1445 -0.2697
33970W        W47384  13.576   6.730  13.716 -0.2739  0.0015 -0.1046
33971W        W47385  16.036  13.668   6.320  0.0974 -0.1529  0.1116
33972W        W47386   5.951  16.708  12.794  0.0657  0.1220  0.0978
33973W        W47387   6.719  18.094   9.859 -0.0854 -0.1245  0.3675
33974W        W47388  12.431  16.513  12.842 -0.2353 -0.1063 -0.1032
33975W        W47389  10.069  17.045   4.096  0.3192 -0.2591  0.0079
33976W        W47390   1.960  17.651   2.008 -0.1127  0.0278  0.2431
33977W        W47391  13.111  11.167   3.234 -0.1997  0.0279  0.0785
33978W        W47392  13.942   3.610  11.235  0.1463 -0.1104  0.2374
33979W        W47393   7.081   2.071   4.713  0.1274 -0.2517  0.0440
33980W        W47394  11.921   9.111  14.947 -0.2495 -0.2510 -0.3127
33981W        W47395  15.719   9.497  10.171  0.1699 -0.0807  0.0304
33982W        W47396   5.816  16.081   9.857  0.0554 -0.2388  0.2354
33983W        W47397   1.853  10.886   4.630  0.0268  0.0996  0.2655
33984W        W47398   6.004  11.805  12.251  0.0337 -0.1145  0.0692
33985W        W47399   4.581   4.765   0.868  0.0064 -0.2950 -0.1489
33986W        W47400   5.807   5.773   2.226 -0.3045  0.0974 -0.1633
33987W        W47401   6.960  17.276   2.078  0.2828 -0.1952  0.1576
33988W        W47402  10.566  16.376  13.518  0.5999 -0.0358  0.1801
33989W        W47403   5.389   4.662  11.888  0.2819 -0.0527  0.0870
33990W        W47404   5.614  13.904   1.746 -0.1916  0.1689 -0.0530
33991W        W47405  12.936   0.315  13.410  0.0844 -0.0079  0.0435
33992W        W47406  11.353  12.475   9.832  0.0149  0.0046  0.0903
33993W        W47407   0.334  18.383   0.262 -0.0525 -0.5858 -0.1014
33994W        W47408   7.783  14.654  11.758 -0.0723 -0.2270  0.1741
33995W        W47409  10.327   2.164   0.380  0.0336  0.0244 -0.0434
33996W        W47410  14.524  11.767  14.591  0.1433  0.4261  0.2089
33997W        W47411  14.166   9.489   5.843  0.0099 -0.0027  0.0962
33998W        W47412   1.712   5.272  13.173 -0.0832  0.1024  0.4516
33999W        W47413   6.693  11.726  11.646 -0.1113 -0.0816 -0.0837
34000W        W47414   5.484  16.602   5.393  0.1569  0.0766 -0.0896
34001W        W47415   0.347   0.930   0.769  0.1128  0.1551 -0.0777
34002W        W47416  10.948  18.067  15.940  0.1142  0.2330  0.0261
34003W        W47417  11.278   1.986   4.639 -0.1543 -0.4601 -0.1583
34004W        W47418   7.061   8.038   5.474  0.2305 -0.1881  0.0793
34005W        W47419   8.075   4.717  12.371  0.0739  0.1982 -0.0218
34006W        W47420  15.255  16.366   5.884 -0.1012  0.2193  0.0392
34007W        W47421   0.520  12.608  14.610  0.0733  0.1156  0.1624
34008W        W47422  12.673  17.581  11.038 -0.1434  0.1004  0.0260
34009W        W47423   1.531   5.141   2.583  0.0909 -0.0528 -0.1772
34010W        W47424   3.175  16.292  14.061  0.2285 -0.0368 -0.0647
34011W        W47425   4.607  11.184  11.337  0.2127 -0.2149 -0.1418
34012W        W47426  13.888  14.619   0.815  0.0065 -0.1583  0.0838
34013W        W47427   1.652   8.513   4.120 -0.0053 -0.1990 -0.0069
34014W        W47428  11.276   2.202  11.319 -0.0708 -0.1328 -0.3115
34015W        W47429  11.235   1.590   3.374  0.1348 -0.1374  0.4041
34016W        W47430   0.358  16.298   0.823  0.0637 -0.1790 -0.0407
34017W        W47431   4.294  11.237   0.621  0.1138 -0.0905  0.0104
34018W        W47432  17.371   4.104  15.585  0.0238 -0.1931 -0.3217
34019W        W47433   4.451  17.366  15.526 -0.0038  0.2191 -0.1766
34020W        W47434   2.450  17.096  12.709 -0.0051  0.0780  0.3173
34021W        W47435   7.059   6.428  15.961 -0.0186  0.0991 -0.8446
34022W        W47436   8.302   6.074  11.323  0.0351 -0.4052  0.1501
34023W        W47437   4.516   3.917  12.989 -0.1345 -0.1216 -0.2990
34024W        W47438  14.114  17.396   3.256  0.1283  0.0913  0.0500
34025W        W47439  15.667  16.084   0.519 -0.1603  0.1979 -0.3416
34026W        W47440  15.468   9.158   3.504  0.1076  0.0001  0.1402
34027W        W47441  11.494   7.929  11.887  0.1750  0.2387 -0.1071
34028W        W47442  15.322   5.047   1.402 -0.2492  0.1954 -0.0926
34029W        W47443   8.794  11.941  14.547 -0.3261  0.0528  0.2672
34030W        W47444   2.459   1.559   2.769 -0.2597  0.2528  0.0237
34031W        W47445  11.903  11.608  11.589  0.0571  0.3748  0.2425
34032W        W47446  17.789   2.285   1.144 -0.0573  0.1532 -0.2526
34033W        W47447  18.298  12.844  13.485  0.1168 -0.0786  0.2913
34034W        W47448   3.662   3.042   5.515  0.1804  0.1062 -0.1815
34035W        W47449   5.239  15.430   4.885 -0.2233 -0.3552  0.0652
34036W        W47450  10.906   8.922  14.819 -0.0701 -0.0755 -0.0637
34037W        W47451   8.017   5.659  11.948  0.4894 -0.0008  0.2327
34038W        W47452   0.785  16.400  13.997  0.0840 -0.0133  0.0717
34039W        W47453   1.342   9.566  10.328 -0.0216  0.0081 -0.4689
34040W        W47454  10.964   5.938  12.534 -0.1037 -0.0398  0.0861
34041W        W47455   2.043   2.810   4.295  0.0755 -0.1136  0.0056
34042W        W47456   9.192  12.824   4.318  0.1962 -0.2048 -0.0873
34043W        W47457  11.412   3.979   1.057  0.0231  0.0732  0.1602
34044W        W47458   6.920   3.342   0.736  0.3045 -0.0090 -0.2064
34045W        W47459  13.099  12.907   0.738  0.1410 -0.1328 -0.3529
34046W        W47460   7.564   3.023   5.697 -0.2141 -0.1333 -0.2428
34047W        W47461  10.841  17.163   2.152 -0.1920  0.1859 -0.4185
34048W        W47462  10.254   8.619  14.021 -0.0759 -0.2199 -0.2236
34049W        W47463   6.569   5.592   1.078  0.2339  0.0001 -0.0559
34050W        W47464   5.498  14.223  11.621 -0.0649 -0.4661 -0.0174
34051W        W47465  10.107  15.664   5.324  0.0616 -0.0390 -0.0067
34052W        W47466  15.373   3.241  10.487  0.1298  0.2177  0.0351
34053W        W47467  15.705  14.505  15.194 -0.0470  0.2087  0.3456
34054W        W47468   3.873   1.495  14.297 -0.1976 -0.0453  0.1511
34055W        W47469  10.744  10.057   0.984  0.2284  0.0827  0.2624
34056W        W47470  10.830  16.726   0.898 -0.0597  0.4682  0.0854
34057W        W47471   8.754   0.831   0.193 -0.1867  0.0748 -0.0173
34058W        W47472  15.034  10.836  15.303 -0.2135 -0.0377  0.1005
34059W        W47473  10.906   0.600  10.919 -0.3201  0.2853 -0.2283
34060W        W47474   8.226   8.233  12.152  0.2543 -0.2839 -0.0884
34061W        W47475   0.503  11.225  12.423 -0.0602  0.1506 -0.0512
34062W        W47476   0.464   0.483  14.605 -0.1065 -0.0252  0.1040
34063W        W47477   1.513  11.157  10.672  0.0619 -0.0068  0.0816
34064W        W47478   8.816   3.532  15.534 -0.1138  0.1454 -0.1450
34065W        W47479  13.525   5.377  13.965 -0.4417 -0.0611 -0.0530
34066W        W47480  11.350   0.595  13.373  0.2869  0.0977  0.1275
34067W        W47481   1.217  11.744  14.534  0.0545  0.3949 -0.2849
34068W        W47482   5.897   0.231   3.778 -0.1542  0.0191 -0.1993
34069W        W47483   2.056  13.239   1.993 -0.2204 -0.5334  0.1868
34070W        W47484  18.136   8.206  12.844 -0.1311  0.0961  0.0705
34071W        W47485  13.552   7.130  11.405  0.3808  0.0695 -0.5146
34072W        W47486   0.040   8.926  13.914  0.0708  0.1297  0.1775
34073W        W47487   3.313   1.905   5.087  0.2928  0.0465  0.0431
34074W        W47488  15.319  15.137   5.558 -0.0099 -0.3455 -0.3074
34075W        W47489   6.007   7.005  12.201 -0.0680 -0.0943  0.0702
34076W        W47490   5.310  15.502  15.146  0.1807  0.1355  0.2281
34077W        W47491  12.376  14.116  15.753  0.0771 -0.1419  0.1117
34078W        W47492   2.034  13.627  15.818  0.0419 -0.1997  0.0340
34079W        W47493   6.750  18.002   3.999 -0.2276  0.2064 -0.2620
34080W        W47494   4.732  16.266   4.940 -0.1196 -0.2029  0.1113
34081W        W47495  10.813   9.762   2.656  0.2813 -0.3123 -0.0990
34082W        W47496  13.255   6.605   2.899 -0.2241  0.1179 -0.0587
34083W        W47497   0.183  14.021  12.660  0.1202 -0.0325  0.0011
34084W        W47498   8.710  13.516  15.373  0.0507 -0.1447 -0.0171
34085W        W47499   8.110  12.231  16.124  0.0729  0.0329  0.1326
34086W        W47500  15.103  18.434   5.095 -0.0461  0.0527 -0.0238
34087W        W47501  14.143   7.269  13.862 -0.2710 -0.2161  0.0229
34088W        W47502   1.728  16.904  10.877  0.1649 -0.1598  0.0685
34089W        W47503   9.887  12.029  12.979 -0.1251  0.0159  0.0437
34090W        W47504  10.164  16.980   1.455  0.0659  0.2240 -0.1949
34091W        W47505   2.955   1.700   4.556 -0.3507 -0.3939  0.0165
34092W        W47506   0.746   7.954  15.480  0.0089  0.1749 -0.1270
34093W        W47507  11.582   4.618   3.189  0.1139  0.0259 -0.0470
34094W        W47508  13.976  16.582  14.515  0.2323 -0.0215  0.1121
34095W        W47509  14.762  10.349   1.142 -0.0467  0.1492  0.2129
34096W        W47510   1.188  10.580   1.108  0.1953 -0.1365  0.0949
34097W        W47511   5.577  13.076   2.850 -0.0577 -0.0163  0.1425
34098W        W47512   1.041   9.593   2.342 -0.0055  0.2602 -0.3651
34099W        W47513  11.506   1.725   0.334  0.2245  0.2490  0.1499
34100W        W47514   3.440  10.974  10.990  0.3246 -0.0173 -0.1173
34101W        W47515   6.629   4.491  14.708 -0.0194 -0.0916  0.0007
34102W        W47516   9.482  16.668  10.515 -0.3062 -0.1262  0.0292
34103W        W47517  16.285   8.835   3.363 -0.0161  0.1249  0.1260
34104W        W47518  14.026   5.881   6.831  0.1718  0.1045  0.0966
34105W        W47519  18.024   4.442  15.670 -0.1045 -0.1704 -0.0698
34106W        W47520   1.340   0.095   5.496  0.1665 -0.0370 -0.2449
34107W        W47521   8.614  11.260   9.987  0.0756  0.3612  0.4738
34108W        W47522  13.513   1.948   3.376 -0.2933  0.0217 -0.1874
34109W        W47523  17.174   6.007  14.444  0.0400  0.5533 -0.2293
34110W        W47524   7.937  17.604  10.433  0.2209  0.2407  0.4823
34111W        W47525   1.951  16.019  15.326 -0.1495  0.0188 -0.1427
34112W        W47526   2.026  13.012  10.530  0.0805 -0.3484  0.4112
34113W        W47527   8.685   1.730  13.559 -0.1573  0.1861  0.1414
34114W        W47528  13.483   4.164  12.262 -0.1598 -0.3791  0.2691
34115W        W47529  17.705   7.593   4.617 -0.1876  0.0157  0.3890
34116W        W47530   6.029  10.007  16.256  0.0709 -0.2071 -0.2084
34117W        W47531  13.222   8.203   3.774  0.0947  0.0828 -0.0616
34118W        W47532   8.707   5.322   2.323 -0.1583 -0.1173 -0.2567
34119W        W47533   6.708   5.472  11.759  0.2754 -0.0325 -0.0388
34120W        W47534  13.897  11.338   2.589  0.2087  0.2988 -0.0133
34121W        W47535  18.391  15.472   5.539 -0.0935  0.1944 -0.1690
34122W        W47536  14.805  17.971  14.245  0.1462 -0.2033 -0.2036
34123W        W47537   0.930  10.444  13.601  0.0918  0.0625  0.0009
34124W        W47538   2.624   1.584   3.729  0.0804  0.0576 -0.2109
34125W        W47539  16.894   0.438   3.801  0.0552 -0.0857  0.0919
34126W        W47540  10.332  10.426  14.581 -0.0394 -0.2875  0.0736
34127W        W47541   5.882  15.119  11.244  0.0281 -0.2189  0.0774
34128W        W47542   1.493   8.526  10.937  0.2855 -0.1944 -0.2980
34129W        W47543   7.198   3.152  14.741 -0.0821  0.3418 -0.0531
34130W        W47544   5.290   4.499   5.656  0.0574  0.0185  0.0208
34131W        W47545  10.502  13.240   3.983 -0.0269 -0.2360  0.0642
34132W        W47546  16.653  13.856  13.369  0.7523  0.4676 -0.1542
34133W        W47547   7.096   4.296  13.356 -0.0794  0.3280  0.3546
34134W        W47548  12.518  16.385   5.092 -0.0049  0.0119 -0.0858
34135W        W47549   5.864  11.901  14.906 -0.3093  0.0941  0.0068
34136W        W47550   0.714  16.136  14.461  0.1130 -0.0246  0.3598
34137W        W47551  13.660   1.435  12.416  0.3204  0.3071  0.2432
34138W        W47552  12.122   7.721   5.398 -0.2747 -0.3932  0.0282
34139W        W47553   0.724   5.153   6.553 -0.2424  0.1846 -0.3043
34140W        W47554   8.543  17.020  12.001 -0.3117  0.1402  0.0717
34141W        W47555  15.536  12.960   1.281  0.2568  0.1220  0.3084
34142W        W47556   0.903  16.378   0.812 -0.0700 -0.0611 -0.1892
34143W        W47557   0.596  15.719  11.559 -0.2354 -0.0393  0.3752
34144W        W47558   5.520   4.970  12.738 -0.0085  0.1874 -0.2279
34145W        W47559   6.658  16.473   3.197 -0.2067 -0.0840  0.2134
34146W        W47560  12.064  12.132   0.043  0.2623  0.0698  0.4950
34147W        W47561   4.163   9.284   3.940 -0.3898  0.0505 -0.0766
34148W        W47562  15.013  15.864   2.078 -0.5079 -0.0005  0.2012
34149W        W47563  11.837  12.538  14.555 -0.1068 -0.3398 -0.0256
34150W        W47564   0.822  16.900   5.163 -0.2004 -0.3305 -0.0663
34151W        W47565   6.436   1.354  10.766  0.1278  0.2521 -0.0425
34152W        W47566  10.784   8.903   2.125  0.0831 -0.0167 -0.0496
34153W        W47567  16.711  16.474  13.660  0.2545 -0.2232  0.1514
34154W        W47568  10.839   0.160  10.727 -0.0395 -0.0586 -0.0164
34155W        W47569   2.258   8.715  12.966  0.1647  0.0668  0.1143
34156W        W47570   6.529  17.524  14.725  0.0839  0.0905  0.0170
34157W        W47571  11.392   3.231   0.689 -0.2353 -0.1320 -0.0302
34158W        W47572  17.810   4.571   4.942  0.2453 -0.2435 -0.0265
34159W        W47573  10.001   5.872  14.319  0.2019  0.0922  0.0681
34160W        W47574   0.740   3.614   3.528 -0.4411  0.1573  0.3686
34161W        W47575   9.969   7.769   4.049  0.0235 -0.1922 -0.0611
34162W        W47576   7.213   5.502  10.167 -0.1004 -0.1542 -0.2630
34163W        W47577   6.713   9.593  15.647  0.0199 -0.0202 -0.2711
34164W        W47578   9.179  15.412  15.549  0.1003  0.0777  0.0959
34165W        W47579   7.609   9.297   3.604 -0.1243  0.1619 -0.2502
34166W        W47580   3.668   4.133   4.285  0.0029 -0.1134 -0.0292
34167W        W47581  14.878   0.339   2.930  0.0432 -0.0772 -0.0916
34168W        W47582   6.938  11.164   0.984  0.1705  0.3785  0.0625
34169W        W47583  13.700  15.651  12.422 -0.0469 -0.3466  0.0950
34170W        W47584  13.459  15.927   4.303  0.1934 -0.0625 -0.0245
34171W        W47585   6.976  12.920  13.424 -0.0961 -0.2101 -0.0833
34172W        W47586   0.139  11.288  11.419 -0.3232  0.0059  0.0867
34173W        W47587   3.952  17.302  15.607  0.0070  0.2001  0.0210
34174W        W47588   0.366   1.649  16.271 -0.2404  0.0201  0.2263
34175W        W47589  15.737   7.272   0.723  0.1147  0.0533  0.1627
34176W        W47590   0.409  12.362  10.823 -0.1845  0.0502 -0.0712
34177W        W47591  15.543   9.693  12.477  0.2060 -0.2561  0.2139
34178W        W47592  15.319   8.972   5.028 -0.1081  0.0101 -0.0318
34179W        W47593   1.416   0.130  13.640  0.3236 -0.4007  0.0974
34180W        W47594   4.191   0.408   5.625  0.1917  0.0259 -0.1249
34181W        W47595   0.327   3.112  15.215  0.0262 -0.1276  0.3299
34182W        W47596   9.369  13.191   3.894  0.1368 -0.0823  0.2654
34183W        W47597   2.484   8.417  15.425 -0.3447 -0.0711 -0.0415
34184W        W47598  14.984  12.353   3.998 -0.1103 -0.2618  0.3144
34185W        W47599  13.425  12.364  14.306 -0.0934  0.0786 -0.1466
34186W        W47600   9.108  16.524  16.225 -0.0153  0.2007 -0.1871
34187W        W47601   1.225   9.703  13.255 -0.3338  0.3432  0.0344
34188W        W47602   8.711  13.967  15.133  0.1193 -0.1258 -0.1455
34189W        W47603   0.255  15.114  12.682 -0.3750 -0.1911 -0.2606
34190W        W47604  16.999  17.221  14.999 -0.2110  0.1413 -0.0277
34191W        W47605   6.380   4.568   3.355  0.1792  0.0467 -0.1120
34192W        W47606   4.737   9.174  11.720 -0.0301  0.1526 -0.2014
34193W        W47607  17.273  10.202  13.939 -0.0538 -0.0368 -0.1161
34194W        W47608  16.519  15.699   3.397  0.0050 -0.1004 -0.1543
34195W        W47609   0.829   1.816  13.253  0.0248  0.0476  0.2098
34196W        W47610  11.690   2.855   3.039  0.3398 -0.1409  0.0542
34197W        W47611  15.234  13.486   2.905 -0.1147 -0.3764  0.0491
34198W        W47612   0.577   2.258   5.083  0.0215 -0.1930 -0.2064
34199W        W47613  17.087   4.394  11.543 -0.0783  0.0296 -0.2248
34200W        W47614  13.556   5.369  13.484  0.1618  0.0788 -0.0690
34201W        W47615  16.617   9.073   2.614 -0.2037  0.0393 -0.1721
34202W        W47616  13.469  10.448   3.873 -0.2374  0.1856  0.0479
34203W        W47617  13.161   2.941   5.496  0.1105 -0.3365 -0.0595
34204W        W47618   5.435  16.280  12.095 -0.1054 -0.1019 -0.1567
34205W        W47619   0.908  16.602   1.912 -0.1545 -0.0257  0.1622
34206W        W47620   2.093  15.645   0.653 -0.0752  0.3267  0.2245
34207W        W47621  17.510  13.735  15.801  0.0873  0.0895 -0.0523
34208W        W47622   2.741   0.470   4.256  0.1065 -0.1612 -0.2104
34209W        W47623   8.870  11.677   6.109  0.1085 -0.0783  0.1559
34210W        W47624  10.591   8.562   0.207  0.1477  0.0643 -0.0807
34211W        W47625  10.337  11.947  13.156  0.0003 -0.0420  0.0777
34212W        W47626  14.670  16.561   4.961 -0.1494  0.0130  0.0947
34213W        W47627   7.779   4.093  11.340  0.2863 -0.2041 -0.3385
34214W        W47628  14.513   4.614  13.830  0.1123  0.1953 -0.1035
34215W        W47629   1.854  17.177   4.133 -0.3054  0.0700 -0.1676
34216W        W47630   0.300   7.599  15.529 -0.0750 -0.2897 -0.1064
34217W        W47631  10.823   1.340  14.465 -0.3444  0.1684 -0.2077
34218W        W47632  17.798   0.262   4.477 -0.2103  0.2425 -0.3335
34219W        W47633  11.281  16.351  14.218 -0.3760 -0.2010 -0.3259
34220W        W47634  18.273  15.516  14.124  0.1095 -0.0263 -0.1453
34221W        W47635  17.461   4.236  11.143  0.1730 -0.1657 -0.0057
34222W        W47636   5.202  12.893  12.997  0.2286 -0.3836 -0.1987
34223W        W47637   3.290   2.785   3.558 -0.1518  0.0527 -0.2359
34224W        W47638   5.999  10.029   1.980 -0.0509  0.0589  0.3005
34225W        W47639   0.214   6.665   0.406 -0.3836  0.0883  0.0093
34226W        W47640  12.332  14.056   5.225 -0.0002  0.1418 -0.2156
34227W        W47641  15.880   6.716   0.161 -0.1139  0.3111 -0.1837
34228W        W47642  12.865  14.766  14.859 -0.1969  0.2556  0.1938
34229W        W47643  10.196  16.535   1.932 -0.3187  0.3255  0.0118
34230W        W47644  14.506   0.954  13.014 -0.2545  0.4056  0.2576
34231W        W47645   4.078  14.174  10.742 -0.1185  0.1889 -0.1028
34232W        W47646  10.579   6.166   1.954  0.2619  0.1262  0.2368
34233W        W47647   1.878  16.515  15.481  0.1466  0.1920  0.4166
34234W        W47648   6.939   4.321  11.742  0.0637  0.2787 -0.0330
34235W        W47649  18.433   1.243  12.671  0.0902  0.0855 -0.1090
34236W        W47650  12.284  14.947  12.280 -0.1341  0.0692  0.4938
34237W        W47651  18.290   5.404   4.667 -0.0462 -0.1882 -0.0120
34238W        W47652   8.318   1.049  14.753  0.0979 -0.0505 -0.0770
34239W        W47653   4.557   1.342  11.700  0.1485  0.3495 -0.0209
34240W        W47654   5.094  17.624  12.200  0.0418 -0.4009  0.3872
34241W        W47655   8.113   4.443  11.205  0.0510  0.0258  0.1904
34242W        W47656  14.673   1.016  11.447 -0.1483 -0.2336  0.0905
34243W        W47657  15.371   1.509   3.679  0.2388  0.2032  0.2571
34244W        W47658   8.226   4.543  11.770 -0.1183 -0.0355  0.0291
34245W        W47659  14.452  17.872  12.026 -0.0969 -0.2805  0.1117
34246W        W47660   8.234  14.565   9.980  0.0742 -0.0500  0.4032
34247W        W47661   7.999  13.015  15.412 -0.0840 -0.0727 -0.2986
34248W        W47662  11.486  11.603  15.123  0.0818 -0.1613  0.1209
34249W        W47663   6.961  15.149   2.056 -0.1778 -0.0098  0.2945
34250W        W47664  10.324   8.017  16.223 -0.0073 -0.0497  0.3742
34251W        W47665  16.566   4.977  12.733 -0.1573 -0.0247  0.0057
34252W        W47666   5.109   0.782  14.892  0.1431 -0.3546 -0.4225
34253W        W47667   0.648  16.169   1.218 -0.0162  0.3462 -0.3280
34254W        W47668  18.245   9.098   0.737 -0.0630  0.1055  0.0396
34255W        W47669  12.193   2.869  14.066  0.1060  0.1080  0.0166
34256W        W47670  13.342  10.311   3.307 -0.0375 -0.0902 -0.1045
34257W        W47671  16.580   3.763  14.272 -0.2491 -0.0309  0.4110
34258W        W47672   0.521   1.506  14.903  0.1628  0.0824  0.4979
34259W        W47673  13.625   9.800  12.867  0.1106 -0.2934 -0.2374
34260W        W47674  17.695   1.105   4.002 -0.2535  0.5390  0.0950
34261W        W47675   6.811   7.236   1.410  0.0332 -0.1369 -0.2079
34262W        W47676  16.466   1.563   0.188  0.3334  0.2742 -0.1316
34263W        W47677  13.900  16.046  15.517 -0.0273 -0.2135  0.0344
34264W        W47678   3.587  10.922  11.467  0.1852  0.0443 -0.3299
34265W        W47679   6.413   2.916  15.291 -0.1182 -0.0691  0.1080
34266W        W47680   3.206   3.215  12.963  0.0596  0.0747  0.2020
34267W        W47681   3.354  18.020  14.778  0.1870  0.0866  0.0648
34268W        W47682   5.641   5.474   5.839  0.1209 -0.1559 -0.0694
34269W        W47683  17.095  12.720  14.402  0.0210  0.0779  0.0520
34270W        W47684   9.143   9.523  14.250  0.1295 -0.0232  0.1289
34271W        W47685  17.322   3.809  14.791  0.3846 -0.1310  0.0184
34272W        W47686  18.135   1.457   1.660  0.0453  0.1910  0.0455
34273W        W47687  12.671   0.029   2.635  0.4410 -0.0401 -0.3745
34274W        W47688  13.899  10.217   5.434 -0.1657 -0.0873  0.0256
34275W        W47689   3.090   8.082  14.346  0.1915  0.0439 -0.0920
34276W        W47690  15.166   7.023   4.312  0.1162  0.1657  0.0240
34277W        W47691  18.120  13.113  14.773  0.1849 -0.2937 -0.1435
34278W        W47692   9.852  14.091  14.513  0.1288  0.0019 -0.0635
34279W        W47693   7.945  16.036  15.676  0.0605  0.0926 -0.0494
34280W        W47694  11.723   5.430  11.451  0.0992 -0.0708  0.0613
34281W        W47695  18.476   1.744  15.286  0.0131 -0.0638  0.1139
34282W        W47696   0.653   0.915   4.570  0.2567 -0.1742 -0.1420
34283W        W47697  13.678  15.506   3.382  0.1840  0.1417  0.1878
34284W        W47698   3.362   1.156  13.930  0.0555  0.2230 -0.2628
34285W        W47699   5.086   3.787  12.167  0.1447  0.1098  0.1627
34286W        W47700  11.803   2.344  14.195  0.3269 -0.2173 -0.1072
34287W        W47701  15.049  13.065  14.160  0.2722  0.3725 -0.1035
34288W        W47702   8.849   9.519   2.610 -0.0544  0.1574 -0.2896
34289W        W47703  10.184  12.171   5.776  0.2354  0.5502 -0.1513
34290W        W47704   2.972   3.965  12.113  0.1359 -0.0350  0.1293
34291W        W47705  13.891   7.161   4.716 -0.1545  0.0015  0.0656
34292W        W47706   4.725  14.104  15.564  0.1996 -0.2103  0.1925
34293W        W47707   4.857   5.133   1.122 -0.0452  0.2664  0.0542
34294W        W47708  13.791  13.411  16.262 -0.1573  0.1390 -0.0639
34295W        W47709   4.452  10.692   9.581 -0.1755 -0.0677  0.0177
34296W        W47710   6.443   1.500  11.745  0.1988  0.2888  0.1454
34297W        W47711   4.651   2.721   3.754 -0.1024 -0.1158  0.2435
34298W        W47712   2.175   2.814  14.119 -0.0229  0.2081 -0.3175
34299W        W47713   8.544  12.145  11.924 -0.0722  0.1507 -0.1566
34300W        W47714   9.388   4.294   3.016  0.0961  0.2265 -0.0976
34301W        W47715   9.512   8.755  15.174  0.2594  0.1216 -0.2183
34302W        W47716   0.219   0.182   1.500 -0.0064  0.0304  0.0277
34303W        W47717  12.718  14.290  16.088  0.0739 -0.0345 -0.1788
34304W        W47718  16.955  14.911  14.648 -0.2134 -0.0281  0.0513
34305W        W47719   7.472  16.724   5.492 -0.0022  0.3775 -0.1696
34306W        W47720  18.133  10.034  15.073 -0.2727 -0.0994 -0.3734
34307W        W47721  12.272   2.552   2.188  0.0812 -0.1088  0.2323
34308W        W47722  12.713   6.499  14.856 -0.0538  0.0153 -0.2906
34309W        W47723   0.710  15.818   0.214 -0.2522 -0.0473 -0.0850
34310W        W47724   1.202   7.038   1.423  0.1212  0.3220 -0.0014
34311W        W47725   2.495  15.708  13.127  0.0377  0.4471  0.1858
34312W        W47726  14.904  17.068   4.450  0.1248  0.1858 -0.0028
34313W        W47727   6.810   4.167   4.626 -0.2776  0.0002  0.4767
34314W        W47728  14.981   9.335  15.618 -0.0586 -0.2083 -0.0853
34315W        W47729  13.156  14.070   3.676 -0.1179  0.0336 -0.0771
34316W        W47730   7.924  15.094  11.450  0.3143  0.1879  0.0018
34317W        W47731   2.657  12.568  15.529  0.1264 -0.1075 -0.0673
34318W        W47732  10.797   1.133  11.444  0.0451 -0.0999 -0.0958
34319W        W47733   1.014  12.163   5.957  0.0287  0.0190  0.1560
34320W        W47734  14.886  16.116   4.835 -0.0285 -0.2858 -0.2328
34321W        W47735   3.902  16.465   5.510 -0.0422 -0.0226 -0.1104
34322W        W47736   5.895  17.550   1.755  0.1900  0.2906  0.4380
34323W        W47737   7.817   1.974   2.414 -0.1618 -0.1290 -0.1050
34324W        W47738   1.740   6.014  15.290 -0.2187  0.1667 -0.2305
34325W        W47739   3.598  17.502   3.913 -0.0626 -0.0048 -0.0370
34326W        W47740   5.492   2.707  14.152 -0.5106  0.1063 -0.0119
34327W        W47741  10.265   5.051   4.030  0.0486 -0.1826 -0.1557
34328W        W47742   2.912   9.741   5.189 -0.4167 -0.2353 -0.1571
34329W        W47743  16.748   2.434   0.112 -0.0708  0.0351 -0.1239
34330W        W47744  12.185  10.558  15.811 -0.1087 -0.1946 -0.1289
34331W        W47745  11.868  12.844  11.225 -0.1055  0.1329 -0.3716
34332W        W47746  15.253  10.166   1.027 -0.0353 -0.0938  0.2182
34333W        W47747   7.084   0.097   2.096  0.1554 -0.0321 -0.0147
34334W        W47748   4.444   1.863   6.342  0.1193  0.0172 -0.0114
34335W        W47749  15.110  11.638   4.569  0.0176  0.3897 -0.1049
34336W        W47750   7.955   7.200   0.657 -0.2722 -0.3817 -0.0214
34337W        W47751   1.845  14.533   5.916  0.1494  0.0682 -0.2066
34338W        W47752  11.919   6.862   5.076 -0.1746  0.0938  0.1736
34339W        W47753   7.143   5.530   2.333 -0.0446 -0.1445 -0.0749
34340W        W47754   1.969  16.691   3.793 -0.0996 -0.0015 -0.1195
34341W        W47755  13.435  17.064  13.979 -0.0172 -0.0936 -0.1168
34342W        W47756   0.075  15.039   9.927  0.3561 -0.1787 -0.1742
34343W        W47757  16.110  10.044   5.094  0.3770  0.0183 -0.0621
34344W        W47758   9.177   0.362   4.538 -0.1210 -0.3115  0.1438
34345W        W47759  13.289   3.645   5.271  0.3071 -0.0300 -0.0576
34346W        W47760  12.874  13.153  14.342 -0.1677 -0.4765 -0.0904
34347W        W47761  15.073   5.459  10.844 -0.4404 -0.1729 -0.2562
34348W        W47762   3.415  11.970  12.678  0.1914  0.2540  0.1682
34349W        W47763  11.208   9.688  13.858 -0.0240 -0.2459  0.0226
34350W        W47764  16.148  15.234  13.694  0.3917  0.0809 -0.1667
34351W        W47765   9.835  12.336  10.972 -0.0920  0.3418  0.1409
34352W        W47766   4.568  16.585  15.410  0.1022 -0.1577 -0.2050
34353W        W47767   2.564   2.121  15.333 -0.1369 -0.1675  0.0381
34354W        W47768  11.420   1.838   0.921  0.0317 -0.0706  0.2533
34355W        W47769   8.599  11.238  12.837  0.1515 -0.0664 -0.1193
34356W        W47770  11.361  17.286   2.017 -0.0256 -0.0756 -0.0126
34357W        W47771   0.819  12.628   1.866 -0.2271  0.0421 -0.0539
34358W        W47772   6.121  17.571  13.499 -0.0626 -0.0164 -0.0481
34359W        W47773  13.490  17.490   0.414  0.2095  0.2303 -0.1189
34360W        W47774   4.856   7.235  14.251  0.1281  0.0570 -0.2193
34361W        W47775  12.053   4.905   1.692  0.0062  0.1683  0.0244
34362W        W47776   3.618  12.604   0.577 -0.4880 -0.0326 -0.0863
34363W        W47777   0.388   7.043   3.672  0.1649 -0.0290  0.0861
34364W        W47778   9.731   8.584   1.070  0.4066 -0.1183 -0.0880
34365W        W47779   9.241  11.519  13.799 -0.3034  0.4026  0.0433
34366W        W47780   0.776   2.193  13.687 -0.0603  0.2461  0.0009
34367W        W47781  17.545   6.432  14.774 -0.0563 -0.0927 -0.1068
34368W        W47782   3.180  11.706   3.743  0.0490  0.0566  0.2521
34369W        W47783   7.505   8.382  11.936 -0.1130  0.1599 -0.2466
34370W        W47784  15.680   4.732  12.877  0.2697 -0.3328 -0.0628
34371W        W47785   9.935  10.938   2.878  0.1759 -0.2792 -0.3972
34372W        W47786   0.306  11.465   1.422 -0.1392  0.0429  0.1237
34373W        W47787   4.410   7.837   3.580 -0.1368  0.2432 -0.4317
34374W        W47788   9.705   7.479  14.133 -0.1490  0.2372 -0.0524
34375W        W47789  18.247   8.162   4.736 -0.3572  0.1969 -0.1988
34376W        W47790   3.330   1.108   3.683  0.1927 -0.1238  0.1124
34377W        W47791  10.556  12.556  14.881  0.3096 -0.2437 -0.0973
34378W        W47792   1.590   8.505  11.970 -0.0986  0.3754  0.0273
34379W        W47793  17.838   7.241  11.315 -0.2408  0.0203 -0.0591
34380W        W47794   6.738   5.602   2.711  0.3682 -0.4624  0.0837
34381W        W47795  10.342  15.775   2.273  0.0214 -0.0222  0.2838
34382W        W47796   6.831   9.586  11.554  0.0989 -0.0393  0.1766
34383W        W47797  15.812   8.417  13.031 -0.3551  0.4565  0.1878
34384W        W47798  15.739   0.340   2.712  0.4083  0.2702  0.2736
34385W        W47799  11.336   9.716   3.367  0.1594 -0.1364  0.4841
34386W        W47800  13.577   4.341   4.811 -0.1846 -0.0841 -0.1158
34387W        W47801  13.906   0.869  11.334  0.2187 -0.4353  0.3322
34388W        W47802  16.483  18.224   1.889  0.2771 -0.1312 -0.0051
34389W        W47803   8.474   9.941   1.867 -0.2856  0.0022  0.0983
34390W        W47804   4.264   2.299  13.467  0.0913  0.2865  0.1464
34391W        W47805   8.600  15.624   3.212 -0.1775 -0.0236  0.0237
34392W        W47806   7.916   6.167  12.233 -0.0396  0.2277 -0.1757
34393W        W47807  11.342  15.111   5.637 -0.1373  0.1186  0.0936
34394W        W47808   9.016  16.521   3.383  0.1872  0.1643 -0.0393
34395W        W47809   9.196   6.136   3.501 -0.0815 -0.0291  0.2126
34396W        W47810  14.110   5.919  15.763  0.1752 -0.0876  0.1284
34397W        W47811  12.849   2.909  15.824 -0.0386 -0.1392  0.2608
34398W        W47812   3.332  12.327  12.294 -0.2063  0.0711  0.2893
34399W        W47813   1.462  15.670  13.201 -0.1214 -0.2635 -0.1462
34400W        W47814  13.840  16.196   2.632  0.3354  0.3150 -0.1235
34401W        W47815   3.992  15.602  10.395 -0.3856 -0.0884 -0.1707
34402W        W47816   9.803  14.492   1.025 -0.1991  0.0300  0.2468
34403W        W47817  13.847  12.988   5.009  0.1296 -0.0903  0.1893
34404W        W47818  11.549  12.586   2.731 -0.0492 -0.0030  0.2153
34405W        W47819   5.215  11.110  16.073 -0.1331 -0.0489 -0.1381
34406W        W47820   3.601  16.756  15.784 -0.0776  0.1192  0.0053
34407W        W47821  10.925   7.299  13.140 -0.1863 -0.0087  0.1106
34408W        W47822   0.356  13.996  14.089 -0.5548  0.0034 -0.1191
34409W        W47823   8.835  15.674  14.193 -0.2755  0.0554 -0.0889
34410W        W47824   4.127   4.007   2.419  0.2190  0.1043 -0.2228
34411W        W47825  15.218   0.867  15.429  0.0556 -0.0980 -0.0674
34412W        W47826   8.596  11.714   4.611 -0.0621 -0.4154 -0.1798
34413W        W47827   4.566  11.493  14.032  0.2919  0.1007 -0.0781
34414W        W47828   8.164   4.546   3.695 -0.0289 -0.0156  0.0415
34415W        W47829   2.163   7.711   2.319 -0.0411  0.2435  0.2189
34416W        W47830  16.474  16.059  16.214  0.2346  0.0482  0.1644
34417W        W47831  11.893   3.009  14.962 -0.2682  0.0636  0.0479
34418W        W47832  15.752  15.027  12.387 -0.0142 -0.2250 -0.1042
34419W        W47833   3.472   3.574  11.406  0.0420 -0.0063 -0.1581
34420W        W47834   6.068   3.901   4.336 -0.1510  0.1158  0.1510
34421W        W47835  10.402   2.421   4.889 -0.0257 -0.0714  0.2537
34422W        W47836   0.017  13.777  10.464  0.1844  0.0013 -0.2622
34423W        W47837  14.866  14.321   2.570  0.0779 -0.3762  0.1382
34424W        W47838   3.818   8.920   0.197 -0.0453  0.0579  0.2238
34425W        W47839  12.064   8.521  13.893  0.0089 -0.0027  0.0903
34426W        W47840   8.071  13.681   5.271  0.1351  0.0285 -0.1130
34427W        W47841  14.497   2.084   5.671  0.1367 -0.0345  0.0379
34428W        W47842   9.568   6.036   6.279  0.3704  0.0077  0.0142
34429W        W47843  14.963   5.497   0.317 -0.2181 -0.0450 -0.2883
34430W        W47844  12.491  12.089   4.938  0.1768 -0.0785 -0.0381
34431W        W47845  11.555  14.999   0.766  0.2140  0.1248 -0.0565
34432W        W47846   9.049   5.657  12.470  0.1684  0.0340 -0.0558
34433W        W47847   0.302   2.891   0.111  0.0340 -0.2333 -0.0354
34434W        W47848  17.179  10.639  13.377  0.1457 -0.1687 -0.2626
34435W        W47849  13.951   8.066   1.395 -0.2961 -0.1811 -0.2909
34436W        W47850   7.370   7.201  11.302 -0.0616 -0.0476 -0.1716
34437W        W47851   2.286   2.940   3.836  0.0583  0.1568 -0.2210
34438W        W47852   8.199   1.062  12.555  0.3448 -0.1661 -0.1465
34439W        W47853   2.473   8.150  11.701  0.2687 -0.1855  0.1126
34440W        W47854  11.707  17.595  12.152  0.0637  0.0426  0.1987
34441W        W47855  15.095  14.878   1.183  0.2900 -0.1357  0.0003
34442W        W47856   2.408  13.250  14.249 -0.3237 -0.0853  0.2141
34443W        W47857  11.587  10.635  11.168  0.2914 -0.2002  0.0554
34444W        W47858   9.326  12.794  15.130  0.3158  0.2910 -0.0214
34445W        W47859  15.179  10.800   3.027  0.4629  0.0176  0.3171
34446W        W47860   3.760   7.776   0.229  0.2496  0.1089  0.0467
34447W        W47861   0.644   3.421  14.143 -0.1649 -0.0594 -0.0479
34448W        W47862  18.275  13.498   1.588  0.0870  0.2573  0.4043
34449W        W47863  16.987  17.413  13.311  0.1656  0.0795 -0.2265
34450W        W47864   1.826   0.448  13.570 -0.2034 -0.0881 -0.1150
34451W        W47865   0.531  12.631   4.731 -0.1429 -0.4507 -0.0655
34452W        W47866  17.890  16.656  14.624 -0.2351  0.1507  0.1650
34453W        W47867   6.830  11.026  12.414 -0.1291  0.0097 -0.2927
34454W        W47868  13.499  12.860  15.015  0.0497  0.2269 -0.0114
34455W        W47869  15.667  17.611   0.873 -0.3550  0.3789 -0.0138
34456W        W47870   6.355   0.397  14.015  0.0685  0.0258  0.1373
34457W        W47871   2.090  14.198   4.207  0.1626 -0.0882  0.2652
34458W        W47872  12.350   3.963   4.781 -0.1883  0.2165 -0.1358
34459W        W47873   1.747  13.118  13.456 -0.4631 -0.1787 -0.0070
34460W        W47874   5.232   3.434  15.023  0.2740  0.4872 -0.0245
34461W        W47875   1.497  16.885   3.941 -0.0925 -0.2626 -0.2264
34462W        W47876   7.827  15.521  15.589  0.1140  0.1173  0.0924
34463W        W47877  17.639   5.096   5.781 -0.1723  0.1360 -0.0109
34464W        W47878  11.952   4.900   5.166 -0.1615  0.0305  0.2622
34465W        W47879  16.136   8.892  14.896 -0.2494 -0.0012  0.0303
34466W        W47880   8.137   1.321   4.219  0.0985  0.0384 -0.0908
34467W        W47881  17.988   3.163   0.575 -0.2627 -0.0059 -0.0153
34468W        W47882  14.075  11.053  13.523  0.1997  0.0867  0.0338
34469W        W47883  14.388   8.219   4.337  0.0296  0.2813  0.1809
34470W        W47884   5.830  12.599   0.590 -0.0225  0.1721  0.1315
34471W        W47885   9.894   6.919   5.240  0.0352  0.0991 -0.2166
34472W        W47886  14.173  13.449  14.536  0.0115  0.3103 -0.1294
34473W        W47887   1.012  14.724   4.993  0.1418  0.0387 -0.0875
34474W        W47888   4.885   2.363  13.439  0.0081 -0.2095  0.0151
34475W        W47889   0.811   5.822  10.090 -0.1745 -0.1140 -0.1444
34476W        W47890  15.790  14.183   2.740 -0.3171  0.2765  0.2183
34477W        W47891  10.736   6.584   1.176  0.1609  0.3589 -0.1159
34478W        W47892   7.183   8.086  13.800  0.0016 -0.0244  0.0678
34479W        W47893   3.624   0.959  10.856  0.1294  0.2182 -0.2411
34480W        W47894  15.378  12.642  14.065 -0.0566  0.2737  0.2054
34481W        W47895   7.682   5.361  12.115  0.3128 -0.3631  0.1803
34482W        W47896  11.845  17.613  15.060  0.2295  0.0367  0.0203
34483W        W47897  13.841  11.501   1.165 -0.2030  0.1072 -0.1330
34484W        W47898   6.755   9.393   1.498  0.1641 -0.2344  0.0360
34485W        W47899   4.672  17.985  10.915 -0.4017  0.0094  0.5333
34486W        W47900  11.821  17.597  15.660 -0.2122  0.1999  0.1635
34487W        W47901  14.535   9.629   1.411 -0.1340  0.2847  0.3368
34488W        W47902   1.556   2.171  10.623  0.0922  0.1060  0.0327
34489W        W47903   7.920   0.855   2.310  0.1242 -0.2811 -0.1265
34490W        W47904   3.020  14.633   0.270 -0.1398 -0.1850  0.2229
34491W        W47905   4.416   9.389   2.433 -0.2436  0.2487  0.0359
34492W        W47906  11.257   7.138   0.054 -0.0293 -0.3078  0.1214
34493W        W47907  15.892  11.863  15.205 -0.0820  0.2700  0.0725
34494W        W47908  10.759   5.092  12.631 -0.0093  0.0850  0.1019
34495W        W47909   2.754   9.406   4.107  0.0632  0.0262 -0.1368
34496W        W47910   3.871   6.906  14.201  0.0882  0.1398 -0.4962
34497W        W47911  12.574   5.840  10.447  0.1532 -0.0669 -0.2029
34498W        W47912  13.410   0.267  13.571  0.1621 -0.3731 -0.0933
34499W        W47913   3.340  11.475  11.326 -0.0033 -0.1530  0.1206
34500W        W47914  16.076   5.935   0.804 -0.1884  0.0447  0.3399
34501W        W47915   8.584   2.046  12.768 -0.0377  0.0610  0.2017
34502W        W47916  17.273   3.456  15.963  0.1338 -0.1271 -0.1598
34503W        W47917  12.163  18.088   0.349  0.0336 -0.1314 -0.1094
34504W        W47918  11.898   5.184  12.488  0.0196 -0.0522  0.3430
34505W        W47919  11.802   4.272  13.427 -0.0513  0.0374  0.2806
34506W        W47920   0.642   1.884  12.077 -0.1387 -0.4154  0.1276
34507W        W47921   5.072  11.681  12.498  0.1839  0.0786  0.1019
34508W        W47922  14.015  17.459  13.146  0.2540 -0.3411  0.0573
34509W        W47923  10.872  12.025   2.033  0.0368  0.2231 -0.0364
34510W        W47924   2.363  10.159   3.022  0.1464 -0.1246  0.0727
34511W        W47925   1.829  10.718   3.627 -0.2980 -0.0166  0.0436
34512W        W47926   5.757  11.401   4.440 -0.3253  0.1134 -0.1027
34513W        W47927  17.109  13.372  12.180  0.0440  0.0496  0.1988
34514W        W47928   4.408  15.115   5.266  0.2808  0.0425  0.0521
34515W        W47929   5.315   5.939  14.365  0.1514  0.0589 -0.1600
34516W        W47930   9.733   4.500  11.414  0.1799 -0.2047  0.0556
34517W        W47931   2.939   0.676  11.415 -0.3322  0.0121 -0.1776
34518W        W47932   1.061   5.312   2.581  0.1444 -0.1109 -0.1251
34519W        W47933  14.436  12.778  11.947 -0.2226  0.1625 -0.0779
34520W        W47934  15.439  11.681  12.884  0.4765 -0.2067  0.1558
34521W        W47935  17.929  13.649  11.759 -0.1628 -0.0418 -0.0577
34522W        W47936  12.688   0.585  13.028 -0.3156 -0.3609 -0.3593
34523W        W47937   9.181   1.617  15.886 -0.0231 -0.1722 -0.3662
34524W        W47938   0.867  11.568  15.443  0.0581 -0.0105  0.0914
34525W        W47939   1.901   0.206   0.085 -0.0354 -0.1485  0.0365
34526W        W47940  14.904  13.240   0.611 -0.3066  0.0718 -0.0462
34527W        W47941   1.033   2.347   1.177  0.2273 -0.1583 -0.1868
34528W        W47942  17.573  16.646   2.208 -0.1516  0.0533 -0.2627
34529W        W47943   6.475  15.730  15.622  0.0390  0.0260 -0.0153
34530W        W47944   1.734   8.170   4.516 -0.1343  0.1244 -0.2987
34531W        W47945  14.381   6.692  15.314 -0.0530 -0.1061  0.1509
34532W        W47946   5.735  18.029   3.155  0.3464 -0.1226 -0.0141
34533W        W47947  12.476  14.918   2.486 -0.0775  0.1677 -0.4257
34534W        W47948  15.543  16.558  13.113  0.0200  0.0030 -0.0441
34535W        W47949   6.748   1.032   4.123  0.1750 -0.0043  0.3418
34536W        W47950  16.990  14.806  13.693  0.3138 -0.1598  0.2564
34537W        W47951   2.998  10.239  15.134  0.2538  0.0613  0.1341
34538W        W47952  12.239   8.693   2.275 -0.3728  0.2608  0.0517
34539W        W47953   9.578   7.599  15.883 -0.3263  0.2992  0.4811
34540W        W47954  10.893  18.300  14.527  0.3430  0.2093  0.3182
34541W        W47955   0.309   6.712   2.408 -0.0802 -0.2925 -0.0132
34542W        W47956   2.063  12.712  10.104  0.1029  0.0764  0.0772
34543W        W47957   8.859   3.382   1.350 -0.1207 -0.0962  0.3962
34544W        W47958   6.742  14.867   2.996  0.0644 -0.2694 -0.3610
34545W        W47959   6.001  13.614  10.866  0.3872  0.0676 -0.1720
34546W        W47960   0.478   8.640   4.793 -0.0741 -0.2191 -0.0073
34547W        W47961  17.527   2.670   3.866 -0.1771 -0.1773 -0.0824
34548W        W47962   8.200  14.854   2.200 -0.0635  0.2047  0.0465
34549W        W47963   5.618   5.286  13.830 -0.1538 -0.3042 -0.1544
34550W        W47964   0.087   7.547   2.762  0.1092  0.0308 -0.1719
34551W        W47965  11.580   3.472   5.582  0.0567 -0.0257  0.2228
34552W        W47966  13.113   0.601  10.540 -0.0431 -0.1072 -0.3476
34553W        W47967   1.572  12.884   2.932  0.0246 -0.1692 -0.0158
34554W        W47968   0.611   5.473   2.423  0.0462  0.0785 -0.2317
34555W        W47969  12.364   1.321   3.369 -0.2365  0.0838  0.0342
34556W        W47970   2.683   5.289   6.102 -0.5252 -0.0958  0.0798
34557W        W47971   8.412   1.604   4.584  0.0845 -0.2843  0.0475
34558W        W47972  11.221  13.152   0.001  0.1425 -0.0313  0.3686
34559W        W47973  17.992   4.148   0.713  0.0489  0.4102 -0.1104
34560W        W47974   8.176   9.623   2.215  0.1750 -0.2425  0.1981
34561W        W47975  12.509  15.814  15.646 -0.1527 -0.0738 -0.0306
34562W        W47976   5.258   4.242   1.378 -0.2843  0.1271  0.1369
34563W        W47977  15.642  17.969  10.868  0.0007  0.0428  0.1769
34564W        W47978   0.835  11.760   1.362 -0.0226 -0.3309 -0.1654
34565W        W47979  16.853  16.066   3.236 -0.0280 -0.0790  0.0766
34566W        W47980  14.460  16.576   1.813  0.0664 -0.0124 -0.1413
34567W        W47981  17.731  11.698   5.956 -0.0818 -0.0166 -0.3138
34568W        W47982   1.813   7.168   4.449  0.4590  0.0049  0.5959
34569W        W47983  12.590   6.274  16.271  0.1446  0.3171 -0.0135
34570W        W47984   6.894  18.370  10.428 -0.5139 -0.0805  0.1613
34571W        W47985  17.874   3.072  14.285 -0.2791 -0.0262 -0.0302
34572W        W47986   3.413   8.404  11.291  0.0291 -0.0809  0.2153
34573W        W47987   4.470  10.452  14.519  0.0070  0.0347 -0.2168
34574W        W47988   2.803  16.735  15.771  0.1843  0.0683 -0.2265
34575W        W47989   5.824  15.096   1.965  0.2977 -0.1022 -0.1112
34576W        W47990   4.521   4.454   5.001  0.1001  0.0195 -0.0716
34577W        W47991   9.898   1.233  13.480  0.0122  0.1735 -0.0614
34578W        W47992   2.557   0.074   0.822  0.0169  0.0862  0.1316
34579W        W47993   5.827  17.967   0.243 -0.0926 -0.4452  0.1116
34580W        W47994  17.342   3.375  11.653  0.1670  0.0528  0.0329
34581W        W47995  16.489  18.255  13.313 -0.1579 -0.0523  0.1544
34582W        W47996   5.463   6.030  13.117  0.1047 -0.0759  0.3828
34583W        W47997  17.122  14.560   5.429  0.2263 -0.0558 -0.2199
34584W        W47998   7.520   8.738  16.097 -0.0449 -0.1862 -0.1524
34585W        W47999  10.472  13.724  15.649  0.0995  0.2392 -0.2527
34586W        W48000  17.170   1.629  13.156  0.0407  0.1020 -0.4047
34587W        W48001   2.597   7.356   3.942  0.0082 -0.0070 -0.1955
34588W        W48002   6.504   5.692   3.746  0.1013  0.0702 -0.0082
34589W        W48003   9.140   6.514  12.122  0.0477  0.1517  0.2409
34590W        W48004   8.580  14.540   0.509  0.0340 -0.1138 -0.1129
34591W        W48005   7.241  11.126  11.288 -0.0947 -0.1558 -0.0914
34592W        W48006   7.097  14.275  12.380 -0.2443  0.4095 -0.0123
34593W        W48007  18.064   6.383  14.770 -0.2066  0.1300  0.0991
34594W        W48008  18.202   6.642   2.357  0.0221 -0.0938 -0.2393
34595W        W48009   2.378  12.728   0.093  0.1355 -0.0404  0.2310
34596W        W48010   7.512  16.050   2.307  0.0012  0.0059  0.1414
34597W        W48011   1.525  17.697   1.326  0.2656  0.2610  0.0591
34598W        W48012   4.814  11.491   2.450  0.0979  0.0561  0.7583
34599W        W48013   7.136   7.038  13.451  0.0813 -0.3032 -0.0025
34600W        W48014  12.480   7.736  14.190 -0.1039 -0.0158  0.2548
34601W        W48015  10.256   3.789   6.134 -0.0635  0.2810 -0.0521
34602W        W48016   8.383  11.055  11.995  0.0153  0.2448 -0.1739
34603W        W48017  16.432   1.977  14.332 -0.2807 -0.2182 -0.2382
34604W        W48018  17.721  15.478   3.164  0.3003 -0.2298  0.0003
34605W        W48019   9.446  12.020  13.270 -0.1715  0.2475  0.3203
34606W        W48020   6.909   4.586   2.679 -0.1716  0.1530  0.2918
34607W        W48021  10.416  14.711  11.775 -0.4201 -0.2142 -0.1481
34608W        W48022  17.566  10.967  15.397 -0.1654  0.2253 -0.1037
34609W        W48023   2.060  11.057  11.836 -0.0138 -0.1480  0.1175
34610W        W48024   1.785  14.665  12.853  0.1808  0.0687  0.2144
34611W        W48025  13.302   5.793   3.987  0.0051 -0.1149 -0.1011
34612W        W48026   8.011  15.293  12.607 -0.1106  0.2599 -0.1659
34613W        W48027   6.685   2.857   5.044  0.1479 -0.2037 -0.0291
34614W        W48028  11.111  17.448   5.299 -0.0308 -0.0292  0.3593
34615W        W48029  17.083   8.241   6.017 -0.3407 -0.0409  0.0376
34616W        W48030   9.307   9.574   0.811  0.2683 -0.3419  0.4354
34617W        W48031   2.790  17.265  14.374 -0.0810  0.2202 -0.3596
34618W        W48032  11.090   9.750   5.815  0.1012 -0.1146 -0.1169
34619W        W48033   2.492  16.523  13.389  0.0929  0.0099 -0.3057
34620W        W48034  10.308   1.162  11.519  0.3952 -0.1032  0.0275
34621W        W48035   9.645   3.786   5.594 -0.3859 -0.0320 -0.3403
34622W        W48036  11.307  17.118  12.173  0.1690  0.1235  0.2056
34623W        W48037   7.668  12.101  11.147 -0.1083 -0.0715 -0.0371
34624W        W48038  13.545  11.236   4.265 -0.3137 -0.5114 -0.2862
34625W        W48039  14.279   9.596  11.763  0.0297 -0.1039 -0.0263
34626W        W48040   3.571   2.646   1.456 -0.1728 -0.0241 -0.0478
34627W        W48041   4.279  14.805  14.638  0.2127  0.0393  0.2586
34628W        W48042   5.737  15.632  13.860 -0.1976  0.0566 -0.0854
34629W        W48043  11.658   9.554  15.092  0.3042 -0.4880  0.1581
34630W        W48044   7.841   4.894   4.827 -0.3314 -0.0326  0.0067
34631W        W48045  14.226   8.671  11.902 -0.1613  0.1253  0.0090
34632W        W48046  17.284   5.541   4.559 -0.3090 -0.0752  0.0618
34633W        W48047  12.317  15.812  10.591 -0.0161  0.1039 -0.0556
34634W        W48048   8.639  17.665  14.080  0.2644 -0.2865  0.2744
34635W        W48049  13.836   1.051   4.916 -0.1198 -0.1726  0.0455
34636W        W48050   8.623   7.986  11.935 -0.1246  0.0934 -0.0826
34637W        W48051   9.219   2.866  12.574  0.1796  0.1068 -0.4083
34638W        W48052   8.024   6.325  14.646 -0.0429 -0.3598 -0.2187
34639W        W48053  10.361   1.432  13.445 -0.4117 -0.0577 -0.2459
34640W        W48054  17.351   4.383   4.749  0.1940 -0.1493 -0.1503
34641W        W48055   3.666  17.720   5.336  0.0327 -0.0395 -0.3688
34642W        W48056  15.449  13.040  14.397 -0.0834  0.2576 -0.3931
34643W        W48057  10.042  17.721   9.785 -0.1798  0.3229  0.2794
34644W        W48058   2.856   0.478   1.832 -0.2350 -0.0518 -0.3899
34645W        W48059   2.986   4.405   2.401 -0.1621  0.0564  0.0989
34646W        W48060   8.841   2.136   1.795  0.2774  0.1960  0.1671
34647W        W48061   6.502  15.468  10.587 -0.2546  0.2062  0.0123
34648W        W48062   7.450   6.162  13.027 -0.4166 -0.1597 -0.0732
34649W        W48063  11.415   5.105  15.255  0.0207 -0.0749 -0.0662
34650W        W48064   4.188  11.058   1.627 -0.0061 -0.0241 -0.2171
34651W        W48065  13.376  13.680  14.660 -0.3523  0.0854  0.0093
34652W        W48066   5.748   3.050   1.903  0.2090 -0.0510 -0.0206
34653W        W48067  12.785   5.679   3.832  0.0363 -0.1809 -0.0077
34654W        W48068   6.996  16.779   4.634  0.0279  0.0614  0.1670
34655W        W48069  16.943  12.453  11.765 -0.0401  0.2865 -0.3293
34656W        W48070   1.406   5.549   2.176 -0.1446 -0.0301 -0.3936
34657W        W48071  16.822  13.992  13.805  0.0387  0.1942  0.2046
34658W        W48072   6.948  14.136  11.487  0.3815  0.1509 -0.1286
34659W        W48073   6.210   6.928   3.126  0.2297  0.0803  0.0416
34660W        W48074  12.386  15.669  13.913 -0.3201  0.1531  0.1422
34661W        W48075  13.344  16.086  11.658 -0.1598  0.0406  0.0145
34662W        W48076  16.783  14.992  10.846 -0.0762  0.1783  0.2199
34663W        W48077   5.045  11.180   2.999  0.1283 -0.0442 -0.0563
34664W        W48078  14.376   8.184   9.764  0.1934 -0.0964 -0.0626
34665W        W48079   7.155   9.196   3.536 -0.0521  0.0354 -0.1296
34666W        W48080  16.361  12.226  16.064  0.1619 -0.2509  0.2630
34667W        W48081  15.594  17.183   5.635 -0.0032 -0.2107  0.0875
34668W        W48082  14.363   2.077   4.711 -0.2592 -0.1753  0.0597
34669W        W48083   6.877  18.402   1.156 -0.2455  0.0995 -0.0366
34670W        W48084   8.652  14.688  12.757  0.1356 -0.3755  0.1155
34671W        W48085  16.076  14.445  15.585  0.1724  0.1212  0.1679
34672W        W48086  16.947   3.933  11.696 -0.0257 -0.1181  0.1617
34673W        W48087   2.259   1.156   3.956  0.2177  0.1849  0.3009
34674W        W48088  17.939  18.342   1.893  0.1321 -0.2932  0.0040
34675W        W48089   7.590  13.160   3.788 -0.1081 -0.2593 -0.1955
34676W        W48090   4.395   5.650   0.674  0.4298 -0.0480  0.2598
34677W        W48091   4.139   3.260  15.558  0.2712 -0.1142  0.0341
34678W        W48092   6.834   9.226  12.955 -0.1403  0.1154 -0.0051
34679W        W48093  15.201   4.994   3.132  0.4258  0.0217  0.1682
34680W        W48094  13.176  16.707  10.993 -0.2056 -0.0264  0.2110
34681W        W48095  16.838  12.392  15.317  0.3045  0.1169 -0.0388
34682W        W48096   2.603  15.396   3.621 -0.1161  0.2837 -0.0624
34683W        W48097  13.832  10.422  11.115 -0.0365 -0.0172  0.0577
34684W        W48098  13.234   5.332   3.748  0.4236 -0.1509  0.1773
34685W        W48099   3.372  12.162   1.736 -0.0938 -0.0337  0.2428
34686W        W48100   4.327  10.152   4.419 -0.2536  0.0080  0.0784
34687W        W48101  15.606   4.556   6.082 -0.1793 -0.2821 -0.1682
34688W        W48102   1.842   4.098  14.529 -0.0638 -0.0528  0.3438
34689W        W48103   9.859   3.317   5.619 -0.2415 -0.0479 -0.0928
34690W        W48104  14.769   8.892  14.279  0.1716 -0.1172 -0.1254
34691W        W48105   6.808  12.019  14.429  0.1004 -0.3035 -0.0988
34692W        W48106   2.789   5.923   4.332  0.2714  0.0582  0.0450
34693W        W48107  16.708   0.685   9.815 -0.1078  0.0057  0.1064
34694W        W48108   8.943  11.788  12.112 -0.0837  0.2274  0.0940
34695W        W48109  10.771  11.465  13.797  0.1606  0.1712  0.0021
34696W        W48110   2.816   0.791   5.220  0.0306  0.2529 -0.1510
34697W        W48111   7.455   7.559   5.299 -0.3050 -0.0976  0.0873
34698W        W48112   8.702   8.974  11.763 -0.2594  0.1787  0.0077
34699W        W48113   9.979  14.163  16.199  0.0274  0.0311 -0.1571
34700W        W48114   8.751  17.386   2.346  0.2226  0.1519  0.3243
34701W        W48115   9.821   5.235   2.342 -0.1442  0.0204 -0.0679
34702W        W48116   5.217  16.140   4.920 -0.2748  0.0296  0.0755
34703W        W48117  16.730   8.525   3.315  0.0553 -0.1277  0.0767
34704W        W48118   2.941   6.650   1.105 -0.0983  0.4114  0.3507
34705W        W48119   2.088   8.950   1.481  0.1859 -0.1383 -0.1681
34706W        W48120  16.927   1.240  14.216  0.1113  0.1277 -0.0460
34707W        W48121  13.133  15.460  13.354 -0.1539  0.0125 -0.1396
34708W        W48122  12.492  10.445   2.807  0.1630 -0.0041  0.2003
34709W        W48123   3.335   7.439  11.121 -0.1396  0.0586 -0.3078
34710W        W48124   4.527   3.228  16.019  0.1588  0.1663  0.1604
34711W        W48125   9.750  10.905   5.100 -0.1982 -0.1816  0.1744
34712W        W48126   4.398  16.897  11.425  0.0383 -0.2181 -0.1679
34713W        W48127  18.032   9.666  11.993 -0.0891 -0.1517 -0.0695
34714W        W48128   7.311   2.337   1.811  0.1515 -0.1134  0.2460
34715W        W48129   5.479  11.330  11.613  0.0271  0.0123  0.3747
34716W        W48130  15.241  14.924  12.382 -0.0746  0.1281  0.3190
34717W        W48131   0.166  18.017  15.184 -0.0257 -0.0424  0.0576
34718W        W48132  13.638  11.094  15.503 -0.1650  0.1989 -0.0488
34719W        W48133  15.563   4.635   5.133 -0.0214  0.0305  0.0449
34720W        W48134  17.143   2.173  11.374  0.1950  0.1969  0.0259
34721W        W48135   8.686  13.926   3.544 -0.1662 -0.0038 -0.0374
34722W        W48136   9.641  10.856  12.765 -0.0072  0.2338  0.3888
34723W        W48137  14.181   9.315   5.302  0.2371 -0.1296  0.0597
34724W        W48138   3.272   4.887  15.430 -0.3666  0.0423  0.1159
34725W        W48139   5.737   8.027   2.720 -0.0527 -0.0494 -0.1349
34726W        W48140   6.006  18.105   1.680  0.1254  0.0051  0.1496
34727W        W48141   3.788  14.353   5.153  0.0346 -0.1097  0.2248
34728W        W48142   6.982   1.019  10.544  0.0619 -0.2075  0.2801
34729W        W48143   8.643   2.053   3.026 -0.1013 -0.0208  0.4347
34730W        W48144   8.487  15.492  13.785  0.3596  0.0628 -0.1765
34731W        W48145  18.034   4.647  14.249  0.1339  0.3897  0.1106
34732W        W48146  11.878  12.464  15.628 -0.2636 -0.1135  0.2311
34733W        W48147  15.220  14.523  10.516 -0.1265  0.0387 -0.0773
34734W        W48148   4.089   6.208  10.858  0.1249 -0.0806 -0.1701
34735W        W48149  14.108   8.008   3.448  0.0124 -0.2727 -0.1784
34736W        W48150  10.820   1.336  13.370  0.0044  0.0385  0.1581
34737W        W48151   6.015  15.208  10.738 -0.1981 -0.2844 -0.0120
34738W        W48152   2.109   7.794   9.967 -0.2772  0.0784  0.0950
34739W        W48153  10.424   5.033   0.063  0.2180 -0.0901  0.0360
34740W        W48154   3.569   7.360  15.506  0.3467 -0.2041 -0.0755
34741W        W48155  10.089   0.064  15.511  0.0032  0.0096 -0.0352
34742W        W48156  15.385  12.587  11.226  0.1036  0.0517  0.2817
34743W        W48157   3.622   7.272   2.331 -0.0520  0.0247  0.2571
34744W        W48158   8.598   3.254  13.322 -0.2515  0.2767 -0.1676
34745W        W48159  12.859   0.134  12.900  0.4643 -0.1977 -0.0198
34746W        W48160  15.470  11.031  12.944 -0.3530 -0.1305  0.3076
34747W        W48161   5.583  14.507   9.983 -0.3082  0.1610  0.1426
34748W        W48162  11.306   5.407   3.023 -0.1530  0.1679  0.0786
34749W        W48163  13.829  15.043  15.388 -0.4437  0.0345 -0.0557
34750W        W48164  14.645  17.132   4.912  0.1661  0.1230 -0.0582
34751W        W48165   1.962   6.528  15.175 -0.0614  0.1548 -0.0196
34752W        W48166  10.229  13.075  10.205  0.1077 -0.2148 -0.3014
34753W        W48167   4.316   8.084  11.783 -0.0820 -0.2444 -0.1308
34754W        W48168  13.458  10.449   5.254  0.3807 -0.0234 -0.1377
34755W        W48169  10.467  15.061   3.524  0.1305 -0.1452  0.0653
34756W        W48170   9.407  15.631  12.930 -0.0500 -0.0085 -0.0332
34757W        W48171   9.620   3.803   3.006  0.0002 -0.2298  0.0340
34758W        W48172   7.995   0.698  10.840  0.0389  0.1270  0.4039
34759W        W48173  11.940   7.318  15.068 -0.0251  0.0244 -0.0274
34760W        W48174  10.868  10.051   4.552  0.1898  0.4402  0.1055
34761W        W48175   4.610   7.702   1.136  0.0100  0.1075 -0.0727
34762W        W48176   6.458   8.912  13.697  0.1618 -0.1163  0.1319
34763W        W48177  12.447  17.739   5.171 -0.1231 -0.1036 -0.0258
34764W        W48178  18.352  17.003   1.228 -0.1847 -0.0204 -0.0536
34765W        W48179  16.325   2.464  12.644  0.3565  0.2903  0.2359
34766W        W48180   0.467  15.842   1.654  0.0299  0.0724 -0.0329
34767W        W48181  11.511   7.959   1.349  0.0756  0.0705 -0.3013
34768W        W48182   7.673  18.046  11.228  0.2233  0.0441 -0.0269
34769W        W48183   5.040  10.263   3.925 -0.0067  0.1016  0.0937
34770W        W48184   1.633   5.879   3.123 -0.0633  0.2754 -0.0724
34771W        W48185   9.029   8.511   5.794  0.0064 -0.1446 -0.1187
34772W        W48186   4.562   9.832  16.240  0.0919  0.1632  0.0912
34773W        W48187   4.215   9.586  15.311 -0.1475 -0.1422  0.0687
34774W        W48188  11.008   6.691   2.573 -0.1617 -0.0085  0.3451
34775W        W48189   8.410  14.317   3.687 -0.0023 -0.1822 -0.0610
34776W        W48190  17.777  13.716  15.372  0.0113  0.1192 -0.0174
34777W        W48191  11.162   3.156  10.281  0.2223  0.2001 -0.0748
34778W        W48192   4.825  16.603   0.829 -0.0094  0.4350 -0.2352
34779W        W48193  17.817   1.493  11.808 -0.0293  0.0658  0.1142
34780W        W48194   0.752   2.554   6.593 -0.1576  0.0717  0.4587
34781W        W48195  11.518  10.863   2.791 -0.0713  0.0097  0.2398
34782W        W48196   1.210   4.305   3.004 -0.2108  0.0679 -0.2506
34783W        W48197  11.383   5.272   6.908 -0.2477  0.1812 -0.0904
34784W        W48198   1.169   5.771  12.010 -0.1566 -0.0251 -0.2821
34785W        W48199   8.989  13.952  16.087  0.2488  0.0519  0.1451
34786W        W48200   7.784   4.960  13.824  0.0226 -0.4658  0.3754
34787W        W48201   6.295   0.562  11.315  0.3296 -0.0958 -0.2916
34788W        W48202   3.405   8.988   5.223 -0.0581 -0.3062 -0.0248
34789W        W48203  17.177   4.880  11.663 -0.3968  0.1244 -0.2677
34790W        W48204  17.563  15.170  13.165 -0.1767 -0.1170  0.0397
34791W        W48205   9.895   1.440  11.527 -0.2229 -0.0186  0.1172
34792W        W48206   0.574   8.559   3.751  0.0640  0.2253 -0.1370
34793W        W48207   7.681   1.835  10.432  0.0597  0.1288 -0.3211
34794W        W48208  10.918  11.495  15.780  0.0697  0.1055  0.1122
34795W        W48209   9.972  12.444   0.546 -0.0403 -0.1124 -0.0091
34796W        W48210  11.258   0.730   3.042 -0.0375  0.1127  0.2266
34797W        W48211   7.377   3.315   0.358 -0.0779 -0.2398 -0.0916
34798W        W48212   7.702  10.734   4.440  0.3023 -0.0071 -0.0278
34799W        W48213  13.720   5.636   2.345  0.0175  0.3150  0.5654
34800W        W48214  15.245  12.751   1.689 -0.1375  0.1163  0.1602
34801W        W48215   7.746   6.780   4.446  0.0333  0.0875  0.3075
34802W        W48216   1.241  15.588   0.342  0.1700 -0.3197  0.0295
34803W        W48217  15.550   9.655   1.023 -0.0664  0.0139  0.3223
34804W        W48218   7.509  17.832  12.456  0.1726 -0.1538  0.2223
34805W        W48219  13.246  13.108  10.800  0.0347  0.0024  0.2329
34806W        W48220   1.555   6.158  11.279  0.2126  0.2427 -0.1381
34807W        W48221  17.010  11.696   1.740  0.1732 -0.0135 -0.0443
34808W        W48222  10.690  12.074   0.145  0.1125 -0.4367 -0.1074
34809W        W48223   5.375   1.724  12.548  0.0515 -0.0509  0.0018
34810W        W48224  14.170  10.007   4.699  0.0739  0.1344 -0.0791
34811W        W48225  10.467  12.838  10.605  0.0227  0.0622  0.0746
34812W        W48226  17.470  10.826   3.505 -0.1363  0.1903 -0.0655
34813W        W48227  11.659   9.814   3.819  0.2168  0.0794 -0.0490
34814W        W48228   5.694  10.379   0.105  0.0334  0.4917  0.0042
34815W        W48229  10.705  10.140  15.749  0.0438 -0.2073  0.4042
34816W        W48230  14.930  17.441  14.630 -0.1089  0.1790 -0.1890
34817W        W48231   5.825   8.486   5.338 -0.1890  0.2142 -0.1733
34818W        W48232  10.284   4.871  15.375 -0.0648 -0.1668  0.1135
34819W        W48233   5.378   0.698   2.072  0.0967  0.3748  0.0447
34820W        W48234   9.686  17.099   2.290  0.0668  0.1330 -0.2970
34821W        W48235  13.747  16.891  14.960  0.3385 -0.1527  0.2142
34822W        W48236  11.394  12.338  10.679 -0.0556 -0.0993 -0.0082
34823W        W48237  17.031   2.795   5.548 -0.2015 -0.0678  0.0448
34824W        W48238  11.330  11.620  13.839  0.2099  0.2465  0.0542
34825W        W48239   2.611   0.751   4.714 -0.0647  0.1962  0.0071
34826W        W48240   7.310  12.506  13.339  0.0727  0.0463  0.1323
34827W        W48241  13.774   5.292  12.357  0.0914  0.2075  0.2298
34828W        W48242  13.997   7.368  12.895  0.2452  0.0928  0.0704
34829W        W48243  11.857   6.947   3.113 -0.0461 -0.0486 -0.1717
34830W        W48244   3.099   0.296  11.020  0.2339  0.1416  0.1029
34831W        W48245   9.249  16.091  15.274  0.0241 -0.0925 -0.1218
34832W        W48246   3.863  18.296   6.191  0.1483  0.5829 -0.3773
34833W        W48247  14.743   0.270   5.160 -0.0019  0.0188  0.1395
34834W        W48248   6.250   0.431   0.669  0.0076 -0.1777  0.3700
34835W        W48249   9.776   4.379   0.705 -0.2695  0.0472 -0.0233
34836W        W48250   8.693   2.250   6.300 -0.2790 -0.2033 -0.0948
34837W        W48251   0.187   5.902   0.301  0.0256  0.0948 -0.2014
34838W        W48252   3.933   8.022   0.640 -0.1621  0.1314  0.0886
34839W        W48253   3.741   6.418  10.590 -0.0663 -0.2351 -0.0948
34840W        W48254   2.494  17.446   3.664 -0.2811 -0.0093  0.0447
34841W        W48255   7.873   0.810  13.826 -0.1900 -0.1122  0.2145
34842W        W48256   4.836   3.893  14.961 -0.2137  0.1050  0.2545
34843W        W48257  14.667   5.987  14.710 -0.0551  0.0338  0.0495
34844W        W48258  10.127   1.112  11.016  0.1392  0.1197 -0.0835
34845W        W48259  12.605   7.131   0.162  0.2761 -0.2121 -0.1404
34846W        W48260  13.659  16.390  15.263 -0.0703 -0.0036 -0.0926
34847W        W48261  11.881   0.942  12.237  0.2105  0.2162  0.2721
34848W        W48262   0.813   4.473  10.915  0.0504 -0.0133  0.1242
34849W        W48263  18.342   6.482   4.943 -0.0038 -0.3294  0.2591
34850W        W48264   8.404   9.507   5.371  0.0955 -0.1853 -0.0228
34851W        W48265  14.895  15.049  14.071 -0.3160 -0.2253  0.0264
34852W        W48266   1.309  16.989  13.351  0.0662  0.3180  0.2687
34853W        W48267   0.548  12.939   6.074 -0.0299 -0.1092 -0.0101
34854W        W48268  10.888  13.096  12.174  0.2291 -0.3075  0.0788
34855W        W48269   7.764  16.861  12.684 -0.0661 -0.1575 -0.1467
34856W        W48270  15.759  17.003   0.310  0.0814  0.0245 -0.1616
34857W        W48271  13.119   1.500   2.242  0.1722 -0.0795 -0.0706
34858W        W48272   4.533  17.823  15.710  0.1600  0.3008  0.0737
34859W        W48273   2.666   8.559  11.578 -0.0254 -0.0972 -0.1809
34860W        W48274   4.486  12.283  11.425  0.2801  0.1280 -0.0399
34861W        W48275  13.380   2.914  13.340 -0.3366 -0.0795 -0.2898
34862W        W48276  14.301  10.003  15.632 -0.0793 -0.3501 -0.1866
34863W        W48277   3.093   5.156   4.683 -0.0853  0.0261 -0.0168
34864W        W48278   7.155   8.262   0.617 -0.3350 -0.0975 -0.0626
34865W        W48279  17.101   0.347   4.478  0.0059 -0.0371 -0.1852
34866W        W48280   9.348   2.089   0.137  0.0073 -0.2197 -0.3513
34867W        W48281  11.273   4.239  14.080 -0.0294 -0.0917  0.0059
34868W        W48282  17.954   6.632   4.738  0.1067  0.0968  0.2859
34869W        W48283  13.595  10.459   5.762 -0.0561  0.3440  0.0594
34870W        W48284  18.401   0.900  10.781 -0.3031 -0.1596  0.2750
34871W        W48285  11.484   1.916   2.124 -0.0474 -0.2049 -0.2721
34872W        W48286  14.798   1.873  13.383 -0.4166 -0.0513 -0.0162
34873W        W48287  10.960   3.424  13.041 -0.0181 -0.0884  0.0683
34874W        W48288  12.647   8.253  15.482 -0.0473  0.0637 -0.1002
34875W        W48289  15.846  17.474   3.651 -0.1732 -0.1190 -0.1516
34876W        W48290  10.403  11.365  15.758 -0.0882  0.1804  0.0475
34877W        W48291   1.891   3.045   6.116  0.2510  0.3042  0.0185
34878W        W48292   0.701   0.692  16.060 -0.0233 -0.1360  0.2779
34879W        W48293  17.752   6.826  11.563  0.0799  0.1420 -0.1542
34880W        W48294   9.018   7.320   2.876  0.1054  0.0259  0.1159
34881W        W48295  17.419  14.647  11.690  0.1700 -0.0885  0.3114
34882W        W48296   7.168  17.006  12.253 -0.0901 -0.0579 -0.5791
34883W        W48297   0.962   5.714   2.156 -0.1636 -0.1834 -0.2620
34884W        W48298   5.828   7.044  11.448  0.2052  0.0806 -0.1810
34885W        W48299  13.267  16.868   0.819 -0.2642 -0.4217 -0.0282
34886W        W48300   9.781  11.822   3.514 -0.0137 -0.0638  0.0036
34887W        W48301   5.970   9.258  10.331 -0.1932 -0.1758  0.2714
34888W        W48302  15.020   5.182   4.556 -0.1903 -0.1346  0.1375
34889W        W48303   5.240   8.333  14.458  0.3320  0.1169  0.0365
34890W        W48304  10.800   1.656  12.554  0.0055 -0.1289  0.2519
34891W        W48305  10.523   2.782  15.052  0.1240 -0.0295  0.2072
34892W        W48306  12.550   7.872   2.394  0.2090  0.0657 -0.1051
34893W        W48307  10.240   3.767  15.161 -0.0037  0.2002 -0.0989
34894W        W48308   8.979  16.189  14.864  0.2134 -0.0950  0.1310
34895W        W48309   7.046   4.887   4.320  0.3057 -0.2366 -0.2403
34896W        W48310   2.560  11.880  11.961 -0.1045  0.0644  0.1781
34897W        W48311   7.194  14.845   3.446 -0.3716 -0.3268 -0.0243
34898W        W48312  16.460  16.198   2.287  0.3559  0.0941  0.1528
34899W        W48313  16.687  17.977  14.056  0.2817 -0.3171  0.1155
34900W        W48314  16.128  10.763   4.604  0.1552 -0.0193  0.1287
34901W        W48315   3.879  18.115   0.297  0.0110  0.0930  0.0092
34902W        W48316   9.989   5.742   5.953 -0.1506 -0.1203 -0.1716
34903W        W48317   1.342  15.443  10.694  0.1942  0.0663  0.0840
34904W        W48318  16.273  16.253  13.600  0.0045  0.2237 -0.1968
34905W        W48319  12.696  14.856  12.656 -0.1624  0.2617  0.0076
34906W        W48320  12.560  11.473   1.713 -0.2012 -0.0165 -0.2807
34907W        W48321  11.673  16.825  11.273  0.0168 -0.0932 -0.0550
34908W        W48322   3.314  13.215  13.321  0.0404 -0.0539  0.1131
34909W        W48323   7.599   8.893  11.822  0.3924  0.3638  0.1723
34910W        W48324  17.403  12.293  12.023  0.2883 -0.1742 -0.0592
34911W        W48325  15.874   7.481   3.774  0.1953  0.0642 -0.1019
34912W        W48326  14.982   2.054  15.996 -0.2203  0.2259 -0.1421
34913W        W48327  13.676  17.245   0.833  0.2025 -0.2238  0.0275
34914W        W48328   8.156  10.102  14.771  0.0314 -0.2259 -0.1976
34915W        W48329   9.858  16.314   3.082  0.0111 -0.2083  0.2192
34916W        W48330   3.068   9.651  15.367 -0.0275  0.1956  0.2247
34917W        W48331   0.650   4.813  11.824  0.2886  0.3496  0.0248
34918W        W48332   7.868  10.175  12.463  0.2350  0.2707  0.0925
34919W        W48333   1.908  10.574   2.216 -0.0045 -0.2749 -0.1957
34920W        W48334  15.657  13.588  11.329  0.0571  0.1314  0.0591
34921W        W48335   3.188   3.534  15.722 -0.0143 -0.1258  0.0761
34922W        W48336  16.821  11.039  12.615  0.1116 -0.2020 -0.1414
34923W        W48337  15.548   9.578  13.813 -0.1025 -0.0192 -0.2216
34924W        W48338   1.938  10.296  10.738  0.3220  0.2612 -0.2683
34925W        W48339   0.647   9.415   3.133 -0.2085 -0.0367 -0.0204
34926W        W48340   3.625   5.403  15.679 -0.3111 -0.0173  0.3213
34927W        W48341   4.989  16.263   2.699  0.0635 -0.3647  0.2857
34928W        W48342   9.751   3.425   0.420  0.1534  0.1363 -0.0572
34929W        W48343   6.465   7.059  11.981  0.0745  0.1854 -0.2430
34930W        W48344  13.435  17.836   5.431 -0.1946  0.1994  0.0825
34931W        W48345  11.524  10.017  10.950 -0.4200 -0.1466 -0.1244
34932W        W48346  14.356  14.267  11.220  0.0022 -0.1306 -0.0562
34933W        W48347   1.127   6.327   3.946 -0.0266  0.2047  0.1975
34934W        W48348   5.724   9.799  14.673  0.1096  0.0749  0.1181
34935W        W48349  12.688   8.568   1.467  0.2843  0.1476 -0.0219
34936W        W48350  17.360  17.933  15.328 -0.0478  0.2675 -0.3437
34937W        W48351  11.551   4.791   0.509 -0.1413 -0.0591 -0.0811
34938W        W48352  15.703  15.483  10.566  0.0386  0.2418  0.0088
34939W        W48353  14.620  13.122  13.670 -0.0681  0.4175 -0.2914
34940W        W48354   3.397  11.498  11.859 -0.1793 -0.0033  0.0965
34941W        W48355  10.718  12.915   0.070 -0.1658  0.0873  0.0963
34942W        W48356   2.632  18.394  13.229 -0.0756 -0.1328 -0.0592
34943W        W48357  14.936   7.267   6.037  0.2923 -0.3577  0.0655
34944W        W48358  10.750  12.340   1.125  0.2129  0.0745 -0.0252
34945W        W48359   4.896  16.006  10.716  0.0303  0.1731  0.0229
34946W        W48360   4.225  10.938  10.922 -0.2311  0.2024  0.2900
34947W        W48361   0.393  18.094   5.327 -0.0519  0.1619 -0.3800
34948W        W48362   8.940   4.455   5.529 -0.1147  0.2718 -0.1416
34949W        W48363  14.787   3.081   2.193  0.0961 -0.0692 -0.1488
34950W        W48364   7.300  17.143  12.818  0.1971  0.1188  0.0123
34951W        W48365   0.797   1.897  11.576  0.0525 -0.2128 -0.2399
34952W        W48366  10.094   6.072  13.305 -0.0793  0.1151  0.0620
34953W        W48367   4.436   1.810  12.648 -0.2665 -0.1213 -0.1551
34954W        W48368   9.354  15.971   4.751 -0.1408  0.0265  0.2947
34955W        W48369   5.176   6.827   0.932 -0.4090  0.2492  0.2278
34956W        W48370   7.629  17.506  14.927 -0.0490  0.2050 -0.1175
34957W        W48371  13.514  13.887   4.938 -0.0423  0.2272  0.0742
34958W        W48372   3.931  12.937   0.026  0.2274  0.1642  0.0733
34959W        W48373   2.592  16.914  11.606 -0.0377 -0.3004 -0.2293
34960W        W48374   6.343   1.906  11.998  0.3294 -0.0129  0.2524
34961W        W48375   8.219  14.808   1.224  0.2806 -0.3158 -0.0347
34962W        W48376  12.150  10.022  15.719 -0.0396 -0.0372  0.1837
34963W        W48377   9.759  11.364   4.768  0.5076 -0.1793 -0.0095
34964W        W48378  17.767   4.617   2.612  0.2480  0.4551  0.3844
34965W        W48379   0.393   5.711   5.067 -0.1987 -0.0194 -0.1344
34966W        W48380   4.396  15.158   2.977 -0.2761  0.1265  0.1607
34967W        W48381  12.063  18.258  11.276  0.0837 -0.0772  0.1759
34968W        W48382   8.930   1.694   3.962 -0.0605  0.0803  0.0895
34969W        W48383  18.062   9.147   0.240 -0.0813 -0.0649  0.1369
34970W        W48384   2.472  11.759  12.506 -0.3538  0.3328  0.0247
34971W        W48385  13.183  15.120  12.984  0.0864 -0.2953 -0.0166
34972W        W48386   1.653   2.954  11.435 -0.0463 -0.3911  0.2464
34973W        W48387  10.829   7.885  11.909  0.0641  0.1410 -0.1634
34974W        W48388  13.716  10.685  11.504  0.1492  0.0300  0.1672
34975W        W48389  15.134   6.321   0.175  0.0405 -0.3522  0.0397
34976W        W48390   8.643   8.889  13.863  0.2114  0.0976 -0.0469
34977W        W48391   2.705  10.421   2.697  0.1227 -0.0052 -0.0294
34978W        W48392  12.849  10.275   2.433  0.1997  0.5198 -0.0918
34979W        W48393  16.094  17.423  12.740  0.1680 -0.2249  0.0252
34980W        W48394   0.792   2.958   2.822  0.1523  0.1752 -0.4539
34981W        W48395  14.279  16.831  14.154  0.1272  0.2170  0.1176
34982W        W48396  16.267   7.508   0.487  0.1046 -0.0479  0.0273
34983W        W48397   9.061  16.571   4.923 -0.0262  0.0780 -0.2334
34984W        W48398  13.560   2.295  15.361  0.2138 -0.3222  0.0241
34985W        W48399   1.970  12.221   3.601  0.1553  0.0463 -0.0276
34986W        W48400  16.012  10.923  15.639  0.1362  0.0902 -0.0995
34987W        W48401   6.595  11.806   3.673  0.0490 -0.1170 -0.4040
34988W        W48402  17.296   9.315   4.015 -0.1279 -0.1331 -0.1320
34989W        W48403   2.953  11.417  12.104 -0.0313 -0.2592 -0.1852
34990W        W48404   7.422   1.189  10.808 -0.0257  0.1519 -0.0564
34991W        W48405  16.360  12.163   6.236 -0.1554  0.1666 -0.0511
34992W        W48406  12.533  10.007  12.533 -0.2473  0.2550  0.0197
34993W        W48407   8.650   2.651   1.745  0.3519  0.2014 -0.1583
34994W        W48408   8.908   5.369   1.245 -0.1949  0.2551  0.0150
34995W        W48409  12.095  10.037   3.445 -0.2047 -0.1150  0.2281
34996W        W48410  16.665   8.123  15.928 -0.1011  0.0619  0.1747
34997W        W48411  18.445  18.429   2.034 -0.1904  0.1567  0.0557
34998W        W48412  12.631  15.067  11.559 -0.0556 -0.0894 -0.0150
34999W        W48413  13.871  18.351   4.196 -0.1580 -0.0528  0.0328
35000W        W48414  13.347  11.749  15.766 -0.0186  0.2656 -0.2489
35001W        W48415  13.749  10.513  15.822 -0.0210  0.0515  0.3004
35002W        W48416  14.251   4.882   3.059 -0.0247 -0.0516 -0.1192
35003W        W48417   1.419   0.680   5.867  0.0461  0.2039 -0.0361
35004W        W48418   8.199   1.802  13.444  0.2129 -0.3571  0.2992
35005W        W48419  11.817  11.277   2.256 -0.0968  0.1925 -0.2169
35006W        W48420  17.262  16.612  11.493  0.0182 -0.1109  0.0140
35007W        W48421  14.434   6.558   0.462 -0.1370 -0.2890  0.0764
35008W        W48422  11.212  14.381   5.858  0.2438  0.3619 -0.2942
35009W        W48423   1.802   6.871   0.237 -0.0512  0.0293  0.3580
35010W        W48424  10.780   4.398  10.841  0.3331  0.3281 -0.1197
35011W        W48425  16.395   8.598   1.431  0.2946 -0.2374  0.1255
35012W        W48426   6.099   7.947   0.957  0.4482 -0.0024 -0.2632
35013W        W48427  15.716   5.979   6.150  0.2447  0.1449  0.3229
35014W        W48428   5.529  11.039  13.881  0.1034 -0.1404  0.0310
35015W        W48429   7.829  11.210   4.580 -0.4056  0.2233  0.0199
35016W        W48430  11.271  14.101   1.026 -0.0470  0.2821 -0.1301
35017W        W48431  10.321   0.518   2.340 -0.1842 -0.0806  0.0848
35018W        W48432  11.965   6.395   4.805 -0.1262  0.2545 -0.1553
35019W        W48433   8.586   1.213   4.951  0.0513  0.1118  0.0921
35020W        W48434   5.280   7.358  13.660  0.1164  0.1331  0.1374
35021W        W48435   7.987  15.499  16.032 -0.0408  0.3381 -0.0735
35022W        W48436   4.891   3.585  15.572 -0.0448  0.0280  0.1023
35023W        W48437   9.040   8.827  13.318 -0.1421 -0.1195  0.0717
35024W        W48438  14.404   8.613  15.260  0.2683  0.1383 -0.1590
35025W        W48439  11.923   3.279   3.188  0.0281  0.0070 -0.0967
35026W        W48440   5.501  14.764  14.587  0.0296  0.0858  0.0475
35027W        W48441   9.130   1.636  11.577  0.2074  0.1458  0.0391
35028W        W48442   0.025  11.469   2.414 -0.3368 -0.0902 -0.1342
35029W        W48443   2.757   7.405  15.162 -0.0223  0.0683 -0.3506
35030W        W48444   9.992   4.075  15.545 -0.1212 -0.0248  0.1939
35031W        W48445  16.715   2.525   1.152 -0.1269  0.2119 -0.2406
35032W        W48446   0.566  12.570   1.028 -0.1727  0.2382 -0.0658
35033W        W48447   8.535   4.844   5.568  0.1909 -0.1423 -0.0303
35034W        W48448   4.185   0.174   2.959  0.0891 -0.4388 -0.1971
35035W        W48449   0.985   0.651   1.648 -0.0565  0.1217  0.2453
35036W        W48450   4.458  17.664  14.628 -0.0701  0.0604  0.2125
35037W        W48451  16.038  15.655   0.353  0.1151 -0.0539  0.0324
35038W        W48452  15.248   1.501   2.306 -0.0030 -0.3621 -0.2580
35039W        W48453   4.841  11.913  14.467 -0.0834 -0.1562  0.0301
35040W        W48454   9.719   0.945   4.645 -0.0458 -0.1814  0.2082
35041W        W48455   4.316  15.355  11.244  0.1818  0.3727 -0.4331
35042W        W48456   1.222   1.771   2.955  0.1076 -0.0036  0.3323
35043W        W48457  12.603   6.742  16.087 -0.4902 -0.2306 -0.4405
35044W        W48458   5.723  16.627  14.766  0.0409 -0.0043  0.1442
35045W        W48459  15.378   3.165   0.938 -0.4573 -0.2129 -0.3762
35046W        W48460  17.872  18.208   0.499  0.1660 -0.2710 -0.1095
35047W        W48461  16.453   7.390  11.988 -0.1092  0.1636  0.4646
35048W        W48462  17.676   7.345  12.887 -0.0540  0.0931 -0.0348
35049W        W48463   5.631   5.927  12.563 -0.1353 -0.0367  0.1879
35050W        W48464  12.915   6.590  14.169  0.0296  0.1183 -0.2194
35051W        W48465   2.504   5.037  13.534 -0.0328  0.0088 -0.1711
35052W        W48466  10.765  10.635  14.264 -0.1153 -0.2750 -0.2120
35053W        W48467  11.615   7.170  10.207 -0.1341 -0.3542 -0.0998
35054W        W48468   9.268   2.033   2.669 -0.1890 -0.0329 -0.4034
35055W        W48469   0.671  17.526  11.686 -0.2230 -0.0516 -0.3228
35056W        W48470  15.511  11.103  15.318  0.2286 -0.1911  0.1067
35057W        W48471  15.863   9.999   0.766  0.0257  0.0069 -0.0617
35058W        W48472   6.486   6.295  11.115  0.1451  0.1814  0.1082
35059W        W48473   3.727  16.307   4.234 -0.0999  0.0567  0.0944
35060W        W48474   4.074   7.988  12.246 -0.1934  0.1421  0.1493
35061W        W48475  15.909  15.583  11.962  0.0592  0.4209  0.2455
35062W        W48476   4.688   1.329   0.628 -0.0480 -0.0937  0.1731
35063W        W48477   3.202   0.170   3.491  0.2077  0.0932  0.1701
35064W        W48478   4.348  15.452   4.424 -0.2695  0.1522 -0.1360
35065W        W48479  17.167  12.355  15.714  0.2701 -0.1415 -0.0519
35066W        W48480   1.913   9.966   2.792 -0.2980  0.2857 -0.3380
35067W        W48481  17.264  16.718   1.210  0.0499  0.1291 -0.0852
35068W        W48482   6.210   4.034   1.259 -0.0998  0.0080  0.1408
35069W        W48483   8.520  15.318  11.872  0.1551  0.1301 -0.3666
35070W        W48484  13.623   4.023   3.505  0.2370  0.1878 -0.0336
35071W        W48485  18.220  16.632  11.775  0.0202  0.2559 -0.0777
35072W        W48486  12.985   1.761   5.096 -0.1358  0.0391  0.2236
35073W        W48487  12.015   8.559   5.822 -0.0445 -0.0546 -0.1566
35074W        W48488   7.403   5.175  12.944 -0.2671  0.0210  0.1349
35075W        W48489  12.535   2.720   5.061  0.2394  0.1080 -0.1873
35076W        W48490   2.407  10.856  13.619  0.1130 -0.0663  0.2334
35077W        W48491   5.414   8.004   2.242  0.2133 -0.0702 -0.0228
35078W        W48492   4.539  10.330   0.201 -0.1662  0.0767 -0.0409
35079W        W48493   8.911  17.668  14.859  0.1492 -0.2320 -0.0273
35080W        W48494  17.910   0.790  15.647 -0.3919 -0.1699 -0.0891
35081W        W48495  13.958   2.235  11.143 -0.2948  0.0543 -0.2993
35082W        W48496   8.344  17.303  13.402  0.0221 -0.1246  0.0443
35083W        W48497   4.208   2.515   3.034 -0.2541 -0.0743 -0.0836
35084W        W48498   2.695   1.498   1.412 -0.2954  0.0256 -0.1489
35085W        W48499  13.513   0.575   3.225  0.3939 -0.3056 -0.0298
35086W        W48500  18.399   8.013  14.220 -0.1222 -0.2748 -0.1409
35087W        W48501   6.698  11.069  10.371  0.0978 -0.1908  0.2145
35088W        W48502   5.831   1.036   2.871 -0.0455  0.0485  0.0743
35089W        W48503  14.121   7.715  13.569 -0.0954 -0.1220  0.1521
35090W        W48504   6.307  12.850   1.065  0.0516  0.1376  0.1386
35091W        W48505  11.017  15.738  12.594 -0.1148 -0.1074  0.1043
35092W        W48506  14.717   4.146  13.813 -0.2414 -0.0961 -0.2000
35093W        W48507   8.901   2.448   4.133 -0.0033 -0.0217  0.2463
35094W        W48508   7.158   5.509   0.486 -0.0235 -0.1289 -0.0836
35095W        W48509  15.191   9.401  14.220  0.0775 -0.2600 -0.0626
35096W        W48510   4.078  11.545  12.025  0.1286 -0.0169 -0.0164
35097W        W48511   1.524   1.084  11.697  0.0738  0.0440  0.2588
35098W        W48512   8.536   5.770  12.372  0.1882  0.4129 -0.0194
35099W        W48513  14.251   4.730   0.194  0.0532  0.0105 -0.6727
35100W        W48514  15.052  16.341  14.206  0.0847  0.1251 -0.0570
35101W        W48515  15.840  16.779   1.280 -0.0120  0.1846 -0.1217
35102W        W48516  13.728   9.611  13.389  0.0573 -0.0267  0.1065
35103W        W48517  15.264   8.496  14.822 -0.1068  0.1526 -0.0521
35104W        W48518  17.210  17.857   1.020 -0.0655  0.5201  0.0432
35105W        W48519  16.964   1.244  15.669 -0.0565 -0.2701 -0.3958
35106W        W48520   7.625   2.106  13.908 -0.1503  0.1083 -0.1310
35107W        W48521  18.272   2.294   1.205 -0.0768  0.0613 -0.1268
35108W        W48522   3.938   8.170  13.748  0.0350 -0.1325  0.0714
35109W        W48523  16.041  17.547   6.230  0.0466 -0.0208 -0.2220
35110W        W48524   8.907  18.447  12.019 -0.0864 -0.0729  0.3613
35111W        W48525  15.548   0.666   0.008 -0.2125  0.0567 -0.0010
35112W        W48526   1.012  14.915   2.306 -0.3405  0.0356 -0.0404
35113W        W48527   1.303   4.093  12.631  0.0230 -0.1282  0.0758
35114W        W48528   8.501  17.277  14.851  0.4256 -0.0744  0.0807
35115W        W48529  16.323   0.293   2.744 -0.0623 -0.0694 -0.3363
35116W        W48530   4.872   6.249   2.305  0.1458  0.0428  0.2442
35117W        W48531  15.365  15.861  11.945  0.0804  0.3747  0.2144
35118W        W48532  13.918   6.438  15.646  0.1741 -0.1257 -0.3409
35119W        W48533  16.385   7.486  10.987 -0.0846  0.2933  0.2380
35120W        W48534   8.384   9.073   2.920  0.3219  0.2505  0.1940
35121W        W48535  10.675  17.921   1.562 -0.0001 -0.0964 -0.1007
35122W        W48536  17.787   9.650   2.775 -0.0047  0.3261 -0.3245
35123W        W48537  13.863  16.067   0.518 -0.0753  0.1502  0.0412
35124W        W48538  18.378   0.932   2.740 -0.4708  0.1034  0.0275
35125W        W48539   8.850  12.954  14.055 -0.0151  0.0976  0.1968
35126W        W48540   6.261  12.107  15.164 -0.3168  0.1166  0.2160
35127W        W48541  12.498   3.189  14.292 -0.2248  0.2385  0.1843
35128W        W48542   7.292  14.649  16.180 -0.0314 -0.2530 -0.1175
35129W        W48543  12.291   7.253  14.531 -0.0622 -0.0839 -0.5309
35130W        W48544   0.203  13.432  15.992 -0.0043  0.0721  0.1458
35131W        W48545  10.603  17.048   4.132 -0.1901  0.1239  0.2360
35132W        W48546  11.264   3.016   6.571 -0.0370  0.1635 -0.1338
35133W        W48547   0.143  13.185   6.340  0.1903 -0.0290  0.1760
35134W        W48548   0.867  12.029  16.211 -0.0645  0.1716 -0.1173
35135W        W48549   2.244   1.237  14.806 -0.0319  0.0818 -0.0777
35136W        W48550  10.220   0.801   3.784  0.1702 -0.0930 -0.4415
35137W        W48551  18.050  12.645   1.799  0.1247 -0.2535  0.0620
35138W        W48552   3.636  10.558  13.858 -0.1657 -0.1370 -0.0443
35139W        W48553  17.635   9.795   6.312 -0.0903 -0.0619 -0.1091
35140W        W48554  16.797  13.431   1.907  0.0564  0.1895 -0.2901
35141W        W48555   6.742   1.559   1.341  0.0682 -0.1662  0.0472
35142W        W48556  12.433   3.235  13.375  0.3481  0.0810  0.0770
35143W        W48557   3.758  11.134   9.488 -0.1922 -0.0715  0.1134
35144W        W48558   1.698   9.919   0.969 -0.2506  0.0391 -0.1099
35145W        W48559  15.662  15.105  11.806 -0.2762 -0.0464  0.1800
35146W        W48560  15.722  11.628   2.342 -0.1128  0.3609 -0.0439
35147W        W48561   4.772   6.298  11.518 -0.1185 -0.3309 -0.1293
35148W        W48562   1.551   1.981  11.814  0.1897  0.0734 -0.2407
35149W        W48563  12.668   3.568   2.534 -0.3699 -0.2161  0.0894
35150W        W48564   7.167  13.260   0.916  0.0231 -0.2064  0.0764
35151W        W48565  13.933  16.606   5.903 -0.0687 -0.0668 -0.1132
35152W        W48566  13.166  10.870  16.247 -0.1130 -0.0530 -0.0350
35153W        W48567   7.880  11.867   5.366 -0.0752  0.0496 -0.0319
35154W        W48568  14.300  16.928   5.139  0.4507  0.1289 -0.1033
35155W        W48569  15.950   7.886  14.087 -0.3210  0.0666  0.1146
35156W        W48570  10.439   8.251   4.666 -0.1216 -0.4780  0.1602
35157W        W48571   0.039   9.688   1.373  0.0259 -0.0402  0.2596
35158W        W48572  17.826  17.740  15.488 -0.0889 -0.0273 -0.1644
35159W        W48573   2.534   8.456  13.572  0.0225 -0.2228 -0.0578
35160W        W48574   2.408   0.696   1.982  0.1432 -0.0248  0.1149
35161W        W48575  17.587  10.010  14.304  0.3515  0.3261 -0.0806
35162W        W48576  16.022  14.805  15.968  0.0652 -0.4152  0.0014
35163W        W48577   5.632  10.753   0.835 -0.0989 -0.1255 -0.1820
35164W        W48578  10.648  14.944  15.263  0.2200  0.1812  0.2216
35165W        W48579   6.053   7.546  13.529 -0.2325  0.3573 -0.0650
35166W        W48580   4.197   1.233  15.457 -0.3588 -0.1659 -0.0945
35167W        W48581   9.418   0.904   4.247  0.2958  0.0209 -0.0873
35168W        W48582  14.418  13.520  12.657 -0.3006  0.2301 -0.0675
35169W        W48583  14.281  15.555  15.000  0.3090 -0.1876 -0.1689
35170W        W48584   7.186  15.600   1.919  0.0322 -0.0599 -0.1424
35171W        W48585  10.622   7.796  12.827 -0.0663  0.0056 -0.0412
35172W        W48586  18.041   9.491  16.144  0.0512  0.2141  0.3075
35173W        W48587  10.338  17.199  13.274 -0.0435 -0.2587 -0.0419
35174W        W48588   3.481  15.626  14.580 -0.4393 -0.4352  0.0902
35175W        W48589   2.104   2.422   2.365 -0.0312 -0.1097  0.0702
35176W        W48590   5.441   5.194  15.817  0.2681  0.0375 -0.3067
35177W        W48591   8.815  12.068   3.673 -0.0909 -0.1156 -0.0699
35178W        W48592  16.323  14.987   9.937  0.0449 -0.1733 -0.3481
35179W        W48593  10.602  16.959   1.755  0.1067 -0.0712 -0.2209
35180W        W48594   1.156  17.656   4.469 -0.1342 -0.1014 -0.1442
35181W        W48595  16.881   6.403  15.302 -0.0779 -0.2625  0.3419
35182W        W48596   5.024  12.437   0.400 -0.2848 -0.1184  0.2409
35183W        W48597   9.372  15.611   4.193 -0.1081 -0.2918 -0.1129
35184W        W48598   7.034  11.778  14.084  0.0124 -0.1423 -0.3169
35185W        W48599  15.522   3.346   0.041 -0.0588 -0.0090 -0.7094
35186W        W48600   1.960  18.448   3.921 -0.2078  0.1239  0.2487
35187W        W48601   0.089  11.323  12.795 -0.0072  0.0896 -0.3178
35188W        W48602  15.808  13.293  10.971  0.0866  0.2945  0.2777
35189W        W48603  12.061   9.132   2.568  0.0950 -0.2104 -0.0265
35190W        W48604  12.848  10.445   0.801  0.1216  0.2074 -0.2392
35191W        W48605   0.593   9.278   0.056 -0.1200 -0.0282 -0.3237
35192W        W48606   6.747   3.707  15.121 -0.1022 -0.0356 -0.0243
35193W        W48607  11.180  15.651  10.203 -0.1222  0.2455  0.1713
35194W        W48608   3.690  18.420   3.335 -0.1111  0.0410 -0.1768
35195W        W48609  18.422  12.206   3.425  0.0121  0.0864  0.0615
35196W        W48610   1.804   5.018   1.488  0.1286 -0.0072  0.1873
35197W        W48611   5.905  10.002   3.701  0.2110 -0.0746  0.0905
35198W        W48612  15.160  17.712   3.839  0.0336 -0.1791  0.0838
35199W        W48613   2.751   6.890   0.110 -0.0847  0.0312  0.0707
35200W        W48614  11.072   1.446  12.905  0.1643  0.2454  0.1025
35201W        W48615  18.223   5.977  16.252  0.0330  0.2278 -0.0215
35202W        W48616  14.743   2.449  15.064 -0.0653 -0.2390 -0.0483
35203W        W48617  12.412   4.788  11.778 -0.0961  0.0564 -0.2489
35204W        W48618   5.617   1.197  13.535  0.1791  0.0150 -0.2849
35205W        W48619  10.836   8.157  16.190  0.3566 -0.1784  0.0672
35206W        W48620   4.953   7.336   1.714 -0.0882  0.1243  0.0365
35207W        W48621   0.568  11.965   6.255  0.1128 -0.0891  0.1660
35208W        W48622   3.402   2.772  12.159 -0.1476 -0.1193 -0.0057
35209W        W48623  17.558   2.587  16.115  0.0054  0.1045  0.1526
35210W        W48624  16.947  17.779  12.240  0.2136 -0.1390  0.1675
35211W        W48625  17.595  14.641  11.140 -0.0652 -0.3865  0.1534
35212W        W48626   6.304   6.515   2.429  0.0840 -0.1325 -0.2509
35213W        W48627   4.877  10.964   0.829 -0.1031  0.0092  0.0263
35214W        W48628  12.763   2.846   2.367 -0.1011 -0.0787  0.2338
35215W        W48629   1.744  16.766   1.788 -0.1866 -0.0556 -0.1196
35216W        W48630   6.624   5.419   1.635  0.3276  0.2339 -0.0326
35217W        W48631   4.456  15.978   4.500 -0.2194  0.0796  0.0085
35218W        W48632   9.425   0.872  10.304  0.1972  0.2607 -0.2906
35219W        W48633   5.629  10.259  13.071 -0.1644 -0.2197  0.0550
35220W        W48634   9.540   5.067  10.922 -0.1536  0.2655  0.0575
35221W        W48635   0.794  12.060   3.620  0.0587 -0.0232 -0.1511
35222W        W48636   3.014  14.831  11.988 -0.2852  0.0061 -0.0617
35223W        W48637  14.704  18.211   4.919 -0.2312  0.1838 -0.3249
35224W        W48638   4.088   0.095  11.261  0.1502 -0.1593 -0.0333
35225W        W48639   6.472  14.626   1.957 -0.1032  0.1363 -0.0498
35226W        W48640   7.205   2.172   0.265 -0.0546  0.0792  0.0132
35227W        W48641   9.686   3.124  11.948 -0.1796  0.3155  0.2383
35228W        W48642   3.222   5.600  11.568  0.3693 -0.0054 -0.0465
35229W        W48643   9.370  15.455   0.112  0.0981  0.2694  0.1036
35230W        W48644  11.374   3.860  11.332  0.1407 -0.2434 -0.0396
35231W        W48645  15.233   9.248   1.987  0.0991  0.2048 -0.0397
35232W        W48646   0.014   1.305   2.365 -0.2676  0.1109  0.1312
35233W        W48647   5.180   4.630  16.186 -0.0677 -0.0641  0.1255
35234W        W48648  16.107   4.628   0.093  0.1141  0.2227  0.3867
35235W        W48649   5.526  16.026   3.926 -0.4943 -0.2267  0.4436
35236W        W48650   7.644   5.351   5.006  0.2223  0.1165 -0.0493
35237W        W48651  11.165  13.787  11.615 -0.1557 -0.2365 -0.3565
35238W        W48652  17.065   2.493   5.950  0.0551  0.0094 -0.4709
35239W        W48653  18.272   9.131  13.517 -0.2534  0.0352  0.1153
35240W        W48654  12.697   6.943   3.643  0.0918 -0.1069  0.0246
35241W        W48655   7.030  14.794   1.650 -0.0517 -0.4102 -0.1350
35242W        W48656  12.074  10.692  11.069 -0.2724  0.0182 -0.3683
35243W        W48657   5.402  10.029   1.675 -0.1086 -0.1674  0.1135
35244W        W48658  17.510   8.322  11.363  0.1103  0.2575 -0.1473
35245W        W48659  16.581  12.763   1.117  0.0021 -0.1597  0.1129
35246W        W48660   8.526   5.120   1.862 -0.1975  0.0650  0.0463
35247W        W48661   8.611   3.511   1.980 -0.2141 -0.0267  0.2450
35248W        W48662  12.406  13.136   3.936  0.0377  0.0924 -0.2005
35249W        W48663  16.587   4.279  11.261  0.0960  0.0906 -0.0281
35250W        W48664  17.307  11.171   4.852 -0.1510  0.1363 -0.0794
35251W        W48665   6.008  17.771  14.013  0.2067  0.4015  0.0797
35252W        W48666  18.216  12.677   4.478  0.1791  0.3920  0.3561
35253W        W48667  17.009  15.842   0.097 -0.1246  0.0079 -0.0710
35254W        W48668  16.614   7.833   2.656  0.2567  0.2336 -0.0695
35255W        W48669   0.341   3.506   2.696  0.0491 -0.0157 -0.0049
35256W        W48670  11.664   7.094   4.045 -0.1259  0.2297  0.1890
35257W        W48671  13.754   7.029   3.486  0.0945 -0.2920  0.0733
35258W        W48672   0.122   4.492  13.938 -0.1330 -0.0302  0.3592
35259W        W48673   8.185   1.466   0.479  0.3203 -0.0185  0.3308
35260W        W48674   7.603   0.136  14.481 -0.0114 -0.0710  0.0499
35261W        W48675  13.667  16.831  12.658  0.0296 -0.1410  0.0632
35262W        W48676   3.550   0.718   2.822  0.3027  0.1885 -0.2543
35263W        W48677  13.708  12.094  15.609 -0.1573 -0.0478  0.1121
35264W        W48678   5.129   8.376  16.055  0.1347 -0.1370 -0.0371
35265W        W48679  10.593  15.973  12.496  0.0413 -0.0177 -0.0464
35266W        W48680  11.003   4.197  12.156  0.2975 -0.5560  0.2244
35267W        W48681  14.973  16.399   5.445  0.1955 -0.0939  0.0033
35268W        W48682   2.252   3.398  12.095  0.2408  0.2678  0.1479
35269W        W48683   7.243   0.063  14.079  0.2586  0.0224  0.0750
35270W        W48684  11.857  17.045  16.158 -0.2202  0.0440 -0.2243
35271W        W48685  13.718   7.393  15.599  0.3049 -0.1843 -0.0576
35272W        W48686  16.092   2.129   4.363 -0.1024 -0.2932  0.1440
35273W        W48687  15.479  11.429   4.312 -0.1931 -0.5018  0.1900
35274W        W48688   5.363  15.375   5.333  0.1249 -0.1548 -0.0904
35275W        W48689   2.915  16.369  15.417 -0.0582  0.0068  0.0307
35276W        W48690  13.070   2.740  16.271 -0.2956  0.0807  0.0228
35277W        W48691   1.935   9.178   6.234 -0.0316 -0.3645 -0.2150
35278W        W48692  10.721   1.205   5.295  0.1451  0.0417  0.1716
35279W        W48693  10.990   4.331   5.877  0.0068 -0.0861  0.1990
35280W        W48694  13.586   9.900  11.855  0.0098 -0.0877  0.0916
35281W        W48695  14.997   2.570   1.396 -0.1247  0.1482  0.1173
35282W        W48696  13.198   8.058  13.579 -0.2747 -0.1677 -0.0803
35283W        W48697   0.204   9.867   2.967  0.0004  0.0336 -0.1591
35284W        W48698  15.556   6.221   2.357  0.1986 -0.1020 -0.2261
35285W        W48699  12.415  16.876  16.038  0.0261  0.1738 -0.1200
35286W        W48700  10.523  11.312   3.937 -0.0615 -0.2298  0.0235
35287W        W48701  14.150  13.432   5.491  0.1439  0.2953 -0.2176
35288W        W48702  17.388  13.050  15.105 -0.0120 -0.1713 -0.0996
35289W        W48703   3.561   9.622   5.270 -0.1065  0.1231 -0.1621
35290W        W48704   4.688  15.117  13.964  0.0301  0.1773  0.2508
35291W        W48705   4.366   7.476  12.538 -0.0320  0.2239  0.1288
35292W        W48706   0.003   7.363  14.511  0.1209  0.1600 -0.0862
35293W        W48707   5.833  18.471  15.047 -0.1035 -0.0987 -0.1829
35294W        W48708   9.525   9.636  13.353  0.0336 -0.0264 -0.0788
35295W        W48709   6.994   6.439  14.590  0.0583 -0.1389 -0.0597
35296W        W48710   3.133   8.993   5.716  0.1196  0.5778 -0.0796
35297W        W48711  15.714  15.225  11.111  0.0971 -0.3058 -0.1051
35298W        W48712  18.097   6.965   4.024 -0.0055  0.0679  0.3303
35299W        W48713   7.250   2.275   3.048  0.1005  0.0825 -0.1116
35300W        W48714  17.119   0.198  13.839 -0.2701  0.2076  0.1326
35301W        W48715   4.303  13.248   1.239 -0.0123 -0.0822 -0.0282
35302W        W48716  16.409   6.554  16.220 -0.1288  0.2390  0.1017
35303W        W48717  15.566  16.259  15.975  0.0191  0.1809  0.0468
35304W        W48718  13.916  12.633  16.166 -0.2453  0.2440  0.2496
35305W        W48719  17.418  13.609  13.076 -0.2034  0.3333  0.2082
35306W        W48720   0.397  13.123  14.635  0.0780 -0.1183 -0.1902
35307W        W48721   8.800  12.262  14.124  0.1746 -0.0125 -0.2928
35308W        W48722   9.692  13.056  14.661 -0.2805 -0.2477  0.1730
35309W        W48723   6.892  11.222   1.946  0.0064 -0.2245  0.2697
35310W        W48724  11.167   3.256   2.504  0.0520 -0.1623  0.0244
35311W        W48725   5.768   1.543  14.433  0.0123  0.0056 -0.1195
35312W        W48726   1.414   0.722   1.268  0.0408  0.0475  0.1157
35313W        W48727  17.463  15.357  10.515  0.3160 -0.0690 -0.2230
35314W        W48728  17.702   1.484   2.040 -0.1571  0.1147  0.2527
35315W        W48729   1.884  16.162  14.567  0.1236  0.2966 -0.0988
35316W        W48730   3.973   6.480   2.360  0.0611  0.0257 -0.1551
35317W        W48731   9.290  11.307  14.548  0.0398  0.0914 -0.0778
35318W        W48732   8.641   4.842  11.855 -0.2369  0.1631  0.0044
35319W        W48733  11.341  17.940  16.212 -0.1414  0.3740 -0.2250
35320W        W48734   0.389   2.633   6.009 -0.1079 -0.1270  0.2891
35321W        W48735  10.307   8.820  10.547 -0.0412 -0.0260 -0.0016
35322W        W48736   2.900  12.274  16.089 -0.3193  0.1630  0.0206
35323W        W48737   4.217  16.924   1.354  0.1554  0.2943 -0.0471
35324W        W48738  14.481   5.398   2.010  0.0191  0.0952  0.0589
35325W        W48739  16.858  12.054   3.961  0.2271  0.0355 -0.1971
35326W        W48740   1.105   6.932   0.601 -0.2662  0.2609 -0.1208
35327W        W48741  10.604  12.631   4.878  0.0398  0.2769 -0.1548
35328W        W48742  15.501   0.267   3.560 -0.1622 -0.0963  0.2671
35329W        W48743  10.956   4.408   4.986  0.1261 -0.0979  0.3552
35330W        W48744  15.356   4.636  13.434 -0.1479 -0.0334  0.1073
35331W        W48745   0.342   0.080  12.554 -0.0738  0.3334  0.1083
35332W        W48746   5.323   9.369  13.976 -0.1472 -0.1094 -0.3549
35333W        W48747   9.575  10.605  10.983  0.3718  0.0458 -0.3327
35334W        W48748  18.135  11.746   2.183  0.2101  0.1105  0.0506
35335W        W48749  17.327  15.875   5.396 -0.1898 -0.1245 -0.0404
35336W        W48750   5.629   3.147  14.782  0.0707  0.2152  0.1087
35337W        W48751   8.807  11.237  15.332  0.4941 -0.1394 -0.0098
35338W        W48752   6.506  11.454   5.869 -0.1614 -0.1050 -0.1197
35339W        W48753  11.944   6.259   5.684 -0.0252 -0.0268  0.1030
35340W        W48754  11.226   1.128   2.668 -0.1410 -0.2600  0.0592
35341W        W48755  13.282   5.323  14.417  0.1001 -0.2674 -0.3200
35342W        W48756   4.682   2.362   1.163 -0.2894 -0.1857  0.1261
35343W        W48757  13.153  15.727  10.868 -0.1512 -0.0889 -0.0891
35344W        W48758   1.465  14.864   0.977 -0.1424  0.3317 -0.1646
35345W        W48759  17.398   5.099  15.843 -0.1450  0.0301 -0.2265
35346W        W48760   9.823   1.378   6.274 -0.2005 -0.2729  0.0808
35347W        W48761  17.757   7.883  12.680 -0.0226  0.3026  0.0814
35348W        W48762  17.630   4.645   4.007 -0.0512 -0.1498 -0.2189
35349W        W48763   6.471  14.370  12.968  0.1539  0.1949  0.2704
35350W        W48764  13.523  10.052   1.940  0.0631  0.1810 -0.0616
35351W        W48765  10.643  10.298  13.847 -0.2322  0.0665 -0.5135
35352W        W48766  12.516   7.081   4.367  0.1748  0.0789 -0.0299
35353W        W48767  11.388   2.488  14.414 -0.0008  0.2323 -0.1593
35354W        W48768  18.376  10.873  11.539 -0.0679 -0.3462  0.1557
35355W        W48769   9.524  12.215   0.550 -0.1649 -0.2592  0.4779
35356W        W48770   6.830   9.749  14.701  0.0518  0.0806  0.1833
35357W        W48771  14.979   4.729  11.315 -0.2239 -0.1313  0.0746
35358W        W48772  13.992   1.032  10.835 -0.1015 -0.2988 -0.1335
35359W        W48773  17.005  10.103   2.548 -0.2234 -0.2603 -0.0131
35360W        W48774   5.832  13.184   4.239 -0.0898  0.0795  0.1071
35361W        W48775   1.071   8.599  11.253 -0.0777  0.1043  0.0714
35362W        W48776   5.590  16.721   4.421 -0.3282 -0.1278 -0.2504
35363W        W48777   1.283   8.213  13.563 -0.1185 -0.3808  0.2938
35364W        W48778   6.178   1.366   0.539 -0.0180 -0.2285  0.0018
35365W        W48779   8.335   7.500   2.026 -0.1238 -0.2906 -0.1692
35366W        W48780  12.457  11.017   6.106 -0.0898 -0.2327  0.0294
35367W        W48781   4.838   1.933   0.282  0.1099  0.0152 -0.1839
35368W        W48782  12.159   0.709  16.204 -0.0997 -0.1692  0.1190
35369W        W48783   7.283  18.522   2.516  0.1236  0.0247  0.0366
35370W        W48784  16.304  17.685   0.724  0.0876  0.1191  0.3531
35371W        W48785   4.083   5.776  11.626 -0.0004  0.1570 -0.1352
35372W        W48786  14.113  13.171  13.435  0.1047 -0.0407  0.0155
35373W        W48787  18.405  15.508  10.863  0.0248  0.2432  0.0836
35374W        W48788   0.122   1.807   1.824 -0.0688  0.2972 -0.1242
35375W        W48789   0.657  13.778  12.936 -0.0883 -0.2641 -0.4432
35376W        W48790  11.717   0.903   2.723 -0.4397 -0.1550 -0.0564
35377W        W48791  18.257   6.752   0.294 -0.1156  0.1135 -0.0786
35378W        W48792  11.649   8.344   5.598  0.2167  0.2411 -0.1764
35379W        W48793   6.972   9.041   1.799 -0.0278  0.0378 -0.0235
35380W        W48794  10.347  16.270   4.268 -0.0314 -0.2469  0.1095
35381W        W48795  13.892  15.243   0.919  0.3847 -0.2119 -0.2554
35382W        W48796   7.482  16.730   1.148  0.1450  0.0406 -0.0752
35383W        W48797  17.943  12.043  13.657  0.0429  0.1169  0.1613
35384W        W48798   7.634  14.508  15.092  0.0386  0.3474  0.0796
35385W        W48799   4.812  17.018  15.216 -0.2131 -0.2099  0.0280
35386W        W48800   9.052  18.105   3.479  0.0985  0.0815 -0.1229
35387W        W48801  17.285   1.364  14.537  0.2095  0.0095  0.1689
35388W        W48802  13.081  13.867  11.976  0.0726 -0.1358 -0.0493
35389W        W48803   3.153  10.547  12.972  0.0961 -0.2007 -0.0047
35390W        W48804  10.749   8.210   5.069 -0.0732  0.0007  0.2659
35391W        W48805   9.018  14.197  13.672 -0.0553 -0.0739  0.0913
35392W        W48806   1.461   0.426   3.272  0.0885 -0.3569 -0.1676
35393W        W48807   7.496   7.607  15.884  0.0663  0.1379 -0.0928
35394W        W48808  10.215   2.105   2.103 -0.2655 -0.2412  0.1731
35395W        W48809  13.140  14.400  11.206 -0.1998  0.0228 -0.4542
35396W        W48810   0.334   7.379  10.694 -0.1476  0.1140  0.2551
35397W        W48811  10.709   5.500  14.015  0.1062 -0.1278  0.0411
35398W        W48812   9.555  14.444   1.453  0.2765  0.0893  0.0818
35399W        W48813   6.879  13.970   1.381  0.1018  0.3702  0.1014
35400W        W48814   1.437   2.245   3.643  0.1602  0.0433 -0.0954
35401W        W48815   8.866  14.126  11.063 -0.1840 -0.0644  0.0815
35402W        W48816  13.106  14.900  14.300  0.0194 -0.1225  0.0038
35403W        W48817  13.497  10.615  15.389 -0.0715  0.0157  0.0776
35404W        W48818  12.566   0.970  11.099  0.0612  0.1033 -0.2527
35405W        W48819   6.759  13.166  10.358 -0.1746 -0.4645  0.1800
35406W        W48820   4.069  10.666   2.116  0.1777 -0.0497 -0.2230
35407W        W48821  13.296  12.716  11.940  0.1047 -0.0080  0.1356
35408W        W48822  11.038   5.465   4.341  0.0730  0.0357  0.0082
35409W        W48823  16.434  14.627  10.777 -0.1671 -0.2441 -0.0591
35410W        W48824   1.665   0.457   5.293 -0.0154 -0.1127 -0.1222
35411W        W48825   2.990   3.897   5.877 -0.0113  0.0603 -0.3502
35412W        W48826   9.277   9.907   1.201 -0.1835  0.0240 -0.0659
35413W        W48827   1.940   0.251  11.190 -0.1207  0.0757 -0.0576
35414W        W48828  11.888  13.929   4.299  0.2175  0.2837 -0.2396
35415W        W48829  18.296   5.837  14.781 -0.0962  0.1636  0.0817
35416W        W48830  13.052  14.892   2.579  0.3619 -0.5374  0.0358
35417W        W48831   9.366  18.110  11.218  0.2793 -0.0322 -0.3245
35418W        W48832   5.822  13.538  15.579 -0.0342 -0.0573  0.0923
35419W        W48833   5.636  10.769   3.378  0.0036 -0.0942 -0.1180
35420W        W48834  11.505   6.336   4.519  0.0035  0.1169 -0.1854
35421W        W48835  15.717  13.865  10.808 -0.0133 -0.1129 -0.0647
35422W        W48836   9.713  16.844   1.062 -0.2270  0.1012  0.1009
35423W        W48837  11.100  15.202  10.913 -0.0832  0.0028 -0.0269
35424W        W48838  14.851  13.419  14.475  0.0727 -0.2064 -0.1326
35425W        W48839   7.668  14.847   2.685 -0.2431 -0.0361 -0.2024
35426W        W48840   8.910   2.215  15.271 -0.0442  0.2185  0.0083
35427W        W48841   0.756   2.352  11.349 -0.1512  0.1609  0.1938
35428W        W48842  12.347   8.349   3.592 -0.0258  0.1799  0.0410
35429ION     NA48843   3.925  15.666   5.823  0.2205  0.2394 -0.0117
35430ION     NA48844  12.550  13.337   9.993  0.0198 -0.0643  0.0701
35431ION     NA48845  12.395  13.730  11.154  0.0364 -0.1446  0.0603
35432ION     NA48846  16.121  18.307   6.175  0.0506  0.2259 -0.4626
35433ION     NA48847   2.296   5.453   5.247  0.0207  0.0870  0.3970
35434ION     NA48848  17.537  11.548   2.588 -0.1261  0.0463  0.0407
35435ION     NA48849  13.004  12.839   5.879 -0.0249 -0.2486  0.1133
35436ION     NA48850  17.311  18.498  15.032 -0.1755  0.1370 -0.0907
35437ION     NA48851  14.259  16.614  13.176  0.1853  0.0733  0.0967
35438ION     NA48852  10.560  11.806   6.057 -0.2155 -0.1931 -0.0963
35439ION     NA48853  13.381  14.211  14.679 -0.4738  0.0147 -0.2486
35440ION     NA48854   0.940  15.997   6.232  0.1284  0.2333  0.2080
35441ION     NA48855  11.898  14.830   4.045 -0.0909 -0.2086  0.1036
35442ION     NA48856  15.266  17.917   1.084  0.3270  0.0811 -0.3269
35443ION     NA48857   2.976   1.145   4.575 -0.1009 -0.0280 -0.0612
35444ION     NA48858   8.879  14.223  12.797 -0.2118  0.0206 -0.1066
35445ION     NA48859   4.289  11.022   3.964  0.2488 -0.2527  0.0036
35446ION     NA48860   6.137  10.878  10.131 -0.3981 -0.0705  0.2092
35447ION     NA48861   9.087  10.734   6.175 -0.0621  0.0181 -0.2968
35448ION     NA48862  12.116   2.059  10.175 -0.3731  0.0004 -0.0373
35449ION     NA48863  12.415  12.437  11.887 -0.0966 -0.0044  0.2104
35450ION     NA48864  15.691   5.622  10.883 -0.0521  0.2821  0.2490
35451ION     NA48865   9.216  16.402  15.691 -0.0375  0.1395  0.0879
35452ION     NA48866  10.291  18.121  14.621  0.0582 -0.0008 -0.1400
35453ION     NA48867   3.810  14.015  11.278  0.0472  0.0529 -0.2530
35454ION     NA48868   9.665   6.214  10.584 -0.3247  0.1100  0.0308
35455ION     NA48869   8.742   5.601  11.588 -0.0166 -0.1241  0.1473
35456ION     NA48870   8.402  18.214   6.037  0.0061 -0.1111 -0.2422
35457ION     NA48871  12.916  12.344  12.130  0.1518 -0.0964  0.0196
35458ION     NA48872   6.267  17.204  11.333 -0.4511 -0.1358 -0.3520
35459ION     NA48873   9.838  10.221  10.245 -0.2891 -0.1090 -0.1676
35460ION     NA48874  13.714  13.570   1.023  0.1155 -0.3562 -0.0826
35461ION     NA48875  13.366  12.459   2.889 -0.0457 -0.1552 -0.2845
35462ION     NA48876  15.884  11.613  15.810 -0.2187  0.0393  0.1141
35463ION     NA48877   3.243   2.474  10.730  0.0577  0.2709  0.2412
35464ION     NA48878   5.084  14.417   9.764  0.0532  0.0487  0.3089
35465ION     NA48879   9.799   7.817   5.047  0.0894  0.1473  0.1691
35466ION     NA48880   0.985   7.259   0.953  0.1986  0.0189  0.0721
35467ION     NA48881   3.204  14.210   2.807 -0.0346 -0.0836 -0.1547
35468ION     NA48882   7.382  16.792   3.702 -0.3428  0.2275 -0.4301
35469ION     NA48883   8.925   8.084  12.738 -0.1101  0.2753  0.1825
35470ION     NA48884   6.073  11.878  10.912  0.3126  0.2789  0.2061
35471ION     NA48885   0.358   5.391  15.095  0.1973 -0.1660  0.0465
35472ION     NA48886   7.286  10.380   5.729  0.0009  0.2869  0.3106
35473ION     NA48887  16.984  16.629  16.192 -0.2153 -0.2818  0.1562
35474ION     NA48888   6.073  12.584  15.450  0.0348  0.0434  0.1076
35475ION     NA48889   4.734  13.668  11.448  0.4207 -0.0094  0.0031
35476ION     NA48890   2.724   3.782   5.351 -0.0524  0.2462  0.2297
35477ION     NA48891  17.033  12.027  10.356 -0.1590 -0.0327 -0.1438
35478ION     NA48892   0.397   6.478   0.926 -0.1754  0.0048  0.0104
35479ION     NA48893  15.281   4.114   5.765 -0.1661  0.0008 -0.0124
35480ION     NA48894   1.397  15.026   5.244  0.0220  0.0237  0.1586
35481ION     NA48895  14.967  10.176  13.361  0.0929  0.0373 -0.0482
35482ION     NA48896   9.249   1.749   1.064  0.0177  0.1247 -0.0359
35483ION     NA48897   3.123   7.642   1.678  0.2176 -0.0053  0.1883
35484ION     NA48898   0.633   8.235  10.527  0.0078 -0.0336  0.1266
35485ION     NA48899  14.854   3.138  10.200  0.3643 -0.1320  0.0562
35486ION     NA48900   5.484   1.111   1.171 -0.2133 -0.1184  0.0944
35487ION     NA48901  14.723   2.530  10.153  0.0734  0.4442  0.2314
35488ION     NA48902   8.213  13.799  15.242  0.0966  0.0489  0.0589
35489ION     NA48903   3.056  15.249   3.770  0.1403  0.1017 -0.2143
35490ION     NA48904  16.987   0.438  10.115  0.1697 -0.1683 -0.0645
35491ION     NA48905  14.453  11.143  12.139 -0.0522  0.0249  0.0122
35492ION     NA48906   1.394   8.116   3.667 -0.2407  0.0651 -0.1628
35493ION     NA48907   8.100   8.761  13.861  0.2614  0.3530  0.0051
35494ION     NA48908   3.292  18.037   1.524 -0.3639 -0.1958 -0.1476
35495ION     NA48909  13.111   5.286   5.961  0.1289 -0.2526  0.0844
35496ION     NA48910  11.763  17.868  11.016  0.0033 -0.2086 -0.0247
35497ION     NA48911   3.144  16.452  14.528 -0.1781  0.0004  0.2572
35498ION     NA48912   9.167   0.382  14.346 -0.1937  0.0860 -0.5683
35499ION     NA48913   1.498  13.022   5.982  0.0563  0.2996  0.0443
35500ION     NA48914   5.911   3.147  10.856 -0.1670 -0.0776  0.1655
35501ION     NA48915  14.487   7.465   2.060  0.0048 -0.0434 -0.1733
35502ION     NA48916   8.438   7.028   0.582 -0.0905 -0.1266  0.1913
35503ION     NA48917   7.794  15.613   0.726 -0.2109  0.0849  0.2243
35504ION     NA48918  14.222   3.266  11.975 -0.1225  0.0992  0.3343
35505ION     NA48919  14.307   5.648  12.370 -0.0484  0.1171  0.1666
35506ION     NA48920   6.785  16.534  14.905  0.3868  0.1766  0.0440
35507ION     NA48921  16.802  12.386  14.141  0.3689 -0.0896 -0.1587
35508ION     NA48922  10.654   1.771  10.184 -0.0339 -0.3310 -0.0742
35509ION     NA48923  16.872  10.109  13.515 -0.1140 -0.1186 -0.1520
35510ION     NA48924   5.089  18.157   5.742  0.1468  0.0992 -0.2236
35511ION     NA48925   2.297   5.865   4.014  0.1920  0.3631  0.1354
35512ION     NA48926   0.358  14.876   6.172  0.4274 -0.2727  0.0508
35513ION     NA48927  15.477  18.498   3.125  0.0713 -0.4503  0.0391
35514ION     NA48928   6.269   3.485  15.464 -0.0160  0.0593 -0.1664
35515ION     NA48929   0.303  18.256  13.985 -0.1701  0.2050  0.1232
35516ION     NA48930   2.380   3.925  15.385  0.1645 -0.2064  0.2015
35517ION     NA48931  16.391   5.196   6.181 -0.0873  0.1727 -0.0598
35518ION     NA48932   6.065   2.342   0.513  0.2194  0.1923  0.1296
35519ION     NA48933   6.264   3.112   3.150  0.3190 -0.0007 -0.0241
35520ION     NA48934   6.100  16.357  10.143  0.0459  0.2757  0.1878
35521ION     NA48935  13.452   7.056   3.073  0.1048 -0.0775 -0.0875
35522ION     NA48936  17.144  12.466   5.968 -0.1931 -0.1695  0.4154
35523ION     NA48937  10.447   1.789  12.172  0.1147 -0.0405  0.0070
35524ION     NA48938   3.637   3.180  15.761  0.5062 -0.0409 -0.0154
35525ION     NA48939  13.686   3.707  14.273 -0.2496  0.0504  0.1569
35526ION     NA48940   7.692   2.428   1.464 -0.0534  0.1020  0.0720
35527ION     NA48941   9.104   2.730   5.544 -0.1549  0.2100 -0.2091
35528ION     NA48942   7.248  12.901  10.779  0.3015  0.3318  0.2034
35529ION     NA48943   7.333  10.767   4.768  0.1987 -0.0641  0.0266
35530ION     NA48944   8.627   4.328   0.565  0.0064  0.0573  0.3276
35531ION     NA48945  13.155  16.414  15.294  0.2313  0.2243  0.1586
35532ION     NA48946   0.780  17.592   5.993 -0.1005 -0.2534  0.2080
35533ION     NA48947  18.017   1.537   4.891  0.1200 -0.3110 -0.2876
35534ION     NA48948   4.313   9.473  11.712  0.0261 -0.5860 -0.3606
35535ION     NA48949  10.423  13.713   1.499 -0.4961  0.1425 -0.1305
35536ION     NA48950  17.255   3.760   1.800  0.1657 -0.0784  0.1219
35537ION     NA48951  13.324  11.929   6.688 -0.1183 -0.0037  0.2274
35538ION     NA48952  17.493  16.006  14.715 -0.0690 -0.0705  0.0337
35539ION     NA48953   6.864  14.514   0.190  0.2826  0.1885  0.2192
35540ION     NA48954  14.901  14.335  12.983 -0.3315 -0.0665 -0.0169
35541ION     NA48955   9.020  18.475  10.190  0.0547 -0.2285  0.0394
35542ION     NA48956   9.664  14.562   4.905  0.1088 -0.0315  0.2631
35543ION     NA48957   1.964   3.473   6.443  0.0321 -0.1194  0.1814
35544ION     NA48958   4.932   0.020   2.622 -0.0958  0.0232  0.1914
35545ION     NA48959   7.651   6.146   6.327 -0.0039  0.0271 -0.0545
35546ION     NA48960   0.063   3.420   5.998  0.5484  0.1710 -0.2604
35547ION     NA48961  12.384   4.716   2.401 -0.2409  0.0280  0.0439
35548ION     NA48962   3.181  14.603   1.923  0.0351 -0.2341 -0.3271
35549ION     NA48963   1.005   2.300   1.649  0.1201  0.0846  0.2267
35550ION     NA48964  16.082   2.900  10.063  0.4373  0.0319 -0.2077
35551ION     NA48965  17.525   8.697  13.499  0.1518  0.2234 -0.3374
35552ION     NA48966  17.491  15.531  15.558 -0.2857 -0.0441  0.0784
35553ION     NA48967  13.832  14.315  13.145 -0.1298 -0.0887 -0.2338
35554ION     NA48968  17.869   0.163   2.688  0.2569  0.2163 -0.0924
35555ION     NA48969  12.439  12.755   4.461 -0.0734  0.1226  0.2117
35556ION     NA48970  10.739   7.402  11.603  0.3397  0.0768  0.2343
35557ION     NA48971   0.704  12.202   0.649 -0.0068  0.0825  0.2576
35558ION     NA48972  11.783  16.487   2.837 -0.1536 -0.0764 -0.0929
35559ION     NA48973   4.896   0.381  10.132  0.1421 -0.2294  0.1243
35560ION     NA48974  15.082   6.708   5.867  0.3089 -0.2850 -0.2209
35561ION     NA48975   7.601  14.373   4.136 -0.1508 -0.0014  0.0316
35562ION     NA48976  16.100  17.336   0.190 -0.2212 -0.1831 -0.3095
35563ION     NA48977   5.896   2.965   5.756 -0.0148  0.0725  0.0828
35564ION     NA48978  15.298   7.534   3.630  0.1043  0.0759  0.1088
35565ION     NA48979   1.106  14.590  10.351  0.1678  0.0648  0.1352
35566ION     NA48980  17.803  11.590   3.519 -0.0421 -0.0943 -0.0249
35567ION     NA48981  13.608  11.481   6.619  0.2668 -0.0223  0.1635
35568ION     NA48982  16.845   0.196   5.893  0.1122  0.1066  0.1595
35569ION     NA48983  10.683  10.576   1.982  0.0280  0.1106 -0.0064
35570ION     NA48984   1.166   0.980  13.218  0.0258  0.2244 -0.0883
35571ION     NA48985   1.253   1.606   6.306 -0.0819 -0.1611  0.2149
35572ION     NA48986  18.087   2.512   3.338 -0.1892 -0.2283  0.2400
35573ION     NA48987  18.177   1.102   6.450  0.0570 -0.0007  0.0491
35574ION     NA48988   2.638  11.907  12.956  0.2590 -0.5607 -0.1561
35575ION     NA48989  13.657   6.805  12.376 -0.0696  0.0314 -0.2136
35576ION     NA48990   9.212   4.202  13.242 -0.3321  0.1870 -0.2570
35577ION     NA48991   7.691   1.376   4.060 -0.1415 -0.0491  0.2580
35578ION     NA48992  16.261   1.718   6.165  0.0827 -0.0055  0.1510
35579ION     NA48993   6.983   1.727  12.779 -0.0699  0.1364 -0.0074
35580ION     NA48994   2.010   4.298  10.333  0.1856  0.1832  0.0819
35581ION     NA48995  18.399   8.852  10.297 -0.2868  0.0823 -0.0761
35582ION     NA48996   1.805   1.603   1.244  0.1308  0.1242  0.0596
35583ION     NA48997   8.931  13.789   9.690 -0.3040  0.0169  0.0632
35584ION     NA48998  11.532  10.920  14.540  0.2533  0.2394 -0.0078
35585ION     NA48999   2.756  17.639  10.486  0.0372 -0.2329 -0.0775
35586ION     NA49000   0.109  15.569   4.508  0.2554 -0.0772 -0.0850
35587ION     NA49001  11.984   5.164   0.650 -0.0455  0.2943  0.3316
35588ION     NA49002  17.063   7.469   0.727  0.0868  0.0659 -0.2155
35589ION     NA49003   9.162  13.054   0.485 -0.0949  0.0468 -0.0884
35590ION     NA49004   0.878  15.921  10.036 -0.1570 -0.2203  0.1252
35591ION     NA49005   4.264  10.290   1.676 -0.1622 -0.1107  0.1333
35592ION     NA49006   2.781  10.223   1.739  0.1253 -0.2707  0.0691
35593ION     NA49007  11.188   2.022   6.230  0.0421 -0.0049  0.1897
35594ION     NA49008   4.656   1.621   2.430 -0.3615  0.2273 -0.1198
35595ION     NA49009   5.852  10.335   6.007 -0.1247  0.1338 -0.2737
35596ION     NA49010  16.928  10.992   0.170  0.0888  0.3883  0.1619
35597ION     NA49011   9.968   7.443   6.504 -0.0290  0.4705 -0.0650
35598ION     NA49012  14.103  11.037   0.636  0.1994 -0.1817 -0.3884
35599ION     NA49013   4.981   5.114  10.108 -0.1566  0.4137 -0.1343
35600ION     NA49014   9.913  16.396   5.324 -0.1847  0.0856 -0.2151
35601ION     NA49015   2.527   5.288  13.984 -0.1402  0.1455  0.3130
35602ION     NA49016  10.727  14.152   4.053  0.0352 -0.2399 -0.0378
35603ION     NA49017   9.472  13.225   5.644  0.0646 -0.0359 -0.1307
35604ION     NA49018   3.288   9.474   3.765 -0.1133 -0.0153 -0.1704
35605ION     NA49019  11.848  17.804  10.047  0.0389 -0.0595 -0.2336
35606ION     NA49020   9.411  13.304  13.696 -0.1604  0.0451  0.4802
35607ION     NA49021  13.528  18.213  10.216 -0.1023  0.1344  0.0527
35608ION     NA49022  11.141  13.526   4.034  0.0147  0.1828 -0.0494
35609ION     NA49023  10.807   9.696   1.282  0.1965 -0.0639  0.0540
35610ION     NA49024  13.559  12.800   6.408 -0.0975 -0.2196 -0.0998
35611ION     NA49025   1.947  10.630  12.211  0.1945  0.3762 -0.0384
35612ION     NA49026   3.019  15.467  14.385  0.0061 -0.2395  0.2588
35613ION     NA49027   5.412   6.141  10.053 -0.2274  0.0741  0.3189
35614ION     NA49028  15.937   3.643   6.106  0.2253 -0.0666  0.1523
35615ION     NA49029  16.854  15.286   0.004 -0.0860 -0.0290  0.1668
35616ION     NA49030  13.964   0.641  10.486 -0.0243 -0.1538 -0.0577
35617ION     NA49031  12.932  15.194   6.230 -0.2254 -0.0626  0.0503
35618ION     NA49032   7.115   0.916  14.413  0.0342 -0.1426 -0.2709
35619ION     NA49033   6.018  12.285   5.824 -0.0104  0.0557  0.1612
35620ION     NA49034   6.079   9.402  12.560  0.0244 -0.3015  0.3164
35621ION     NA49035   1.169  13.196  10.467  0.0244  0.0833 -0.0985
35622ION     NA49036   9.161  15.304   1.649  0.0856 -0.0976  0.0564
35623ION     NA49037   7.174  13.384   5.200  0.0904  0.0566 -0.0170
35624ION     NA49038  10.525   1.591   4.111  0.0090 -0.2599  0.0179
35625ION     NA49039   0.981   5.455   4.810 -0.2219  0.1331 -0.2489
35626ION     NA49040   1.679  17.455   4.547  0.1738  0.0402  0.1498
35627ION     NA49041  15.708  10.065   6.499 -0.2374 -0.1699  0.1867
35628ION     NA49042  12.694  12.643  15.142 -0.1159  0.1451  0.2782
35629ION     NA49043  16.602   2.662  14.976 -0.0737  0.2373  0.1166
35630ION     NA49044   0.826   1.803   4.396  0.0395 -0.2162 -0.1625
35631ION     NA49045  11.762   0.666  11.459  0.1235  0.1443 -0.4825
35632ION     NA49046  14.925   4.279  13.338 -0.0742 -0.0364  0.1242
35633ION     NA49047   6.445  16.917   0.211 -0.4174 -0.1160 -0.0227
35634ION     NA49048  18.448  11.380  10.111  0.0826 -0.4464  0.1716
35635ION     NA49049   7.729  14.812   5.741  0.1056  0.1121 -0.2908
35636ION     NA49050  17.214  12.786  12.788 -0.2707  0.0488 -0.3533
35637ION     NA49051  15.803   0.794   5.988 -0.1161  0.0946 -0.3773
35638ION     NA49052  10.907  11.341  10.539  0.1019  0.1559 -0.1692
35639ION     NA49053   6.061   1.268   2.497  0.0019  0.4954 -0.0434
35640ION     NA49054  15.287   4.009   9.773 -0.3245 -0.0833 -0.3558
35641ION     NA49055  10.063   2.793  14.837  0.1531 -0.0251 -0.1311
35642ION     NA49056  17.869   4.329   2.224  0.1655  0.1152 -0.0121
35643ION     NA49057  16.323  10.049   3.835 -0.0326  0.2294  0.0976
35644ION     NA49058  16.265  12.999  13.689  0.5492  0.0791  0.2736
35645ION     NA49059   7.170   9.175   0.046 -0.0108 -0.0002  0.0159
35646ION     NA49060   3.703  14.684   5.615  0.1918 -0.2120  0.1810
35647ION     NA49061   2.736  11.198  12.538 -0.3285  0.0103 -0.2284
35648ION     NA49062  13.061   3.776  15.438  0.0780  0.0096 -0.3518
35649ION     NA49063  14.506  17.664   6.239 -0.0626  0.2637 -0.3334
35650ION     NA49064   4.574   7.862  12.198  0.2581  0.3405 -0.0891
35651ION     NA49065  17.011   0.441   6.347 -0.2701 -0.0664  0.1527
35652ION     NA49066   1.106   4.573  10.577 -0.2674 -0.0159 -0.1390
35653ION     NA49067   1.945  17.537  14.014  0.2733  0.2529  0.2661
35654ION     NA49068  15.012  10.131  10.511 -0.1469 -0.2624 -0.0012
35655ION     NA49069  14.908  13.598   5.751  0.0812 -0.2325 -0.0914
35656ION     NA49070   9.604   3.328   5.216 -0.1964  0.1516 -0.1456
35657ION     NA49071   4.161   0.468   0.821  0.1892  0.0517 -0.1260
35658ION     NA49072   3.345  12.393   4.835 -0.0450 -0.2928  0.1787
35659ION     NA49073  10.703  16.971   4.665  0.0140  0.1915 -0.2600
35660ION     NA49074  16.042  16.220   6.003 -0.0749 -0.3356  0.0179
35661ION     NA49075  18.510   5.909   6.422  0.1541 -0.2276 -0.0058
35662ION     NA49076  14.204  16.040  14.590 -0.1433 -0.1775 -0.2087
35663ION     NA49077  11.344  15.655   1.029  0.4150  0.1916 -0.2100
35664ION     NA49078  17.650  14.035  11.974 -0.1114  0.0519 -0.1002
35665ION     NA49079  14.087  18.305   3.365 -0.0573  0.0016 -0.1785
35666ION     NA49080  15.277  14.686  14.887 -0.1476 -0.0048  0.1343
35667ION     NA49081   6.529   9.257   4.279 -0.4103 -0.3283 -0.1831
35668ION     NA49082   1.521  18.498   1.765  0.2518  0.3650 -0.0266
35669ION     NA49083  14.097  10.182   6.377  0.1305 -0.2384  0.1263
35670ION     NA49084  16.582  15.682   0.908 -0.2172 -0.0016  0.0052
35671ION     NA49085   4.842   9.403   6.057 -0.2671 -0.0361  0.2527
35672ION     NA49086   7.217  16.291  13.993  0.2119  0.1549  0.1063
35673ION     NA49087  15.679  10.019  13.053 -0.2187  0.0760 -0.1146
35674ION     NA49088   7.827  13.989   9.455  0.1599  0.1777 -0.2141
35675ION     NA49089   3.630  10.359  15.330 -0.1235  0.1103 -0.0229
35676ION     NA49090   0.985   4.964  10.280 -0.0534  0.0958 -0.1418
35677ION     NA49091   7.684   0.760   0.311  0.0327 -0.0649 -0.0203
35678ION     NA49092  17.460   3.524  12.997  0.0415  0.0977 -0.0318
35679ION     NA49093   0.159   1.857  11.805  0.1813 -0.1553  0.0308
35680ION     NA49094   2.303  18.110   3.751  0.1251 -0.0880 -0.0309
35681ION     NA49095   5.264  16.774   9.953 -0.1611 -0.0888 -0.3344
35682ION     NA49096  12.018   2.633   2.720  0.2631 -0.0613 -0.1774
35683ION     NA49097  12.773   7.850   0.205  0.1182  0.0867 -0.1630
35684ION     NA49098   3.422   9.866   6.229 -0.2665  0.0070 -0.0286
35685ION     NA49099   7.544  12.067   3.007 -0.0773  0.0377  0.1179
35686ION     NA49100  16.943  14.680  13.153 -0.1739  0.1373  0.0131
35687ION     NA49101  13.779   9.521  13.924  0.1770  0.0365 -0.1310
35688ION     NA49102   9.506  13.958   0.666  0.2621 -0.2590 -0.4161
35689ION     NA49103  15.869  17.139   3.239 -0.1997  0.0069 -0.2490
35690ION     NA49104  14.768   9.909  15.655 -0.0538  0.0751 -0.0626
35691ION     NA49105  10.814   0.447   2.577 -0.1422 -0.1667 -0.2550
35692ION     NA49106  10.434  16.125   4.759  0.3064 -0.3726 -0.3324
35693ION     NA49107   4.945  11.469   1.795 -0.0960 -0.0205  0.0896
35694ION     NA49108   3.824  14.114   2.341  0.0868 -0.0209  0.1781
35695ION     NA49109   0.167   6.102  15.628 -0.0463  0.0616 -0.0636
35696ION     NA49110  13.945   3.033  11.199 -0.2099  0.2525 -0.0055
35697ION     NA49111  17.941   1.938   2.586 -0.3840 -0.1309 -0.2623
35698ION     NA49112   8.172   1.452  11.961  0.1839 -0.0712  0.1383
35699ION     NA49113   6.254  11.825   5.488 -0.0344 -0.3566 -0.2609
35700ION     NA49114  10.167  18.370  11.601  0.0029 -0.0384 -0.0551
35701ION     NA49115   3.550   5.233  10.210 -0.0598 -0.3562  0.1450
35702ION     NA49116   9.161   2.942  12.029  0.3671  0.0726  0.1972
35703ION     NA49117  18.443   4.010   0.618 -0.0143 -0.2777 -0.0028
35704ION     NA49118   6.286  10.430   2.951  0.3367 -0.2172 -0.1205
35705ION     NA49119  17.453  17.393  10.054  0.1240  0.2572 -0.0041
35706ION     NA49120  10.851   3.460  13.967  0.2397  0.0257 -0.1610
35707ION     NA49121  14.711   0.928   6.222 -0.1159 -0.0607 -0.0528
35708ION     NA49122   6.811   3.608  13.622  0.0488  0.0060 -0.3637
35709ION     NA49123  14.992   8.274  11.332  0.0101  0.2709 -0.0009
35710ION     NA49124   0.343   4.465   6.179  0.1420 -0.1187  0.1135
35711ION     NA49125  12.375   2.218   1.237 -0.0841 -0.0691  0.1749
35712ION     NA49126   8.707   7.157   1.860 -0.0087 -0.1163 -0.2448
35713ION     NA49127   3.962  14.641  10.085 -0.1310  0.0216 -0.0686
35714ION     NA49128   2.434   7.136  12.965  0.0717  0.2098  0.2393
35715ION     NA49129  18.386   1.977   5.000  0.0594 -0.2375 -0.1355
35716ION     NA49130  15.826  10.209  16.093  0.2697  0.1077 -0.1703
35717ION     NA49131   6.591   3.043   9.726 -0.1511  0.3455  0.0173
35718ION     NA49132  13.461  16.465   2.764  0.2207 -0.1489  0.0294
35719ION     NA49133   7.035   1.062  11.206  0.1979 -0.1570  0.3992
35720ION     NA49134   5.142   1.787  16.132 -0.0045 -0.1369  0.1090
35721ION     NA49135  11.584   9.267   1.521  0.0095 -0.3606 -0.0334
35722ION     NA49136   0.630  17.229  10.235  0.0851 -0.0496  0.1527
35723ION     NA49137   0.014   6.161  12.203 -0.2281 -0.0777 -0.0144
35724ION     NA49138   9.835   8.962   6.384 -0.1198 -0.0600 -0.2425
35725ION     NA49139  10.337   9.282   3.068  0.0473  0.0482 -0.3081
35726ION     NA49140  13.279  11.781   4.490 -0.0263 -0.1602 -0.2068
35727ION     NA49141   1.699   9.162   1.121  0.2320 -0.3861 -0.0380
35728ION     NA49142  13.502   2.122  14.390  0.1733  0.1821 -0.3390
35729ION     NA49143   4.980  11.878  10.009  0.0696  0.4492 -0.0058
35730ION     NA49144  17.608   7.420  14.012 -0.0647 -0.3749  0.1601
35731ION     NA49145   9.637   3.701   6.513 -0.1314 -0.1183 -0.0503
35732ION     NA49146   9.867   2.263   4.240 -0.2965 -0.2930  0.3373
35733ION     NA49147  11.494  17.717   5.056  0.1895 -0.0146  0.2190
35734ION     NA49148  14.435  17.456  12.394 -0.2967 -0.5108  0.1098
35735ION     NA49149   9.687   8.697  12.264 -0.0490 -0.1129 -0.1320
35736ION     NA49150  18.209   7.754   1.544  0.0608  0.3022  0.4223
35737ION     NA49151   1.367  16.361   1.767  0.1060 -0.0536  0.0041
35738ION     NA49152   6.800  15.946  13.023 -0.1167  0.3204  0.1478
35739ION     NA49153   6.006  17.383   5.778 -0.2116  0.0825  0.2029
35740ION     NA49154  14.132  14.791   4.459 -0.0069 -0.1670  0.0571
35741ION     NA49155   0.925   3.469   6.330 -0.1408  0.2666 -0.1121
35742ION     NA49156  18.357  15.206  13.675  0.0706 -0.1995  0.0613
35743ION     NA49157   5.741  18.429   0.422  0.2632  0.0152 -0.1925
35744ION     NA49158  12.348   4.107   3.024 -0.1149  0.0825 -0.1396
35745ION     NA49159  17.498   5.638  15.713 -0.0670 -0.0809  0.0695
35746ION     NA49160   0.099   5.882  14.014 -0.2110 -0.1578 -0.0941
35747ION     NA49161   7.263   3.012   2.326  0.1326  0.0650  0.2641
35748ION     NA49162   2.836  10.678  15.359  0.1480  0.0101  0.1193
35749ION     NA49163  17.250   5.963   0.193  0.0778 -0.3536 -0.2439
35750ION     NA49164   6.323  11.881   1.518 -0.2102  0.5940  0.0861
35751ION     NA49165  16.558  17.986   1.257 -0.0614  0.1882  0.1570
35752ION     NA49166  14.295   7.564   1.326 -0.3572  0.0167 -0.1319
35753ION     NA49167  17.355   0.427   0.045  0.5313 -0.1097 -0.4546
35754ION     NA49168   7.928   8.606   5.153  0.1235  0.0624 -0.1369
35755ION     NA49169  17.171  12.709  16.156 -0.2352  0.0037 -0.1758
35756ION     NA49170   9.951   4.658  12.864 -0.0131  0.3090  0.3427
35757ION     NA49171  15.595  16.008   5.911 -0.0360 -0.1155  0.1071
35758ION     NA49172  10.014  15.713  15.165  0.4016  0.0807 -0.1415
35759ION     NA49173   1.181   8.843   6.304 -0.1525 -0.1167  0.0488
35760ION     NA49174  15.463  15.715  13.070 -0.1332 -0.0292  0.2781
35761ION     NA49175  13.415   8.766  15.921 -0.2049 -0.0901 -0.1365
35762ION     NA49176  11.307  18.480  16.126 -0.1805  0.1673  0.3820
35763ION     NA49177   5.085  14.191  14.788 -0.1777 -0.1281 -0.0148
35764ION     NA49178   1.769   5.935  10.258 -0.2092 -0.1982  0.2077
35765ION     NA49179  11.260   4.215   0.488 -0.0571 -0.2010 -0.0445
35766ION     NA49180  13.120  15.659   6.181 -0.1236  0.1531  0.2900
35767ION     NA49181  11.262  12.673   4.185 -0.0265 -0.0668  0.2949
35768ION     NA49182   4.697  14.698  14.240 -0.1599 -0.1048  0.0948
35769ION     NA49183   7.666   8.865   2.492  0.0379  0.1370  0.3261
35770ION     NA49184   9.168  12.146  10.052  0.1568 -0.2119 -0.1721
35771ION     NA49185  12.507   5.112  13.836 -0.2875  0.1341  0.3724
35772ION     NA49186  16.473  12.155  15.072  0.0392  0.0720 -0.1954
35773ION     NA49187   1.522  12.711  13.131  0.3130  0.1824 -0.0525
35774ION     NA49188  11.350  17.320   5.846 -0.2877 -0.0889  0.0094
35775ION     NA49189  13.861   6.183   6.460 -0.1640  0.2211 -0.0594
35776ION     NA49190   9.846   0.602  15.354 -0.0026  0.1804 -0.1456
35777ION     NA49191  13.173   9.884   6.374  0.1508  0.1350  0.0767
35778ION     NA49192   2.816  13.901   5.947  0.0062 -0.3359  0.2739
35779ION     NA49193  17.438  15.953   0.446  0.1629 -0.1778  0.1899
35780ION     NA49194  13.163  13.596   6.307  0.2206  0.0506  0.0144
35781ION     NA49195   9.601  11.156   9.834 -0.0572 -0.4221 -0.1505
35782ION     NA49196   9.894   1.299   5.772  0.0583  0.1385 -0.4618
35783ION     NA49197  13.630  13.205   1.781 -0.1327  0.0805 -0.1597
35784ION     NA49198  13.529   8.086  10.010 -0.0700  0.1394 -0.4152
35785ION     NA49199  15.821   9.042   5.203  0.2294  0.0093  0.1309
35786ION     NA49200  16.785  10.564  15.580  0.1661 -0.1498 -0.1042
35787ION     NA49201   3.351   3.737  10.853  0.1091 -0.1974  0.0871
35788ION     NA49202  12.118  17.669  12.372 -0.0425 -0.3516  0.0107
35789ION     NA49203   8.287  16.137  12.455  0.1581 -0.4382 -0.1237
35790ION     NA49204  11.327   3.828   2.016  0.1144  0.1630  0.0145
35791ION     NA49205  14.261  14.932   0.791 -0.3773  0.5080  0.3433
35792ION     NA49206   9.346  12.141   4.722 -0.0276 -0.0778 -0.1345
35793ION     NA49207   7.969  17.515  13.653 -0.1786  0.0906 -0.0065
35794ION     NA49208   6.182  10.983  14.608  0.1939 -0.1183 -0.0545
35795ION     NA49209  11.685  14.115  10.596 -0.1112  0.1181 -0.2403
35796ION     NA49210   8.625   3.847   3.524 -0.0285 -0.1102  0.4336
35797ION     NA49211  13.577  16.562  11.424  0.1620  0.1435  0.2533
35798ION     NA49212  13.509  13.869  13.905 -0.1634  0.0670 -0.1263
35799ION     NA49213   4.016   1.588   5.462  0.3011 -0.3646 -0.0625
35800ION     NA49214  15.489  12.352   5.131 -0.1293  0.1632  0.0802
35801ION     NA49215  17.512   2.765  14.337 -0.2431  0.1063 -0.2785
35802ION     NA49216  16.085  14.926   0.499  0.3113 -0.1405 -0.0893
35803ION     NA49217   2.596  15.303   1.875 -0.1622 -0.2796  0.1991
35804ION     NA49218   0.872   0.433   4.775  0.0184  0.2380  0.0775
35805ION     NA49219  14.879   1.424   3.797 -0.1451 -0.1578  0.0764
35806ION     NA49220  12.425  16.256  13.823  0.0550  0.0669  0.0440
35807ION     NA49221   1.600  12.496  15.238 -0.1794  0.1522 -0.0074
35808ION     NA49222  16.912  17.158  15.490 -0.0208  0.0216  0.2455
35809ION     NA49223   7.613  12.409  16.038 -0.0613  0.2033 -0.0031
35810ION     NA49224   9.356  17.570   4.535 -0.2832  0.0479 -0.0772
35811ION     NA49225  11.520   0.958  10.588  0.0745  0.0031 -0.1073
35812ION     NA49226  16.933   5.594  10.821 -0.0012  0.1683  0.1382
35813ION     NA49227   2.848   1.368   2.466 -0.1004 -0.0702  0.0050
35814ION     NA49228   3.662  12.649   9.777 -0.0151  0.1654  0.2650
35815ION     NA49229  15.632   5.179   2.905  0.1076 -0.0349  0.0065
35816ION     NA49230  10.271   3.259   1.423  0.1916  0.2711  0.1892
35817ION     NA49231  12.763  17.200  14.770 -0.1681  0.1451  0.0415
35818ION     NA49232  14.142  10.797   6.189 -0.0965 -0.1351  0.2444
35819ION     NA49233   1.127  14.571   2.713  0.0279 -0.1966  0.2502
35820ION     NA49234  14.844   4.588   9.916 -0.1593 -0.0190  0.0365
35821ION     NA49235   2.283  17.961   1.076 -0.0101 -0.2997 -0.0160
35822ION     NA49236   8.153   0.032  14.439  0.1334  0.0819  0.0800
35823ION     NA49237   1.760  11.712   5.777  0.0176 -0.0490  0.1022
35824ION     NA49238   5.799   5.814   0.527 -0.2638 -0.1119 -0.0829
35825ION     NA49239  17.755  12.523   4.793 -0.1127  0.0620  0.0526
35826ION     NA49240  13.583  17.200  15.310  0.3476  0.2007  0.3463
35827ION     NA49241   8.868   0.360   1.377 -0.1102  0.2094  0.2793
35828ION     NA49242   5.893   4.061  14.667  0.4142 -0.0357  0.2622
35829ION     NA49243  15.807  17.468  14.068 -0.2407  0.0267  0.1332
35830ION     NA49244  11.363  15.183  10.040 -0.1238 -0.0332 -0.2956
35831ION     NA49245  17.304  13.020  10.687  0.1593  0.0053  0.4898
35832ION     NA49246  10.351   1.031  13.887 -0.4365  0.3739  0.3161
35833ION     NA49247   3.542   1.907   0.679  0.0501 -0.2050  0.1056
35834ION     NA49248   5.759  15.447  12.153  0.3038 -0.0229  0.3678
35835ION     NA49249   4.068   5.166  12.732  0.0551  0.0713 -0.0024
35836ION     NA49250  11.435   3.413  12.309  0.0663  0.2609  0.1579
35837ION     NA49251  10.176  10.451   2.933 -0.0626  0.1471  0.1020
35838ION     NA49252  15.884   6.416  15.483 -0.4627 -0.0204 -0.0567
35839ION     NA49253   6.576   8.926   3.042  0.0062 -0.1792 -0.1532
35840ION     NA49254  14.224   6.829   4.814 -0.0829 -0.1322  0.1298
35841ION     NA49255   1.937  12.106   5.013  0.1076  0.1894 -0.0531
35842ION     NA49256  14.851   8.494   4.249  0.2178 -0.1561  0.1343
35843ION     NA49257   5.624   7.605   2.489  0.1279  0.1102  0.2566
35844ION     NA49258  18.425  17.533   2.297  0.0749  0.3594  0.3166
35845ION     NA49259  18.239  12.204  10.056 -0.0896  0.2679  0.1021
35846ION     NA49260  14.940   7.575  13.131 -0.1954 -0.0622 -0.0333
35847ION     NA49261   8.050   1.444   6.077  0.0785  0.0028  0.0372
35848ION     NA49262   1.291   2.309   0.397 -0.1861  0.0679 -0.0600
35849ION     NA49263  14.054   0.335  14.546  0.1781  0.1942  0.2915
35850ION     NA49264  16.551  14.176   6.237 -0.0937 -0.0344 -0.2422
35851ION     NA49265  11.694   5.285   2.669  0.0942 -0.3439  0.1837
35852ION     NA49266  12.273   4.313   6.570 -0.2414 -0.0639  0.2902
35853ION     NA49267  11.048   4.451  10.071 -0.1548 -0.4558 -0.1009
35854ION     NA49268  11.197  11.373  16.217 -0.0702  0.0201 -0.1612
35855ION     NA49269  13.331   4.721   1.696 -0.0165 -0.0793 -0.1429
35856ION     NA49270  17.228  16.772   1.781 -0.1149  0.1222  0.0052
35857ION     NA49271   7.530  12.024   5.962 -0.0173 -0.0257  0.1321
35858ION     NA49272  13.027   6.565  15.306  0.1469 -0.1050 -0.1276
35859ION     NA49273   6.023   4.039  13.615  0.1942 -0.0464 -0.2125
35860ION     NA49274  11.165  10.922   6.310  0.2284  0.0832  0.1481
35861ION     NA49275   8.306   1.379  13.812 -0.2246  0.0795  0.1776
35862ION     NA49276  15.357   4.197   1.074 -0.1357 -0.0870  0.1740
35863ION     NA49277  12.196  18.086   3.894  0.2397 -0.2635  0.5205
35864ION     NA49278  16.211   8.701   3.849 -0.1565  0.3032  0.1609
35865ION     NA49279  15.175  18.125   5.746  0.2550 -0.0063 -0.0371
35866ION     NA49280  17.522  12.219   0.605  0.1118 -0.1737  0.0247
35867ION     NA49281   0.251   4.175  10.298 -0.1815  0.5554  0.3908
35868ION     NA49282   2.091  18.153  10.421  0.0508 -0.1970 -0.1688
35869ION     NA49283   2.749  10.233   5.768  0.0608 -0.1236 -0.0948
35870ION     NA49284  18.324  14.182   6.230 -0.0812 -0.0048 -0.0437
35871ION     NA49285   0.380  14.392  13.739 -0.1497  0.1381 -0.1346
35872ION     NA49286   1.058   9.311   1.808 -0.3966  0.0402  0.0170
35873ION     NA49287  17.566   6.526  10.200 -0.1318 -0.4129 -0.0874
35874ION     NA49288  10.486  10.270   4.294  0.0675 -0.1683  0.1451
35875ION     NA49289  10.845   0.672  14.651  0.0924  0.0128  0.0615
35876ION     NA49290  13.660   4.383  11.342  0.0075  0.0724  0.0951
35877ION     NA49291   4.842   6.993   5.214 -0.1573  0.0667 -0.2922
35878ION     NA49292   9.133  17.873   1.500 -0.1106 -0.1168  0.2579
35879ION     NA49293   5.596   7.103   0.629  0.0990 -0.2835 -0.0000
35880ION     NA49294  14.503   8.195   6.084  0.0831  0.1725 -0.0936
35881ION     NA49295   9.400   5.613   0.549  0.1017 -0.0426 -0.2267
35882ION     NA49296   4.303  15.496  13.758  0.0551 -0.0116 -0.1235
35883ION     NA49297  14.163  11.031   2.928 -0.1985  0.0190 -0.3246
35884ION     NA49298  13.170   8.103   6.109 -0.0536  0.0190 -0.0785
35885ION     NA49299  13.932  16.897   6.325 -0.1339  0.2632 -0.1135
35886ION     NA49300   8.691   7.383   6.563  0.0222  0.1200  0.2504
35887ION     NA49301  11.220  15.664   4.959  0.1309  0.0674  0.1227
35888ION     NA49302   9.237   6.826   6.232 -0.0940  0.0948 -0.0858
35889ION     NA49303  14.582  15.766   1.864  0.1657  0.0051 -0.2903
35890ION     NA49304   1.846   1.181  12.555 -0.2106  0.1824 -0.0112
35891ION     NA49305  10.464   9.544  10.217 -0.3043  0.0580 -0.0515
35892ION     NA49306   3.378   7.431   3.836 -0.0207  0.0470 -0.4681
35893ION     NA49307   5.845   2.804   2.532 -0.1995  0.2175 -0.2536
35894ION     NA49308  14.271  12.435   2.040 -0.2010 -0.3124  0.3193
35895ION     NA49309  10.840  10.036   5.137 -0.0499  0.1028 -0.0355
35896ION     NA49310   4.110   1.289   0.050  0.0799 -0.3291  0.0970
35897ION     NA49311   7.806   4.020   1.605 -0.1497  0.1103  0.0081
35898ION     NA49312   2.614  16.758  15.225  0.1867  0.0844 -0.0474
35899ION     NA49313  13.117   7.010  13.827 -0.0866  0.0106 -0.1147
35900ION     NA49314   7.715  11.755  12.531  0.0050  0.2032  0.1876
35901ION     NA49315   0.625  14.121  10.906  0.2576 -0.0499  0.0711
35902ION     NA49316  11.925  10.223  10.714 -0.3130  0.2296 -0.1383
35903ION     NA49317  17.933   2.355  10.346  0.3098  0.1434 -0.0768
35904ION     NA49318  17.841  10.912  13.965 -0.1114  0.1299  0.2587
35905ION     NA49319   9.760  15.977   9.834 -0.1397 -0.1194  0.2647
35906ION     NA49320   8.623  15.159   5.974  0.0108 -0.0894 -0.1722
35907ION     NA49321   8.463  11.103   5.111  0.2326  0.3073 -0.0197
35908ION     NA49322   3.984   9.407   6.042  0.0825 -0.2056  0.2088
35909ION     NA49323  12.581  17.349  16.209 -0.0468  0.1155  0.1259
35910ION     NA49324   0.459  15.085   5.746 -0.1660 -0.0125  0.0299
35911ION     NA49325   3.276   8.402   1.029 -0.0989 -0.1405  0.0883
35912ION     NA49326   2.056   4.431  12.997  0.0112  0.3580  0.2062
35913ION     NA49327  17.900   7.620   0.727 -0.1507 -0.1189 -0.0168
35914ION     NA49328  14.370  17.578  10.592 -0.3260 -0.1036  0.0452
35915ION     NA49329   5.777   4.165  12.540 -0.0616 -0.1784 -0.0523
35916ION     NA49330  12.622   4.273   0.044  0.0825 -0.0437 -0.1136
35917ION     NA49331   1.718  10.699   2.780 -0.0418 -0.1010 -0.1703
35918ION     NA49332   8.716  14.602   9.785  0.1318 -0.0316  0.0388
35919ION     NA49333   9.033   3.334  14.028 -0.1500 -0.0596 -0.0463
35920ION     NA49334  13.064  18.031   5.991 -0.2634 -0.3115  0.0771
35921ION     NA49335   9.291   2.031  10.308  0.2277  0.0191  0.1896
35922ION     NA49336  11.698  17.024   6.003 -0.1685  0.3311  0.0008
35923ION     NA49337  13.150  13.540  13.127 -0.3512 -0.1005 -0.0721
35924ION     NA49338  10.240   4.142  10.563 -0.0318  0.0222  0.0491
35925ION     NA49339  14.744   4.765   3.350  0.1267 -0.0269  0.3479
35926ION     NA49340  16.399   4.619  10.323 -0.0914  0.1251 -0.0893
35927ION     NA49341  14.074   2.676  10.268  0.0276  0.1268  0.2104
35928ION     NA49342   5.624  11.488   5.949 -0.1674  0.1620 -0.1824
35929ION     NA49343   3.560   4.634   5.915 -0.0746  0.0904 -0.1278
35930ION     NA49344   2.801   3.467   3.282  0.2766  0.0817 -0.1076
35931ION     NA49345   1.328  11.991  11.111  0.1725 -0.2330 -0.0499
35932ION     NA49346  16.021   9.068  10.269 -0.0292 -0.1705  0.0626
35933ION     NA49347   9.608  14.754  10.852  0.2538 -0.0331 -0.1126
35934ION     NA49348   5.674  10.889   0.177  0.2641 -0.1547  0.2761
35935ION     NA49349  15.426   8.911   2.432  0.3389 -0.2405  0.2187
35936ION     NA49350   0.048   5.736  15.964 -0.0552 -0.1718 -0.0589
35937ION     NA49351  14.155  14.618  14.960  0.0543  0.2448  0.0429
35938ION     NA49352   7.029   3.180  16.007  0.1358  0.1517  0.1652
35939ION     NA49353  17.938  10.857   1.201  0.1320  0.1000  0.0393
35940ION     NA49354   7.294   5.747  13.913  0.1421 -0.2335  0.2815
35941ION     NA49355   9.752  13.737   2.051  0.1627  0.1082  0.3461
35942ION     NA49356  16.944   9.179   6.464 -0.1585  0.1953  0.0971
35943ION     NA49357   0.606  16.814   6.332 -0.3412  0.4488 -0.1085
35944ION     NA49358  16.863   8.664   6.246  0.0651  0.0349  0.2591
35945ION     NA49359  15.512   5.061  15.379  0.1615 -0.0397 -0.0836
35946ION     NA49360  10.095  13.974   9.932  0.1080  0.1278  0.0990
35947ION     NA49361  10.620  10.897   0.715  0.1038  0.0997 -0.0940
35948ION     NA49362  17.920  17.281   0.956  0.0496  0.0263  0.0443
35949ION     NA49363   5.673   9.351   3.037  0.0874 -0.1863  0.1143
35950ION     NA49364  13.970  15.950  10.166  0.0395  0.1464 -0.1288
35951ION     NA49365   7.445   3.201   2.820  0.0778 -0.0935 -0.0749
35952ION     NA49366  10.590   3.776   1.142 -0.0651  0.1486  0.0643
35953ION     NA49367   1.345   2.322   5.934 -0.2560 -0.0584  0.1656
35954ION     NA49368   3.404  16.554   6.159 -0.0863 -0.2517  0.4386
35955ION     NA49369  11.533   6.620   3.031 -0.1326  0.1345 -0.0491
35956ION     NA49370  15.886  17.444  13.182 -0.0057 -0.0307 -0.1820
35957ION     NA49371   3.026  11.922  13.915  0.0998  0.0222  0.3488
35958ION     NA49372  13.329   4.174   2.259 -0.0625  0.1335 -0.1149
35959ION     NA49373  11.208  17.146  12.706 -0.1526  0.1801 -0.1397
35960ION     NA49374   2.507   8.117  10.221  0.1728 -0.3918 -0.4537
35961ION     NA49375  11.374   4.444   6.282 -0.0413  0.3042 -0.1062
35962ION     NA49376  14.637   6.417   3.526 -0.0029 -0.1413 -0.2704
35963ION     NA49377  13.037  15.499   0.323 -0.0776  0.2661 -0.0677
35964ION     NA49378  15.076  10.716  13.997  0.1940 -0.1370  0.2259
35965ION     NA49379  14.479   7.213   6.314 -0.0926 -0.2484 -0.0093
35966ION     NA49380   1.592   7.369  15.104  0.2661 -0.0636  0.1860
35967ION     NA49381   6.662   3.907   5.026  0.0431 -0.0512  0.0191
35968ION     NA49382  16.586   6.834   6.019  0.0392  0.0434 -0.2004
35969ION     NA49383   4.397  12.045  11.875 -0.0287  0.1969 -0.2183
35970ION     NA49384  17.200  13.644  11.222 -0.1006 -0.1361 -0.1794
35971ION     CL49385  14.125   2.469   5.592 -0.0222 -0.0400 -0.2625
35972ION     CL49386   3.627  15.373  10.717 -0.2059 -0.1744  0.2542
35973ION     CL49387   0.776  18.522   4.567  0.4320  0.0658 -0.0827
35974ION     CL49388  10.358   3.573   5.321 -0.1318 -0.0629 -0.3683
35975ION     CL49389  13.732  10.374  11.921 -0.2145  0.0006  0.4113
35976ION     CL49390   8.250  14.923   0.650 -0.0370  0.2467  0.0548
35977ION     CL49391  15.246   9.739  15.794 -0.2295 -0.0131  0.1567
35978ION     CL49392   2.870  10.244   1.239  0.1204  0.1286  0.0003
35979ION     CL49393   7.267  15.782  12.999 -0.5023 -0.0215  0.1831
35980ION     CL49394   2.176  17.539   4.243 -0.3234 -0.0863 -0.1585
35981ION     CL49395  11.532  15.375   4.684  0.1444 -0.1060  0.0933
35982ION     CL49396  18.376   5.276  15.071  0.2824 -0.0791  0.2382
35983ION     CL49397   5.775   5.571   4.834  0.4045 -0.3132  0.3953
35984ION     CL49398  11.351   5.686  15.947 -0.2033 -0.0581 -0.1872
35985ION     CL49399  10.422  13.970   4.451 -0.0005  0.1828  0.2653
35986ION     CL49400  10.350  13.960   0.399 -0.0053 -0.1299  0.2571
35987ION     CL49401  11.077  16.858  15.529  0.2389  0.2833  0.2890
35988ION     CL49402  10.579  17.345  10.449 -0.0732 -0.0246 -0.0213
35989ION     CL49403   3.668  11.289   0.379 -0.1041 -0.1764  0.0885
35990ION     CL49404   9.631  13.170  16.136  0.0383  0.1409 -0.0201
35991ION     CL49405  13.172   7.458  13.569  0.1823 -0.0379 -0.0078
35992ION     CL49406  10.257   2.820  14.134 -0.3983 -0.3335 -0.2709
35993ION     CL49407   3.770   3.739   3.468 -0.1779 -0.0749 -0.1108
35994ION     CL49408  12.921   3.972   2.579 -0.1934  0.0878 -0.2079
35995ION     CL49409   4.175   9.262   4.458  0.0992  0.1267  0.1352
35996ION     CL49410  14.984   6.663   4.002  0.4551  0.1023 -0.0432
35997ION     CL49411  11.377   5.098  11.616  0.1571  0.0995 -0.0015
35998ION     CL49412  10.730   1.383   2.645 -0.3853 -0.1684  0.2633
35999ION     CL49413  18.259  18.407  11.765 -0.1535  0.1123 -0.1495
36000ION     CL49414  10.432  12.029   1.443  0.2919 -0.3087  0.3215
36001ION     CL49415   7.924   1.870   4.201 -0.0213 -0.2969 -0.4180
36002ION     CL49416  14.776  10.481  12.235 -0.2272  0.2015 -0.1925
36003ION     CL49417   8.021   0.320   2.456 -0.0738  0.1930  0.0296
36004ION     CL49418   1.503   2.408   0.857 -0.0239  0.1138 -0.4235
36005ION     CL49419  18.063   6.125  13.867 -0.0580 -0.3139  0.1348
36006ION     CL49420   6.904   3.835  13.217  0.1800  0.2245 -0.5044
36007ION     CL49421   1.818  10.903   1.760  0.0753  0.2376 -0.0646
36008ION     CL49422  12.967  17.812  12.982  0.0937  0.2450 -0.1884
36009ION     CL49423  15.469   1.266   5.083 -0.2707  0.1259 -0.3277
36010ION     CL49424  12.068   4.680   0.360 -0.0099 -0.1394 -0.1233
36011ION     CL49425  18.211   5.858  12.524  0.2176  0.1378 -0.0538
36012ION     CL49426  18.114   2.401   5.041 -0.2034 -0.0709  0.3436
36013ION     CL49427   7.943   9.241   2.378  0.3136  0.2341 -0.1593
36014ION     CL49428  13.181   4.261   1.763 -0.1410  0.1424  0.0064
36015ION     CL49429   4.328   0.874   0.451 -0.0493  0.1162 -0.0039
36016ION     CL49430   3.046  15.949  14.449  0.2560  0.0602  0.1652
36017ION     CL49431   4.284   4.249  12.292  0.1830  0.1802 -0.2104
36018ION     CL49432  15.133   5.411   2.866  0.0762 -0.1315 -0.0770
36019ION     CL49433   6.321   0.274  15.478 -0.1531  0.0572 -0.0592
36020ION     CL49434  18.408  14.307  12.380 -0.1701 -0.3252  0.0003
36021ION     CL49435  16.677   8.206  14.155 -0.1611  0.0360  0.0264
36022ION     CL49436   2.716   5.170   5.139  0.0919 -0.0663  0.0594
36023ION     CL49437  13.152   0.895   5.594 -0.0029  0.1158 -0.1046
36024ION     CL49438  13.019   7.779   5.750  0.0966 -0.0770  0.0503
36025ION     CL49439   4.325   3.834   1.739  0.1733 -0.0606 -0.1341
36026ION     CL49440  14.971  12.981   4.001  0.1036  0.2803 -0.1638
36027ION     CL49441  13.881   2.973  11.688 -0.1380 -0.1705 -0.2497
36028ION     CL49442   4.285  15.023  14.168 -0.0240  0.1131 -0.0756
36029ION     CL49443   4.418   7.094   5.466 -0.0783  0.1915 -0.3729
36030ION     CL49444  16.842  13.685   5.689  0.2808 -0.1458 -0.0085
36031ION     CL49445   9.350  14.080   1.180 -0.0814  0.1393  0.1282
36032ION     CL49446   0.629   6.604  14.828 -0.0817 -0.1518  0.0240
36033ION     CL49447   9.928   2.623  11.942 -0.3355  0.0944 -0.1172
36034ION     CL49448  16.055   9.645   3.875 -0.0658 -0.0666  0.0896
36035ION     CL49449   0.329   1.904   4.818  0.0505 -0.0282  0.0722
36036ION     CL49450  10.574   1.225  12.405 -0.0656 -0.0696 -0.0206
36037ION     CL49451  10.897  10.993   1.160  0.1739 -0.2478 -0.2567
36038ION     CL49452  14.409   8.526   5.669 -0.1343 -0.2239  0.0589
36039ION     CL49453   2.081   4.301   3.971 -0.1535 -0.0668 -0.2149
36040ION     CL49454  11.345   3.862  12.148 -0.1604  0.0409  0.0431
36041ION     CL49455   6.184  10.295   3.461  0.0054 -0.2013  0.2442
36042ION     CL49456   0.876   0.166  16.052  0.1563  0.1762 -0.3452
36043ION     CL49457   6.239  12.176  10.472 -0.3809  0.0540 -0.0021
36044ION     CL49458   5.146  14.373  14.282 -0.0582 -0.1426  0.0098
36045ION     CL49459  15.935  11.344  15.399  0.1178 -0.1184  0.0390
36046ION     CL49460   3.429  18.376   1.161  0.0627  0.0804 -0.0483
36047ION     CL49461  18.407   5.501   0.115 -0.0515  0.1208 -0.0429
36048ION     CL49462   3.059  14.379  12.904 -0.0789  0.1540  0.0509
36049ION     CL49463   6.230   0.703   2.157 -0.0141 -0.5956  0.4017
36050ION     CL49464   9.488  15.931  15.874 -0.1346 -0.0412 -0.2181
36051ION     CL49465  16.423  10.018   4.309  0.0090  0.1362 -0.0177
36052ION     CL49466  17.646   3.965  12.797  0.2819 -0.3061 -0.3442
36053ION     CL49467   5.583  18.329   4.476  0.2115 -0.0860  0.2115
36054ION     CL49468   7.852  12.268   3.434 -0.2002 -0.0353 -0.1606
36055ION     CL49469  10.388   0.439  13.830 -0.1078  0.1169 -0.0445
36056ION     CL49470   9.659   5.203   0.493 -0.0329 -0.3348 -0.1549
36057ION     CL49471   9.744   1.433   5.312 -0.0440 -0.3219  0.2143
36058ION     CL49472  10.457  13.142   1.585  0.1059 -0.1989 -0.3213
36059ION     CL49473  18.355   2.138  11.322 -0.1842 -0.2043 -0.0209
36060ION     CL49474   9.524   1.776  10.759 -0.0840 -0.1761 -0.1795
36061ION     CL49475   8.495   2.156  16.006 -0.1764 -0.1410  0.1384
36062ION     CL49476  12.229   1.339   5.299  0.3020 -0.2809 -0.1569
36063ION     CL49477   6.029  11.041   0.981  0.1027  0.2979  0.1749
36064ION     CL49478   1.168  18.116   1.708  0.3181 -0.1329  0.0370
36065ION     CL49479   7.513  11.620   3.194  0.1440 -0.0928  0.2810
36066ION     CL49480  15.622  11.499   0.005  0.3649  0.2828  0.0687
36067ION     CL49481   8.303   2.992  11.648 -0.0747 -0.1316 -0.1711
36068ION     CL49482  14.713  14.802   0.641 -0.1930 -0.0330  0.1681
36069ION     CL49483  13.978  17.309  12.561  0.4425 -0.2007  0.1373
36070ION     CL49484   5.366   5.885  10.985 -0.1059  0.2144 -0.1119
36071ION     CL49485   1.080   5.500   4.308  0.0293  0.1093  0.1320
36072ION     CL49486  15.119   8.193   3.890 -0.3884 -0.2031 -0.0198
36073ION     CL49487  17.401   0.231   4.993 -0.0639  0.0345  0.1090
36074ION     CL49488   9.068  10.478   4.453  0.1332 -0.1296  0.2120
36075ION     CL49489   7.218   5.693  12.968 -0.0556 -0.0311 -0.1979
36076ION     CL49490  15.429  10.413  13.233 -0.0480  0.0307  0.0491
36077ION     CL49491  18.276   2.996  11.455  0.0457 -0.1773 -0.0360
36078ION     CL49492  12.952  16.996   5.174 -0.1420  0.1147 -0.0308
36079ION     CL49493  10.788   1.262   0.481 -0.2321 -0.2175 -0.1786
36080ION     CL49494   1.303   9.084   1.444 -0.2973 -0.1043 -0.0796
36081ION     CL49495  16.806   8.679   5.702 -0.0245  0.0394 -0.2017
36082ION     CL49496   0.103  14.819  13.834 -0.4828  0.0742  0.0410
36083ION     CL49497  14.741  14.628  14.644  0.1268 -0.4226 -0.0504
36084ION     CL49498  17.535   6.912  14.191 -0.1095  0.1310 -0.1271
36085ION     CL49499   7.780  14.825   4.385 -0.4326 -0.0972  0.0606
36086ION     CL49500  12.853  17.750  11.482 -0.0609  0.2257  0.2962
36087ION     CL49501   9.168   6.782  13.962 -0.3603  0.1996  0.2568
36088ION     CL49502  15.154   2.554  14.726  0.3685  0.1480 -0.1410
36089ION     CL49503   3.367   7.691   2.094  0.2161 -0.1271  0.0380
36090ION     CL49504  17.958   7.802  14.061  0.3727  0.0851  0.0105
36091ION     CL49505  17.388  13.119  15.923 -0.0879 -0.0650 -0.2335
36092ION     CL49506   2.159  17.446  15.073  0.1434 -0.0799 -0.2202
36093ION     CL49507  10.945  13.542  15.736 -0.2763 -0.1852  0.1419
36094ION     CL49508  13.483  17.518  14.264 -0.1024 -0.0579 -0.0319
36095ION     CL49509   9.485   1.920   5.507 -0.1948 -0.0484  0.1168
36096ION     CL49510  15.247   1.795   6.109  0.4331  0.1832  0.0256
36097ION     CL49511   2.739  16.846  14.655  0.0273 -0.0931  0.1220
36098ION     CL49512  18.460   2.085   2.712 -0.0666 -0.1013  0.0186
36099ION     CL49513  17.833  15.769  14.243  0.4917  0.0996 -0.0143
36100ION     CL49514   7.422   7.823   2.546  0.2477 -0.3273 -0.2409
36101ION     CL49515  18.084   3.843   2.380 -0.2687  0.1345  0.1748
36102ION     CL49516   9.786  16.783   4.863 -0.0237  0.3685  0.0270
36103ION     CL49517   1.395   2.917   1.998  0.0871 -0.2272 -0.2238
36104ION     CL49518   6.218   3.993  15.506 -0.0340  0.2417 -0.0094
36105ION     CL49519  16.332   4.872  11.164 -0.2087  0.1091  0.1557
36106ION     CL49520   6.820   4.790  11.924  0.2230  0.0384  0.1115
36107ION     CL49521   4.145  14.496  12.655  0.0991  0.0394  0.2699
36108ION     CL49522   0.381   9.377  13.024 -0.2604 -0.0071 -0.1777
36109ION     CL49523   1.233   7.690  15.753 -0.0911 -0.2056 -0.1719
36110ION     CL49524   1.226  13.082  13.251 -0.0063 -0.0059  0.1005
36111ION     CL49525   2.737  11.454  14.816  0.0508  0.1110 -0.1390
36112ION     CL49526  13.406  15.919  15.227  0.1985 -0.0049 -0.0039
36113ION     CL49527   1.231  12.248  13.156  0.2562 -0.3260  0.1485
36114ION     CL49528   2.659   8.322  16.002  0.0059 -0.0676  0.2230
36115ION     CL49529   5.585  18.319   1.167 -0.1375 -0.1970 -0.3571
36116ION     CL49530  17.942   8.719  13.131  0.0407 -0.2069 -0.2279
36117ION     CL49531  15.489   3.753  10.650 -0.0502 -0.3380 -0.1629
36118ION     CL49532   3.003  15.122   1.675 -0.2704  0.0857  0.2289
36119ION     CL49533  16.392   3.073   4.887 -0.3705  0.1119  0.2694
36120ION     CL49534   0.545   8.397  10.001  0.0816  0.1280  0.0037
36121ION     CL49535  16.609  15.915   0.454  0.2567 -0.0162 -0.0013
36122ION     CL49536   8.574  14.527  11.267 -0.0192 -0.2998  0.0549
36123ION     CL49537  13.317   5.165   1.963  0.0118  0.1098  0.3393
36124ION     CL49538  11.526   4.355  13.057 -0.3036  0.3492  0.3279
36125ION     CL49539   3.333  14.268   2.269  0.3043  0.0710  0.1670
36126ION     CL49540   7.121  12.445  10.501 -0.2014  0.1023  0.1011
36127ION     CL49541  10.834   3.770   1.769  0.2648 -0.0187  0.0226
36128ION     CL49542  13.322  12.504   5.564 -0.0164 -0.0284 -0.0543
36129ION     CL49543  13.202  14.058  14.261 -0.2775  0.1781 -0.2234
36130ION     CL49544  17.061  10.841  15.885 -0.0249  0.3215 -0.1525
36131ION     CL49545  12.588   5.673   2.553 -0.1644 -0.3159 -0.0983
36132ION     CL49546  10.699  17.832  14.665 -0.0259 -0.1276 -0.3642
36133ION     CL49547   6.654  15.552   1.342  0.0540 -0.0553  0.1696
36134ION     CL49548   4.925  11.901   1.518 -0.0944 -0.0954 -0.1230
36135ION     CL49549  12.826  15.391   1.275 -0.1902  0.0681 -0.1840
36136ION     CL49550   4.244   9.338  14.332  0.0705 -0.0257  0.2263
36137ION     CL49551   9.642  10.520  15.072 -0.4049  0.1871  0.0109
36138ION     CL49552   1.861   3.888   4.314  0.2843 -0.4602 -0.0844
36139ION     CL49553   3.264  17.040   1.330  0.1673 -0.2400  0.2069
36140ION     CL49554  11.547  16.000   2.889  0.0239  0.0899  0.1471
36141ION     CL49555  10.063   1.738   4.147 -0.2140  0.2863  0.1668
36142ION     CL49556  18.445   4.464   5.739  0.0359  0.5487  0.3716
36143ION     CL49557   5.591   2.121   0.473  0.0862  0.2013 -0.1487
36144ION     CL49558   3.322  16.397  12.097 -0.2621  0.4327 -0.3338
36145ION     CL49559   8.583   7.954   0.481 -0.0002  0.0374  0.0983
36146ION     CL49560   6.041   8.438   4.857 -0.1990 -0.0304  0.3446
36147ION     CL49561   6.744   3.521   3.452 -0.0854 -0.1816 -0.0048
36148ION     CL49562   4.823  13.787  14.889 -0.1750  0.0621  0.0881
36149ION     CL49563  17.157  13.646   2.488 -0.0376 -0.3720  0.1888
36150ION     CL49564   1.608   0.196  14.472 -0.1396 -0.2168 -0.2937
36151ION     CL49565  11.644  11.465  12.997  0.0483  0.1627 -0.1996
36152ION     CL49566   7.239  13.287   4.719  0.1922 -0.0420  0.3228
36153ION     CL49567  13.457  13.935  13.383  0.1234  0.0587 -0.1635
36154ION     CL49568  12.838   1.469  15.318  0.2223  0.0127 -0.2098
36155ION     CL49569   7.418  11.583  11.093  0.0798 -0.1267  0.0406
36156ION     CL49570  10.358  16.187   5.263 -0.1189  0.1926 -0.0021
36157ION     CL49571   8.908  16.852  12.385  0.1992  0.1603 -0.4217
36158ION     CL49572   0.115  12.367   4.812  0.1251 -0.1171  0.1875
36159ION     CL49573   9.786   2.936   1.473 -0.0713  0.2064  0.4572
36160ION     CL49574   9.183  16.975  10.812  0.0514 -0.1517 -0.0917
36161ION     CL49575   4.089   3.158   5.153  0.1336  0.3591  0.2189
36162ION     CL49576   7.534   1.342   3.349 -0.0069 -0.1651 -0.2041
36163ION     CL49577  15.740   4.199   5.187 -0.2627  0.2042 -0.0575
36164ION     CL49578  10.155   8.968   2.722 -0.1905 -0.0088  0.1810
36165ION     CL49579  17.697   6.230  15.209  0.1165  0.0920 -0.1018
36166ION     CL49580  12.539   6.636  15.369 -0.1302 -0.0335 -0.0674
36167ION     CL49581  12.063  18.483  10.521  0.0871 -0.3084 -0.2210
36168ION     CL49582  12.669  18.235   3.759 -0.0786  0.0001 -0.0733
36169ION     CL49583   2.702  17.855   3.560 -0.0804  0.1603 -0.1758
36170ION     CL49584   9.320  18.313   1.428 -0.0208 -0.1637 -0.0752
36171ION     CL49585   5.329  14.348  15.605  0.1994  0.0411  0.0208
36172ION     CL49586  17.700  16.504   1.037  0.1118 -0.0690 -0.0286
36173ION     CL49587   9.125   9.155   4.926 -0.4297 -0.0215 -0.0558
36174ION     CL49588   7.087  16.388  14.492  0.1348 -0.1619 -0.0161
36175ION     CL49589   6.301   9.057   2.665  0.0815  0.0497 -0.0274
36176ION     CL49590  17.586  10.494  14.237 -0.0568  0.0906 -0.0794
36177ION     CL49591   2.420  11.347  12.179  0.0925 -0.0118 -0.4232
36178ION     CL49592  12.322   2.965   2.529 -0.2048  0.1722 -0.1604
  18.52310  18.52310  16.27221
